Variables = x, y, u, v, p

Zone, I=416, F=POINT
         -50            0 -4.27584e-19 -5.31442e-23     -117.022 
         -50     0.013333 -0.000377736 -1.07069e-07     -117.022 
         -50     0.053333  -0.00034735 -4.02896e-07     -117.022 
         -50         0.12 -0.000328066 -9.47235e-07     -117.022 
         -50     0.213332 -0.000319891 -1.66044e-06     -117.022 
         -50     0.333332 -0.000320257 -2.55513e-06     -117.022 
         -50         0.48 -0.000324265 -2.83118e-06     -117.022 
         -50     0.653331 -0.000329837 -3.63238e-06     -117.021 
         -50     0.853332 -0.000336749 -4.66081e-06     -117.021 
         -50         1.08 -0.000343415 -6.09242e-06      -117.02 
         -50      1.33333 -0.000348661 -7.67083e-06     -117.019 
         -50      1.61333 -0.000353419 -1.00054e-05     -117.017 
         -50         1.92 -0.000358959 -1.15859e-05     -117.015 
         -50      2.25333 -0.000365285 -1.57441e-05     -117.012 
         -50      2.61333  -0.00037032 -2.09275e-05     -117.009 
         -50            3  -0.00036931 -2.22297e-05     -117.005 
         -25            0           -0           -0     -112.306 
         -25     0.013333  -0.00028105 -4.20399e-08     -112.306 
         -25     0.053333 -0.000270937 -1.82052e-07     -112.306 
         -25         0.12 -0.000267688 -5.76975e-07     -112.306 
         -25     0.213332 -0.000263983 -1.43103e-06     -112.306 
         -25     0.333332 -0.000258902 -2.83656e-06     -112.306 
         -25         0.48 -0.000255323 -4.73571e-06     -112.306 
         -25     0.653331 -0.000255621 -6.96314e-06     -112.306 
         -25     0.853332 -0.000257136 -9.22523e-06     -112.305 
         -25         1.08 -0.000256162 -1.14605e-05     -112.305 
         -25      1.33333 -0.000250833 -1.33401e-05     -112.305 
         -25      1.61333 -0.000242411 -1.46741e-05     -112.304 
         -25         1.92 -0.000237025 -1.62653e-05     -112.303 
         -25      2.25333 -0.000233669 -1.61474e-05     -112.302 
         -25      2.61333 -0.000231499 -1.58316e-05     -112.301 
         -25            3 -0.000234049  -1.9873e-05     -112.299 
           0            0            0            0     -108.442 
           0     0.013333 -0.000688867  0.000452759     -108.447 
           0     0.053333 -0.000429776  0.000236746     -108.454 
           0         0.12 -0.000318999  0.000162834     -108.462 
           0     0.213332 -0.000278559  0.000125124     -108.471 
           0     0.333332 -0.000266928  0.000103296      -108.48 
           0         0.48 -0.000257416  8.86293e-05     -108.489 
           0     0.653331 -0.000245232  7.89503e-05     -108.498 
           0     0.853332 -0.000232054   7.2443e-05     -108.506 
           0         1.08   -0.0002229  6.77206e-05     -108.515 
           0      1.33333 -0.000217717  6.38837e-05     -108.523 
           0      1.61333 -0.000213654  6.02977e-05      -108.53 
           0         1.92 -0.000209433  5.64051e-05     -108.538 
           0      2.25333 -0.000204948  5.19699e-05     -108.544 
           0      2.61333 -0.000203467  4.69944e-05      -108.55 
           0            3 -0.000199081   4.4706e-05     -108.556 
          20            0            0            0     -106.047 
          20     0.013333 -0.000199239  2.39962e-09     -106.047 
          20     0.053333 -0.000147999  3.18157e-07     -106.047 
          20         0.12 -0.000114661  1.81303e-06     -106.047 
          20     0.213332 -0.000111781  5.46395e-06     -106.047 
          20     0.333332 -0.000124252  1.15388e-05     -106.047 
          20         0.48 -0.000133781  1.94361e-05     -106.047 
          20     0.653331 -0.000139642  2.81916e-05     -106.047 
          20     0.853332   -0.0001429  3.71715e-05     -106.047 
          20         1.08 -0.000145729  4.55951e-05     -106.047 
          20      1.33333 -0.000154175  5.21288e-05     -106.047 
          20      1.61333 -0.000167001  5.59565e-05     -106.046 
          20         1.92 -0.000181055   5.6888e-05     -106.046 
          20      2.25333 -0.000195003  5.43186e-05     -106.046 
          20      2.61333 -0.000199349  5.09421e-05     -106.045 
          20            3 -0.000188769  4.93318e-05     -106.044 
          40            0            0            0     -103.598 
          40     0.013333 -0.000197802  4.20501e-09     -103.598 
          40     0.053333 -0.000176283  1.40296e-07     -103.598 
          40         0.12 -0.000162261  6.08452e-07     -103.598 
          40     0.213332 -0.000155279  1.47421e-06     -103.598 
          40     0.333332 -0.000153158  2.75865e-06     -103.598 
          40         0.48 -0.000153262  4.68463e-06     -103.598 
          40     0.653331 -0.000150672  7.63583e-06     -103.598 
          40     0.853332 -0.000141775  1.17223e-05     -103.598 
          40         1.08 -0.000134653  1.62376e-05     -103.598 
          40      1.33333 -0.000137025  2.01797e-05     -103.598 
          40      1.61333 -0.000145196   2.3009e-05     -103.598 
          40         1.92 -0.000154781  2.47621e-05     -103.598 
          40      2.25333 -0.000161441  2.50004e-05     -103.597 
          40      2.61333  -0.00016713  2.39056e-05     -103.597 
          40            3 -0.000174051  2.24984e-05     -103.597 
          60            0           -0           -0     -101.272 
          60     0.013333 -0.000203236 -4.36826e-08     -101.272 
          60     0.053333 -0.000202966 -6.18852e-07     -101.272 
          60         0.12 -0.000184718 -2.83298e-06     -101.272 
          60     0.213332 -0.000141219   -7.613e-06     -101.272 
          60     0.333332 -9.40775e-05 -1.48581e-05     -101.272 
          60         0.48 -6.64216e-05 -2.37295e-05     -101.272 
          60     0.653331 -6.59431e-05 -3.35071e-05     -101.272 
          60     0.853332 -8.41876e-05  -4.3499e-05     -101.272 
          60         1.08 -0.000103431 -5.25698e-05     -101.272 
          60      1.33333 -0.000118035  -5.9881e-05     -101.272 
          60      1.61333 -0.000132494 -6.50015e-05     -101.272 
          60         1.92 -0.000146128 -6.72401e-05     -101.271 
          60      2.25333 -0.000159312 -6.66137e-05     -101.271 
          60      2.61333 -0.000170634 -6.33067e-05     -101.271 
          60            3 -0.000179324 -5.86797e-05     -101.271 
          80            0           -0           -0     -99.0168 
          80     0.013333 -0.000208325 -4.00492e-08     -99.0168 
          80     0.053333 -0.000234685 -5.89612e-07     -99.0168 
          80         0.12 -0.000250223 -2.75881e-06     -99.0168 
          80     0.213332 -0.000235606 -7.61976e-06     -99.0168 
          80     0.333332    -0.000204 -1.54146e-05     -99.0168 
          80         0.48 -0.000179226 -2.56742e-05     -99.0168 
          80     0.653331 -0.000175767 -3.78542e-05     -99.0168 
          80     0.853332 -0.000189578 -5.11427e-05     -99.0168 
          80         1.08 -0.000198728 -6.39097e-05     -99.0168 
          80      1.33333 -0.000192764  -7.4518e-05     -99.0167 
          80      1.61333 -0.000182858 -8.22891e-05     -99.0167 
          80         1.92 -0.000173257 -8.65504e-05     -99.0166 
          80      2.25333 -0.000162766  -8.6684e-05     -99.0166 
          80      2.61333 -0.000152745 -8.29738e-05     -99.0165 
          80            3 -0.000146172 -7.64221e-05     -99.0163 
         100            0            0            0      -96.807 
         100     0.013333 -0.000196516 -8.57827e-09      -96.807 
         100     0.053333 -0.000209012 -1.20152e-07      -96.807 
         100         0.12 -0.000228209 -6.01768e-07      -96.807 
         100     0.213332 -0.000242365 -1.77322e-06      -96.807 
         100     0.333332 -0.000250035 -3.77582e-06      -96.807 
         100         0.48 -0.000255434 -6.55078e-06      -96.807 
         100     0.653331 -0.000261982 -9.95559e-06      -96.807 
         100     0.853332  -0.00026623 -1.36355e-05     -96.8069 
         100         1.08 -0.000259729 -1.69303e-05     -96.8069 
         100      1.33333  -0.00024243  -1.9322e-05     -96.8069 
         100      1.61333 -0.000221985  -2.0797e-05     -96.8069 
         100         1.92 -0.000197923 -2.12736e-05     -96.8068 
         100      2.25333 -0.000173216 -2.06082e-05     -96.8068 
         100      2.61333 -0.000150994 -1.89441e-05     -96.8067 
         100            3 -0.000134655 -1.68636e-05     -96.8066 
         150            0           -0           -0     -91.3879 
         150     0.013333 -0.000172987 -1.37207e-08     -91.3879 
         150     0.053333 -0.000133563 -1.76726e-07     -91.3879 
         150         0.12 -8.89548e-05 -6.52523e-07     -91.3879 
         150     0.213332 -5.11249e-05 -1.30968e-06     -91.3879 
         150     0.333332  -2.9353e-05 -1.72592e-06     -91.3879 
         150         0.48 -2.21538e-05 -1.54169e-06     -91.3879 
         150     0.653331 -2.33927e-05  -7.3231e-07     -91.3879 
         150     0.853332  -3.1043e-05  3.62266e-07     -91.3879 
         150         1.08 -4.79737e-05  1.35795e-06     -91.3879 
         150      1.33333 -7.27934e-05  2.07064e-06     -91.3879 
         150      1.61333 -0.000100753  2.61515e-06     -91.3879 
         150         1.92 -0.000130089  3.02179e-06     -91.3879 
         150      2.25333 -0.000158693  3.17335e-06     -91.3879 
         150      2.61333 -0.000182333  3.15599e-06     -91.3879 
         150            3 -0.000198833   2.6044e-06     -91.3878 
         200            0 -3.99351e-19 -2.45848e-25     -86.0365 
         200     0.013333 -0.000167075 -3.96851e-08     -86.0365 
         200     0.053333 -0.000109852 -5.50283e-07     -86.0365 
         200         0.12 -3.20722e-05 -2.19473e-06     -86.0365 
         200     0.213332   4.2585e-05 -4.95543e-06     -86.0365 
         200     0.333332  8.80337e-05 -7.96162e-06     -86.0365 
         200         0.48  0.000100599 -1.03696e-05     -86.0365 
         200     0.653331  9.14711e-05 -1.21267e-05     -86.0365 
         200     0.853332  6.69778e-05 -1.38419e-05     -86.0365 
         200         1.08  2.86705e-05 -1.58509e-05     -86.0365 
         200      1.33333 -1.55567e-05 -1.78714e-05     -86.0365 
         200      1.61333 -6.02562e-05 -1.93882e-05     -86.0365 
         200         1.92  -0.00010654 -2.02017e-05     -86.0365 
         200      2.25333 -0.000151089 -2.03213e-05     -86.0365 
         200      2.61333 -0.000188532 -1.95796e-05     -86.0365 
         200            3 -0.000214289 -1.81016e-05     -86.0365 
         250            0           -0           -0     -80.7091 
         250     0.013333 -0.000177672  1.72942e-09     -80.7091 
         250     0.053333 -0.000159089  4.30933e-08     -80.7091 
         250         0.12 -0.000149223  2.83839e-07     -80.7091 
         250     0.213332 -0.000149951  9.59825e-07     -80.7091 
         250     0.333332 -0.000155501  2.13415e-06     -80.7091 
         250         0.48 -0.000157639  3.61364e-06     -80.7091 
         250     0.653331 -0.000154216   5.1324e-06     -80.7091 
         250     0.853332 -0.000149541  6.36016e-06     -80.7091 
         250         1.08  -0.00015149  6.88781e-06     -80.7091 
         250      1.33333 -0.000159911  6.58892e-06     -80.7091 
         250      1.61333 -0.000166744  5.86682e-06     -80.7091 
         250         1.92 -0.000171628  4.88785e-06     -80.7091 
         250      2.25333 -0.000176484  3.71507e-06     -80.7091 
         250      2.61333 -0.000180228  2.49335e-06     -80.7091 
         250            3  -0.00017987  1.40662e-06     -80.7091 
         300            0           -0           -0     -75.3906 
         300     0.013333 -0.000211208  4.10249e-08     -75.3906 
         300     0.053333  -0.00028638  5.47689e-07     -75.3906 
         300         0.12 -0.000398741  2.01215e-06     -75.3906 
         300     0.213332 -0.000496952   3.9187e-06     -75.3906 
         300     0.333332 -0.000540703  4.79573e-06     -75.3906 
         300         0.48  -0.00053305  3.55971e-06     -75.3906 
         300     0.653331 -0.000502342  4.48174e-07     -75.3906 
         300     0.853332 -0.000462798 -3.33119e-06     -75.3906 
         300         1.08 -0.000412732 -6.78251e-06     -75.3906 
         300      1.33333 -0.000357892 -9.87442e-06     -75.3905 
         300      1.61333 -0.000306039 -1.30175e-05     -75.3905 
         300         1.92  -0.00025336 -1.60867e-05     -75.3905 
         300      2.25333 -0.000201026  -1.8692e-05     -75.3905 
         300      2.61333 -0.000153304 -2.06553e-05     -75.3905 
         300            3 -0.000115332 -2.18438e-05     -75.3905 
         350            0           -0           -0     -70.0754 
         350     0.013333 -0.000161041  6.89079e-08     -70.0754 
         350     0.053333 -0.000118145  1.04623e-06     -70.0754 
         350         0.12 -0.000122597  4.79459e-06     -70.0754 
         350     0.213332 -0.000192128    1.301e-05     -70.0754 
         350     0.333332 -0.000292009  2.59991e-05     -70.0754 
         350         0.48 -0.000373623  4.27559e-05     -70.0754 
         350     0.653331 -0.000413061  6.21441e-05     -70.0754 
         350     0.853332  -0.00040799  8.36261e-05     -70.0754 
         350         1.08 -0.000368592  0.000106667     -70.0754 
         350      1.33333 -0.000320127  0.000129729     -70.0754 
         350      1.61333 -0.000282518  0.000150631     -70.0754 
         350         1.92   -0.0002486  0.000167777     -70.0754 
         350      2.25333 -0.000213269  0.000179887     -70.0754 
         350      2.61333 -0.000179211  0.000185855     -70.0754 
         350            3 -0.000151644   0.00018525     -70.0754 
         400            0           -0           -0     -64.7618 
         400     0.013333 -0.000156846 -3.67922e-08     -64.7618 
         400     0.053333  -7.5646e-05 -4.94085e-07     -64.7618 
         400         0.12  2.82189e-05 -1.85005e-06     -64.7618 
         400     0.213332  0.000119102 -3.77771e-06     -64.7618 
         400     0.333332  0.000167665 -5.18305e-06     -64.7618 
         400         0.48   0.00017654 -5.27067e-06     -64.7618 
         400     0.653331  0.000165696 -4.28613e-06     -64.7618 
         400     0.853332   0.00014384 -3.28541e-06     -64.7618 
         400         1.08  0.000104306 -3.30822e-06     -64.7618 
         400      1.33333  4.95277e-05 -4.51695e-06     -64.7618 
         400      1.61333 -5.03926e-06 -6.17519e-06     -64.7618 
         400         1.92 -5.64789e-05 -7.65315e-06     -64.7618 
         400      2.25333 -0.000108824  -9.0839e-06     -64.7618 
         400      2.61333 -0.000160144 -1.02425e-05     -64.7618 
         400            3 -0.000204113 -1.09713e-05     -64.7618 
         450            0 -2.06917e-19 -2.43332e-27     -59.4494 
         450     0.013333 -0.000186727 -9.05395e-08     -59.4494 
         450     0.053333 -0.000163699 -1.35725e-06     -59.4494 
         450         0.12 -7.94547e-05  -6.0945e-06     -59.4494 
         450     0.213332  6.87963e-05 -1.60817e-05     -59.4494 
         450     0.333332  0.000222637 -3.10373e-05     -59.4494 
         450         0.48  0.000322109 -4.90787e-05     -59.4494 
         450     0.653331  0.000350586 -6.86118e-05     -59.4494 
         450     0.853332  0.000320983 -8.92507e-05     -59.4494 
         450         1.08  0.000253013 -0.000110808     -59.4494 
         450      1.33333  0.000176076 -0.000131942     -59.4494 
         450      1.61333  0.000109963 -0.000150763     -59.4494 
         450         1.92  4.43267e-05 -0.000166145     -59.4494 
         450      2.25333 -2.70223e-05 -0.000177125     -59.4494 
         450      2.61333  -0.00010013 -0.000182741     -59.4494 
         450            3 -0.000167217 -0.000182434     -59.4494 
         500            0            0            0     -54.1383 
         500     0.013333 -0.000202412  5.03845e-08     -54.1383 
         500     0.053333 -0.000260055   7.0778e-07     -54.1383 
         500         0.12 -0.000367762  2.88867e-06     -54.1383 
         500     0.213332 -0.000493046  6.81621e-06     -54.1383 
         500     0.333332 -0.000594363  1.17332e-05     -54.1383 
         500         0.48 -0.000654045  1.66963e-05     -54.1383 
         500     0.653331 -0.000681076  2.14238e-05     -54.1383 
         500     0.853332 -0.000683398  2.64833e-05     -54.1383 
         500         1.08 -0.000652491   3.2985e-05     -54.1383 
         500      1.33333  -0.00058367  4.14706e-05     -54.1383 
         500      1.61333 -0.000499099  5.09617e-05     -54.1383 
         500         1.92 -0.000418071   6.0018e-05     -54.1383 
         500      2.25333 -0.000335102  6.76784e-05     -54.1383 
         500      2.61333 -0.000250003  7.35588e-05     -54.1383 
         500            3 -0.000170592  7.73231e-05     -54.1383 
         550            0           -0           -0     -48.8278 
         550     0.013333 -0.000202367  4.59244e-08     -48.8278 
         550     0.053333 -0.000261336   6.7218e-07     -48.8278 
         550         0.12 -0.000376416  2.90256e-06     -48.8278 
         550     0.213332 -0.000516026  7.24231e-06     -48.8278 
         550     0.333332 -0.000626697  1.29431e-05     -48.8278 
         550         0.48 -0.000674626  1.84906e-05     -48.8278 
         550     0.653331 -0.000667143  2.28155e-05     -48.8278 
         550     0.853332 -0.000629547  2.58197e-05     -48.8278 
         550         1.08 -0.000580124   2.7857e-05     -48.8278 
         550      1.33333 -0.000527371  2.90535e-05     -48.8278 
         550      1.61333 -0.000472865  2.93086e-05     -48.8278 
         550         1.92 -0.000411841  2.87651e-05     -48.8278 
         550      2.25333 -0.000342862  2.73342e-05     -48.8278 
         550      2.61333 -0.000269164  2.52294e-05     -48.8278 
         550            3 -0.000197433  2.26005e-05     -48.8278 
         600            0           -0           -0     -43.5177 
         600     0.013333 -0.000159656 -1.47907e-07     -43.5177 
         600     0.053333 -4.73328e-05 -2.18749e-06     -43.5177 
         600         0.12  0.000191724 -9.64742e-06     -43.5177 
         600     0.213332  0.000529056 -2.49686e-05     -43.5177 
         600     0.333332  0.000847878 -4.72271e-05     -43.5177 
         600         0.48   0.00104561 -7.30441e-05     -43.5177 
         600     0.653331   0.00110537 -9.96435e-05     -43.5177 
         600     0.853332    0.0010629 -0.000126536     -43.5177 
         600         1.08  0.000949013  -0.00015451     -43.5177 
         600      1.33333  0.000792575 -0.000183218     -43.5177 
         600      1.61333  0.000629242 -0.000210596     -43.5177 
         600         1.92  0.000467896 -0.000234453     -43.5177 
         600      2.25333  0.000295286 -0.000253455     -43.5177 
         600      2.61333  0.000111941 -0.000266167     -43.5177 
         600            3 -6.73245e-05 -0.000271319     -43.5177 
         650            0            0            0     -38.2093 
         650     0.013333 -0.000146762  1.70126e-07     -38.2093 
         650     0.053333 -9.85499e-05  2.57204e-06     -38.2093 
         650         0.12 -0.000178103  1.17398e-05     -38.2093 
         650     0.213332 -0.000424423  3.17653e-05     -38.2093 
         650     0.333332 -0.000742269  6.32968e-05     -38.2093 
         650         0.48 -0.000997071  0.000103572     -38.2093 
         650     0.653331  -0.00112326  0.000149364     -38.2093 
         650     0.853332  -0.00112387  0.000199296     -38.2093 
         650         1.08   -0.0010239  0.000253203     -38.2093 
         650      1.33333 -0.000870492  0.000309375     -38.2093 
         650      1.61333 -0.000727545  0.000363684     -38.2093 
         650         1.92 -0.000611823  0.000412614     -38.2093 
         650      2.25333 -0.000495423  0.000453134     -38.2093 
         650      2.61333 -0.000369701  0.000482898     -38.2093 
         650            3  -0.00024526  0.000499705     -38.2093 
         700            0            0            0     -32.9008 
         700     0.013333 -0.000267485 -6.84071e-08     -32.9008 
         700     0.053333  -0.00046028 -1.10677e-06     -32.9008 
         700         0.12 -0.000648055  -5.5415e-06     -32.9008 
         700     0.213332 -0.000719324 -1.65859e-05     -32.9008 
         700     0.333332 -0.000658875 -3.64636e-05     -32.9008 
         700         0.48 -0.000536622 -6.51916e-05     -32.9008 
         700     0.653331 -0.000433681 -0.000101223     -32.9008 
         700     0.853332 -0.000390501 -0.000142839     -32.9008 
         700         1.08 -0.000403867 -0.000188497     -32.9008 
         700      1.33333 -0.000433584 -0.000235778     -32.9008 
         700      1.61333 -0.000430919 -0.000281252     -32.9008 
         700         1.92 -0.000391362 -0.000322278     -32.9008 
         700      2.25333 -0.000340644 -0.000356882     -32.9008 
         700      2.61333 -0.000288698 -0.000383321     -32.9008 
         700            3  -0.00023466 -0.000399682     -32.9008 
         750            0           -0           -0     -27.5926 
         750     0.013333 -0.000123993 -4.03257e-08     -27.5926 
         750     0.053333  4.78778e-05 -5.36991e-07     -27.5926 
         750         0.12  0.000275578  -1.9677e-06     -27.5926 
         750     0.213332  0.000487576  -3.7878e-06     -27.5926 
         750     0.333332  0.000620518 -4.34574e-06     -27.5926 
         750         0.48  0.000663771 -2.09275e-06     -27.5926 
         750     0.653331   0.00065241   3.2859e-06     -27.5926 
         750     0.853332  0.000622983  1.08397e-05     -27.5926 
         750         1.08  0.000581186  1.89468e-05     -27.5926 
         750      1.33333   0.00051241  2.61403e-05     -27.5926 
         750      1.61333  0.000415095  3.18325e-05     -27.5926 
         750         1.92  0.000307111  3.63235e-05     -27.5926 
         750      2.25333   0.00019361  4.00642e-05     -27.5926 
         750      2.61333  7.43124e-05  4.27164e-05     -27.5926 
         750            3 -4.77021e-05  4.39434e-05     -27.5926 
         800            0            0            0     -22.2856 
         800     0.013333 -0.000185476  4.90426e-08     -22.2856 
         800     0.053333 -0.000200656   7.2213e-07     -22.2856 
         800         0.12 -0.000264227  3.17364e-06     -22.2856 
         800     0.213332 -0.000368088  8.22507e-06     -22.2856 
         800     0.333332 -0.000474935  1.56975e-05     -22.2856 
         800         0.48 -0.000549809  2.46829e-05     -22.2856 
         800     0.653331  -0.00058475  3.43991e-05     -22.2856 
         800     0.853332 -0.000587755  4.47526e-05     -22.2856 
         800         1.08 -0.000562298   5.6258e-05     -22.2856 
         800      1.33333 -0.000509056  6.92194e-05     -22.2856 
         800      1.61333 -0.000444134  8.29815e-05     -22.2856 
         800         1.92  -0.00038853  9.57917e-05     -22.2856 
         800      2.25333 -0.000336443  0.000107206     -22.2856 
         800      2.61333 -0.000281815  0.000116375     -22.2856 
         800            3 -0.000225667  0.000122497     -22.2856 
         850            0           -0           -0     -16.9789 
         850     0.013333 -0.000224567  3.27334e-08     -16.9789 
         850     0.053333  -0.00033793  4.57327e-07     -16.9789 
         850         0.12  -0.00051195  1.82151e-06     -16.9789 
         850     0.213332 -0.000689562  4.00249e-06     -16.9789 
         850     0.333332 -0.000808749  5.81439e-06     -16.9789 
         850         0.48 -0.000843336  5.70523e-06     -16.9789 
         850     0.653331 -0.000814159  2.88792e-06     -16.9789 
         850     0.853332 -0.000757341 -2.32044e-06     -16.9789 
         850         1.08 -0.000695661 -9.08968e-06     -16.9789 
         850      1.33333 -0.000637101 -1.68495e-05     -16.9789 
         850      1.61333 -0.000580426 -2.52815e-05     -16.9789 
         850         1.92 -0.000516661 -3.37352e-05     -16.9789 
         850      2.25333 -0.000443831 -4.18503e-05     -16.9789 
         850      2.61333 -0.000364017 -4.91802e-05     -16.9789 
         850            3 -0.000280906 -5.52953e-05     -16.9789 
         900            0           -0           -0     -11.6723 
         900     0.013333 -0.000242082 -1.04893e-07     -11.6723 
         900     0.053333 -0.000354552 -1.64191e-06     -11.6723 
         900         0.12 -0.000407005 -7.88172e-06     -11.6723 
         900     0.213332 -0.000310354  -2.2585e-05     -11.6723 
         900     0.333332 -9.40193e-05 -4.76113e-05     -11.6723 
         900         0.48  0.000131231 -8.17993e-05     -11.6723 
         900     0.653331  0.000272518 -0.000122405     -11.6723 
         900     0.853332  0.000304221 -0.000167235     -11.6723 
         900         1.08  0.000249654 -0.000214961     -11.6723 
         900      1.33333  0.000161517 -0.000263668     -11.6723 
         900      1.61333  9.43606e-05 -0.000310497     -11.6723 
         900         1.92  5.61827e-05 -0.000353356     -11.6723 
         900      2.25333  1.99063e-05 -0.000390938     -11.6723 
         900      2.61333 -2.43762e-05 -0.000421597     -11.6723 
         900            3 -7.20005e-05 -0.000443249     -11.6723 
         950            0           -0           -0     -6.36629 
         950     0.013333 -7.97606e-05 -1.40001e-08     -6.36629 
         950     0.053333  0.000199471 -9.47318e-08     -6.36629 
         950         0.12  0.000534625  3.59222e-07     -6.36629 
         950     0.213332  0.000794603  3.49073e-06     -6.36629 
         950     0.333332  0.000903162  1.21632e-05     -6.36629 
         950         0.48  0.000887092   2.7914e-05     -6.36629 
         950     0.653331  0.000831115  5.00446e-05     -6.36629 
         950     0.853332  0.000798569  7.64342e-05     -6.36629 
         950         1.08  0.000788169  0.000104276     -6.36629 
         950      1.33333  0.000746518  0.000130307     -6.36629 
         950      1.61333  0.000636671  0.000152182     -6.36629 
         950         1.92  0.000493802  0.000170209     -6.36629 
         950      2.25333  0.000351527  0.000185386     -6.36629 
         950      2.61333    0.0002106  0.000197366      -6.3663 
         950            3  6.26896e-05   0.00020508     -6.36631 
        1000            0 -2.18331e-19  2.17294e-24     -1.06133 
        1000     0.013333  -0.00022169  4.20737e-08     -1.06133 
        1000     0.053333 -0.000325846  4.79704e-07     -1.06133 
        1000         0.12 -0.000480955  1.53626e-06     -1.06133 
        1000     0.213332 -0.000625319  2.26708e-06     -1.06133 
        1000     0.333332 -0.000702861  8.69662e-07     -1.06133 
        1000         0.48 -0.000707072 -3.94913e-06     -1.06133 
        1000     0.653331 -0.000678068 -1.18948e-05     -1.06133 
        1000     0.853332 -0.000653002 -2.11156e-05     -1.06133 
        1000         1.08 -0.000625482 -2.91618e-05     -1.06133 
        1000      1.33333 -0.000560376 -3.39777e-05     -1.06133 
        1000      1.61333 -0.000457173 -3.54501e-05     -1.06133 
        1000         1.92 -0.000366276 -3.56992e-05     -1.06133 
        1000      2.25333 -0.000295847 -3.62696e-05     -1.06133 
        1000      2.61333 -0.000232227 -3.71046e-05     -1.06132 
        1000            3 -0.000166375 -3.76832e-05     -1.06131 
