Variables = x, y, u, v, p

Zone, I=416, F=POINT
         -50            0  8.11305e-20  3.61388e-23      96.8581 
         -50     0.013333   4.7724e-05  3.28267e-08      96.8581 
         -50     0.053333  2.10704e-05 -1.36588e-07      96.8581 
         -50         0.12  1.14863e-05 -7.98774e-07      96.8581 
         -50     0.213332  1.01287e-05 -2.22352e-06       96.858 
         -50     0.333332  1.12394e-05 -4.67236e-06      96.8579 
         -50         0.48    8.751e-06 -7.86579e-06      96.8577 
         -50     0.653331  1.47372e-06 -1.10515e-05      96.8574 
         -50     0.853332 -5.32249e-06 -1.51388e-05      96.8569 
         -50         1.08 -5.99778e-06 -1.86789e-05      96.8562 
         -50      1.33333 -2.70473e-06 -2.12168e-05      96.8552 
         -50      1.61333  4.39916e-06 -2.20708e-05      96.8539 
         -50         1.92   1.4893e-05 -2.31785e-05      96.8522 
         -50      2.25333  2.06798e-05 -2.02483e-05        96.85 
         -50      2.61333  2.75079e-05 -1.28989e-05      96.8472 
         -50            3  3.72189e-05 -6.66037e-06      96.8438 
         -25            0           -0           -0       92.969 
         -25     0.013333  4.10534e-05  3.20699e-08       92.969 
         -25     0.053333  3.26333e-05  2.36428e-07       92.969 
         -25         0.12  2.69365e-05  9.84636e-07       92.969 
         -25     0.213332  1.49616e-05  2.53414e-06       92.969 
         -25     0.333332  2.79547e-06  4.85181e-06       92.969 
         -25         0.48 -3.64823e-06  7.70945e-06      92.9689 
         -25     0.653331 -1.95197e-06  1.09172e-05      92.9688 
         -25     0.853332  6.03553e-06  1.43654e-05      92.9686 
         -25         1.08  1.49914e-05  1.76337e-05      92.9683 
         -25      1.33333  2.04561e-05  2.01361e-05      92.9679 
         -25      1.61333  1.95903e-05  2.15541e-05      92.9674 
         -25         1.92   1.5645e-05  2.19622e-05      92.9668 
         -25      2.25333  1.23853e-05  2.13095e-05      92.9659 
         -25      2.61333  1.77034e-05  2.31623e-05      92.9649 
         -25            3   3.0551e-05  2.82322e-05      92.9636 
           0            0            0            0      89.7857 
           0     0.013333  8.38297e-06 -5.23694e-05      89.7889 
           0     0.053333  3.67495e-05 -1.73744e-05      89.7949 
           0         0.12  4.48899e-05 -1.79361e-05      89.8016 
           0     0.213332  4.66707e-05 -1.31413e-05      89.8087 
           0     0.333332  4.38456e-05 -1.07036e-05       89.816 
           0         0.48  3.85912e-05 -8.70899e-06      89.8234 
           0     0.653331  3.54812e-05 -6.86334e-06      89.8307 
           0     0.853332  3.57526e-05 -4.98008e-06      89.8378 
           0         1.08  3.75597e-05 -3.04609e-06      89.8447 
           0      1.33333  3.78016e-05 -1.16529e-06      89.8512 
           0      1.61333  3.67597e-05  5.83282e-07      89.8575 
           0         1.92  3.76097e-05  2.09941e-06      89.8633 
           0      2.25333  3.65273e-05  3.24991e-06      89.8687 
           0      2.61333  2.89323e-05  2.66365e-06      89.8737 
           0            3  1.38775e-05 -2.29517e-06      89.8782 
          20            0            0            0      87.8118 
          20     0.013333   3.0621e-05 -1.64177e-08      87.8118 
          20     0.053333  2.92891e-05 -3.57583e-07      87.8118 
          20         0.12  4.90302e-05  -1.5312e-06      87.8118 
          20     0.213332  7.74354e-05 -3.74564e-06      87.8118 
          20     0.333332  0.000101317 -6.79428e-06      87.8118 
          20         0.48  0.000114037 -1.04683e-05      87.8118 
          20     0.653331  0.000118034 -1.45843e-05      87.8117 
          20     0.853332   0.00011381 -1.88968e-05      87.8116 
          20         1.08  9.78684e-05 -2.31371e-05      87.8115 
          20      1.33333  7.71772e-05 -2.68275e-05      87.8113 
          20      1.61333  5.65633e-05 -2.94842e-05       87.811 
          20         1.92  3.81543e-05 -3.03775e-05      87.8107 
          20      2.25333  2.19824e-05 -3.03296e-05      87.8102 
          20      2.61333  4.55919e-06 -2.99733e-05      87.8097 
          20            3 -1.00609e-05 -2.72854e-05       87.809 
          40            0            0            0      85.7945 
          40     0.013333  3.60907e-05  1.34785e-08      85.7945 
          40     0.053333  4.36471e-05  1.90842e-07      85.7945 
          40         0.12  4.60756e-05  1.05752e-06      85.7945 
          40     0.213332  2.58583e-05  3.32716e-06      85.7945 
          40     0.333332 -7.45163e-06  7.27087e-06      85.7945 
          40         0.48 -3.51177e-05  1.24887e-05      85.7945 
          40     0.653331 -4.77405e-05  1.83047e-05      85.7945 
          40     0.853332 -4.93974e-05  2.39946e-05      85.7945 
          40         1.08 -4.64577e-05  2.90628e-05      85.7944 
          40      1.33333 -3.93496e-05  3.32641e-05      85.7943 
          40      1.61333  -2.7575e-05  3.64207e-05      85.7942 
          40         1.92 -1.31219e-05  3.76864e-05      85.7941 
          40      2.25333  4.91282e-06   3.7757e-05      85.7939 
          40      2.61333  2.26026e-05  3.60525e-05      85.7937 
          40            3  3.17952e-05  3.13214e-05      85.7935 
          60            0           -0           -0       83.879 
          60     0.013333  4.16618e-05  1.50415e-08       83.879 
          60     0.053333  6.84686e-05   2.1806e-07       83.879 
          60         0.12  0.000100147  1.09494e-06       83.879 
          60     0.213332  0.000115512  3.22512e-06       83.879 
          60     0.333332  0.000115932    6.911e-06       83.879 
          60         0.48   0.00011303  1.21511e-05       83.879 
          60     0.653331  0.000116675  1.87882e-05      83.8789 
          60     0.853332  0.000123255  2.61496e-05      83.8789 
          60         1.08  0.000116048   3.2909e-05      83.8789 
          60      1.33333   9.3257e-05  3.81144e-05      83.8788 
          60      1.61333  6.68659e-05  4.16991e-05      83.8788 
          60         1.92  3.77979e-05  4.33487e-05      83.8787 
          60      2.25333  1.16579e-05  4.29674e-05      83.8786 
          60      2.61333 -5.37281e-06   4.1138e-05      83.8785 
          60            3 -1.09483e-05   3.8823e-05      83.8783 
          80            0           -0           -0      82.0225 
          80     0.013333   2.1566e-05 -7.32052e-09      82.0225 
          80     0.053333  5.11338e-06 -1.40831e-07      82.0225 
          80         0.12  1.37027e-06 -7.14615e-07      82.0225 
          80     0.213332  9.71847e-06 -2.10044e-06      82.0225 
          80     0.333332  2.41245e-05 -4.43093e-06      82.0225 
          80         0.48  3.47312e-05 -7.52075e-06      82.0225 
          80     0.653331  3.71662e-05 -1.10535e-05      82.0225 
          80     0.853332  3.39853e-05 -1.46695e-05      82.0225 
          80         1.08  2.92872e-05 -1.80969e-05      82.0224 
          80      1.33333  2.40358e-05  -2.1195e-05      82.0224 
          80      1.61333  2.00131e-05 -2.37194e-05      82.0224 
          80         1.92  1.81377e-05  -2.5101e-05      82.0223 
          80      2.25333  1.59248e-05  -2.5689e-05      82.0223 
          80      2.61333   1.1638e-05 -2.51469e-05      82.0222 
          80            3  7.81163e-06 -2.29435e-05      82.0221 
         100            0            0            0      80.2033 
         100     0.013333  1.69358e-05  2.87913e-09      80.2033 
         100     0.053333 -1.32042e-05  1.63048e-08      80.2033 
         100         0.12 -4.04903e-05 -2.46629e-08      80.2033 
         100     0.213332 -5.92382e-05 -3.53377e-07      80.2033 
         100     0.333332 -6.52773e-05 -1.27686e-06      80.2033 
         100         0.48 -6.31595e-05 -2.99623e-06      80.2033 
         100     0.653331 -6.00288e-05 -5.51719e-06      80.2032 
         100     0.853332 -5.78415e-05 -8.55376e-06      80.2032 
         100         1.08 -5.12292e-05 -1.15662e-05      80.2032 
         100      1.33333 -3.85888e-05 -1.41193e-05      80.2032 
         100      1.61333 -2.34895e-05 -1.61169e-05      80.2032 
         100         1.92 -6.16587e-06 -1.74513e-05      80.2032 
         100      2.25333  1.07816e-05 -1.78606e-05      80.2031 
         100      2.61333  2.59908e-05 -1.74023e-05      80.2031 
         100            3  3.71903e-05 -1.66747e-05       80.203 
         150            0           -0           -0      75.7418 
         150     0.013333  1.04734e-05  2.19946e-08      75.7418 
         150     0.053333 -3.90413e-05  2.90318e-07      75.7418 
         150         0.12 -9.78116e-05  1.07535e-06      75.7418 
         150     0.213332 -0.000148807  2.15875e-06      75.7418 
         150     0.333332 -0.000175568  2.86327e-06      75.7418 
         150         0.48 -0.000180212  2.66304e-06      75.7418 
         150     0.653331 -0.000173662  1.58645e-06      75.7418 
         150     0.853332 -0.000159965  1.67894e-07      75.7418 
         150         1.08  -0.00013561 -1.04015e-06      75.7418 
         150      1.33333 -0.000102718 -1.80585e-06      75.7418 
         150      1.61333 -6.77356e-05  -2.3694e-06      75.7418 
         150         1.92 -3.17091e-05 -2.80761e-06      75.7418 
         150      2.25333  1.30541e-06 -3.01435e-06      75.7418 
         150      2.61333  2.68557e-05 -3.07199e-06      75.7418 
         150            3  4.38778e-05 -2.67478e-06      75.7417 
         200            0   4.4433e-20    1.443e-25      71.3338 
         200     0.013333 -2.28408e-05  2.01385e-08      71.3338 
         200     0.053333  -0.00015468  1.89701e-07      71.3338 
         200         0.12 -0.000300338  1.58775e-07      71.3338 
         200     0.213332 -0.000399982 -1.57969e-06      71.3338 
         200     0.333332 -0.000431508 -6.75141e-06      71.3338 
         200         0.48 -0.000424247 -1.58123e-05      71.3338 
         200     0.653331 -0.000412256 -2.77247e-05      71.3338 
         200     0.853332 -0.000394942 -4.03987e-05      71.3338 
         200         1.08  -0.00034855 -5.17306e-05      71.3338 
         200      1.33333 -0.000274499 -6.07817e-05      71.3338 
         200      1.61333 -0.000194456  -6.7875e-05      71.3338 
         200         1.92  -0.00011218 -7.27424e-05      71.3338 
         200      2.25333 -3.02447e-05 -7.46015e-05      71.3338 
         200      2.61333  4.23661e-05 -7.35507e-05      71.3338 
         200            3  9.45866e-05 -6.98634e-05      71.3338 
         250            0           -0           -0      66.9425 
         250     0.013333  2.89753e-06 -5.80105e-08      66.9425 
         250     0.053333 -4.41814e-05 -9.01362e-07      66.9425 
         250         0.12 -4.96842e-05 -4.24079e-06      66.9425 
         250     0.213332  3.19865e-06  -1.1751e-05      66.9425 
         250     0.333332  8.41593e-05 -2.37765e-05      66.9425 
         250         0.48    0.0001477  -3.9302e-05      66.9425 
         250     0.653331   0.00017181 -5.71256e-05      66.9425 
         250     0.853332  0.000158841 -7.64303e-05      66.9425 
         250         1.08   0.00012787 -9.60791e-05      66.9425 
         250      1.33333  0.000102139 -0.000114292      66.9425 
         250      1.61333  8.38414e-05 -0.000129589      66.9425 
         250         1.92  6.29935e-05 -0.000140937      66.9425 
         250      2.25333  3.93688e-05 -0.000147311      66.9425 
         250      2.61333  1.57482e-05 -0.000148133      66.9425 
         250            3 -3.91372e-06 -0.000143542      66.9425 
         300            0           -0           -0      62.5546 
         300     0.013333 -2.46641e-05 -4.73639e-08      62.5546 
         300     0.053333 -0.000143292 -7.99386e-07      62.5546 
         300         0.12 -0.000231027 -4.15679e-06      62.5546 
         300     0.213332 -0.000231197 -1.26583e-05      62.5546 
         300     0.333332 -0.000159092  -2.7703e-05      62.5546 
         300         0.48 -7.87495e-05 -4.85755e-05      62.5546 
         300     0.653331 -3.64894e-05 -7.34187e-05      62.5546 
         300     0.853332 -3.43436e-05 -0.000100282      62.5546 
         300         1.08  -4.2134e-05 -0.000127015      62.5546 
         300      1.33333 -3.29459e-05 -0.000151394      62.5546 
         300      1.61333 -1.23743e-05 -0.000172074      62.5546 
         300         1.92  6.42847e-06 -0.000188015      62.5546 
         300      2.25333  2.24841e-05 -0.000197752      62.5546 
         300      2.61333  3.61768e-05 -0.000200318      62.5546 
         300            3  4.72374e-05 -0.000195654      62.5546 
         350            0           -0           -0      58.1664 
         350     0.013333 -5.29806e-05  8.76706e-08      58.1664 
         350     0.053333 -0.000282776  1.17411e-06      58.1664 
         350         0.12 -0.000591139  4.36129e-06      58.1664 
         350     0.213332 -0.000869995  8.70655e-06      58.1664 
         350     0.333332   -0.0010253  1.11701e-05      58.1664 
         350         0.48  -0.00105395  9.11885e-06      58.1664 
         350     0.653331  -0.00101524  2.32473e-06      58.1664 
         350     0.853332 -0.000949824 -7.18739e-06      58.1664 
         350         1.08 -0.000849877  -1.6668e-05      58.1664 
         350      1.33333 -0.000706691 -2.44633e-05      58.1664 
         350      1.61333 -0.000543069 -3.09502e-05      58.1664 
         350         1.92 -0.000372181  -3.6625e-05      58.1664 
         350      2.25333 -0.000195455 -4.10626e-05      58.1665 
         350      2.61333 -2.55522e-05 -4.39664e-05      58.1665 
         350            3   0.00011754 -4.50796e-05      58.1665 
         400            0           -0           -0      53.7775 
         400     0.013333  0.000139406  2.95562e-08      53.7775 
         400     0.053333  0.000414873   6.0674e-07      53.7775 
         400         0.12  0.000714204  3.80255e-06      53.7775 
         400     0.213332  0.000882501  1.34374e-05      53.7775 
         400     0.333332  0.000879345  3.30091e-05      53.7775 
         400         0.48  0.000781677  6.33052e-05      53.7775 
         400     0.653331  0.000689581  0.000102466      53.7775 
         400     0.853332   0.00064444  0.000147439      53.7775 
         400         1.08  0.000616893  0.000194493      53.7775 
         400      1.33333   0.00055484  0.000239585      53.7775 
         400      1.61333  0.000450987   0.00027983      53.7775 
         400         1.92  0.000333005  0.000313574      53.7775 
         400      2.25333   0.00020991  0.000338334      53.7775 
         400      2.61333    8.792e-05  0.000352057      53.7775 
         400            3  -2.1599e-05  0.000353702      53.7775 
         450            0  1.86066e-20 -1.66994e-26      49.3852 
         450     0.013333  -3.0877e-05 -7.88433e-08      49.3851 
         450     0.053333 -0.000161143 -1.23064e-06      49.3851 
         450         0.12 -0.000254157 -5.86581e-06      49.3851 
         450     0.213332  -0.00025055 -1.66382e-05      49.3851 
         450     0.333332 -0.000167122  -3.4773e-05      49.3851 
         450         0.48  -6.7976e-05 -5.96364e-05      49.3851 
         450     0.653331 -4.75622e-06 -8.99119e-05      49.3852 
         450     0.853332  3.09296e-06 -0.000124614      49.3852 
         450         1.08 -3.23288e-05 -0.000162461      49.3852 
         450      1.33333 -6.78628e-05  -0.00020072      49.3852 
         450      1.61333 -7.01074e-05 -0.000235983      49.3852 
         450         1.92  -5.4382e-05 -0.000265964      49.3852 
         450      2.25333 -3.51328e-05  -0.00028896      49.3852 
         450      2.61333 -1.54566e-05 -0.000303038      49.3852 
         450            3  4.83035e-06 -0.000306948      49.3852 
         500            0            0            0      44.9897 
         500     0.013333   4.7981e-05 -1.47162e-08      44.9897 
         500     0.053333  0.000104587 -2.03039e-07      44.9897 
         500         0.12  0.000193706 -7.89009e-07      44.9897 
         500     0.213332  0.000281557 -1.64441e-06      44.9897 
         500     0.333332  0.000339656 -2.11724e-06      44.9897 
         500         0.48  0.000358884 -1.41544e-06      44.9897 
         500     0.653331  0.000351235  8.43033e-07      44.9897 
         500     0.853332  0.000332972  4.52285e-06      44.9897 
         500         1.08  0.000312215  9.27624e-06      44.9897 
         500      1.33333  0.000287676  1.46935e-05      44.9897 
         500      1.61333  0.000253371  2.02121e-05      44.9897 
         500         1.92  0.000208454  2.53645e-05      44.9897 
         500      2.25333  0.000156861  2.98247e-05      44.9897 
         500      2.61333  0.000102452  3.33052e-05      44.9897 
         500            3  4.97108e-05  3.55867e-05      44.9897 
         550            0           -0           -0      40.5902 
         550     0.013333 -1.96627e-05  3.12602e-08      40.5902 
         550     0.053333 -0.000150361  3.92189e-07      40.5902 
         550         0.12 -0.000310182   1.2542e-06      40.5902 
         550     0.213332 -0.000438984  1.71802e-06      40.5902 
         550     0.333332 -0.000492775   6.9646e-08      40.5902 
         550         0.48 -0.000481988  -4.7889e-06      40.5902 
         550     0.653331 -0.000447213  -1.2444e-05      40.5902 
         550     0.853332 -0.000411742 -2.13597e-05      40.5902 
         550         1.08 -0.000366885 -2.97603e-05      40.5902 
         550      1.33333 -0.000302337 -3.66942e-05      40.5902 
         550      1.61333 -0.000230866 -4.24599e-05      40.5902 
         550         1.92 -0.000163514 -4.75739e-05      40.5902 
         550      2.25333 -9.56468e-05 -5.17012e-05      40.5902 
         550      2.61333 -2.67816e-05 -5.44634e-05      40.5902 
         550            3  3.72971e-05 -5.56116e-05      40.5902 
         600            0           -0           -0      36.1878 
         600     0.013333  9.72058e-05  2.53661e-08      36.1878 
         600     0.053333  0.000265963  4.76537e-07      36.1878 
         600         0.12  0.000447914  2.78156e-06      36.1878 
         600     0.213332   0.00054185  9.39611e-06      36.1878 
         600     0.333332  0.000522928  2.24574e-05      36.1878 
         600         0.48  0.000443728  4.23187e-05      36.1878 
         600     0.653331  0.000373723  6.76842e-05      36.1878 
         600     0.853332  0.000345209   9.6691e-05      36.1878 
         600         1.08  0.000342335   0.00012717      36.1878 
         600      1.33333  0.000323512  0.000156567      36.1878 
         600      1.61333  0.000272195  0.000183013      36.1878 
         600         1.92   0.00021193  0.000205923      36.1878 
         600      2.25333  0.000151576  0.000224559      36.1878 
         600      2.61333  9.14792e-05  0.000237496      36.1878 
         600            3  3.27055e-05  0.000243468      36.1878 
         650            0            0            0      31.7824 
         650     0.013333 -2.81296e-05  7.12931e-09      31.7824 
         650     0.053333 -0.000177478   5.1417e-08      31.7824 
         650         0.12 -0.000354754 -1.39647e-07      31.7824 
         650     0.213332 -0.000498225 -1.56881e-06      31.7824 
         650     0.333332 -0.000567443 -5.63803e-06      31.7824 
         650         0.48 -0.000569828  -1.3278e-05      31.7824 
         650     0.653331 -0.000541753 -2.45113e-05      31.7824 
         650     0.853332 -0.000514755 -3.86672e-05      31.7824 
         650         1.08 -0.000494817  -5.4649e-05      31.7824 
         650      1.33333 -0.000462952 -7.08373e-05      31.7824 
         650      1.61333 -0.000401785 -8.57079e-05      31.7824 
         650         1.92  -0.00032172 -9.85264e-05      31.7824 
         650      2.25333 -0.000234249 -0.000109185      31.7824 
         650      2.61333 -0.000142254 -0.000117117      31.7824 
         650            3 -4.83955e-05 -0.000121549      31.7824 
         700            0            0            0       27.376 
         700     0.013333  1.54937e-05 -6.51799e-08       27.376 
         700     0.053333  3.44817e-06 -9.92101e-07       27.376 
         700         0.12   5.2576e-05 -4.57917e-06       27.376 
         700     0.213332  0.000174507 -1.25608e-05       27.376 
         700     0.333332  0.000329751  -2.5361e-05       27.376 
         700         0.48  0.000457939 -4.18819e-05       27.376 
         700     0.653331   0.00052639 -6.05598e-05       27.376 
         700     0.853332   0.00053707 -8.04332e-05       27.376 
         700         1.08  0.000505368 -0.000101208       27.376 
         700      1.33333   0.00044934 -0.000122427       27.376 
         700      1.61333  0.000386636 -0.000143077       27.376 
         700         1.92  0.000324132 -0.000162085       27.376 
         700      2.25333  0.000257127 -0.000178289       27.376 
         700      2.61333  0.000183911 -0.000190643       27.376 
         700            3  0.000108562 -0.000198193       27.376 
         750            0           -0           -0      22.9672 
         750     0.013333   0.00011067  1.92013e-08      22.9672 
         750     0.053333  0.000317289  3.85337e-07      22.9672 
         750         0.12   0.00055302  2.39864e-06      22.9672 
         750     0.213332  0.000698707  8.55794e-06      22.9672 
         750     0.333332  0.000709109  2.14099e-05      22.9672 
         750         0.48  0.000629549  4.18556e-05      22.9672 
         750     0.653331  0.000539627  6.87956e-05      22.9672 
         750     0.853332  0.000486448  0.000100164      22.9672 
         750         1.08  0.000465358  0.000133718      22.9672 
         750      1.33333  0.000441107  0.000167212      22.9672 
         750      1.61333  0.000389501  0.000198724      22.9672 
         750         1.92  0.000319805  0.000227312      22.9672 
         750      2.25333  0.000244503  0.000251908      22.9672 
         750      2.61333  0.000166821  0.000271167      22.9672 
         750            3  8.78191e-05  0.000283639      22.9672 
         800            0            0            0      18.5549 
         800     0.013333 -6.10964e-05  6.42021e-08      18.5549 
         800     0.053333 -0.000312669  8.52812e-07      18.5549 
         800         0.12 -0.000649162  3.09846e-06      18.5549 
         800     0.213332 -0.000958186  5.83115e-06      18.5549 
         800     0.333332  -0.00113681  6.26608e-06      18.5549 
         800         0.48  -0.00117151  1.89747e-06      18.5549 
         800     0.653331    -0.001126 -7.56229e-06      18.5549 
         800     0.853332  -0.00106176 -2.02125e-05      18.5549 
         800         1.08 -0.000985209 -3.31663e-05      18.5549 
         800      1.33333 -0.000871374 -4.40969e-05      18.5549 
         800      1.61333 -0.000723993 -5.25765e-05      18.5549 
         800         1.92 -0.000576005 -5.98435e-05       18.555 
         800      2.25333 -0.000428881 -6.62728e-05       18.555 
         800      2.61333 -0.000276173 -7.14593e-05       18.555 
         800            3 -0.000119802 -7.48463e-05       18.555 
         850            0           -0           -0       14.141 
         850     0.013333  6.91817e-05 -1.28629e-07       14.141 
         850     0.053333  0.000214748 -1.87009e-06       14.141 
         850         0.12  0.000496142 -8.03258e-06       14.141 
         850     0.213332  0.000848921 -2.00953e-05       14.141 
         850     0.333332   0.00114988 -3.65177e-05       14.141 
         850         0.48   0.00131255 -5.40468e-05       14.141 
         850     0.653331   0.00134284 -7.05925e-05       14.141 
         850     0.853332   0.00128926  -8.6593e-05       14.141 
         850         1.08   0.00117628 -0.000104044       14.141 
         850      1.33333     0.001012 -0.000124028       14.141 
         850      1.61333  0.000832088 -0.000145082       14.141 
         850         1.92  0.000675816 -0.000164492       14.141 
         850      2.25333   0.00052586 -0.000180811       14.141 
         850      2.61333  0.000366596 -0.000193344       14.141 
         850            3  0.000200722 -0.000201442       14.141 
         900            0           -0           -0      9.72397 
         900     0.013333  8.80462e-05   1.3823e-07      9.72397 
         900     0.053333  0.000196849  2.14368e-06      9.72397 
         900         0.12  0.000217942  1.01459e-05      9.72397 
         900     0.213332  5.90295e-05   2.8598e-05      9.72397 
         900     0.333332 -0.000222239  5.92738e-05      9.72397 
         900         0.48 -0.000484827  0.000100225      9.72397 
         900     0.653331 -0.000628354  0.000147934      9.72397 
         900     0.853332 -0.000637419  0.000199988      9.72397 
         900         1.08 -0.000545757  0.000255286      9.72397 
         900      1.33333 -0.000413916  0.000311942      9.72397 
         900      1.61333   -0.0003101  0.000366507      9.72397 
         900         1.92 -0.000252749  0.000415793      9.72397 
         900      2.25333 -0.000202985  0.000458378      9.72397 
         900      2.61333 -0.000143257  0.000492376      9.72398 
         900            3 -7.93665e-05  0.000515462      9.72398 
         950            0           -0           -0      5.30493 
         950     0.013333 -0.000152881  1.27778e-08      5.30493 
         950     0.053333 -0.000629735  5.27892e-09      5.30493 
         950         0.12  -0.00120082 -1.29599e-06      5.30493 
         950     0.213332  -0.00163274 -7.82404e-06      5.30493 
         950     0.333332  -0.00178515 -2.47975e-05      5.30493 
         950         0.48  -0.00170311 -5.51764e-05      5.30493 
         950     0.653331  -0.00154198 -9.78573e-05      5.30493 
         950     0.853332  -0.00142246 -0.000149003      5.30492 
         950         1.08  -0.00135553 -0.000203783      5.30492 
         950      1.33333  -0.00126986 -0.000257311      5.30493 
         950      1.61333  -0.00111174 -0.000306105      5.30493 
         950         1.92 -0.000912681 -0.000349787      5.30493 
         950      2.25333 -0.000710017 -0.000388421      5.30494 
         950      2.61333  -0.00050559 -0.000420522      5.30495 
         950            3 -0.000291709  -0.00044385      5.30496 
        1000            0  5.04592e-20 -1.44314e-23      0.88474 
        1000     0.013333  5.93695e-05 -2.41206e-07      0.88474 
        1000     0.053333  0.000192048 -3.07499e-06      0.88474 
        1000         0.12  0.000493384 -1.28826e-05      0.88474 
        1000     0.213332  0.000920116 -3.24532e-05      0.88474 
        1000     0.333332    0.0013344 -6.05885e-05      0.88474 
        1000         0.48   0.00160675 -9.21785e-05     0.884741 
        1000     0.653331   0.00170444  -0.00012384     0.884742 
        1000     0.853332   0.00166485 -0.000156073     0.884742 
        1000         1.08   0.00151706 -0.000191304     0.884743 
        1000      1.33333   0.00127748 -0.000231033     0.884744 
        1000      1.61333   0.00100603 -0.000273062     0.884743 
        1000         1.92  0.000782795 -0.000312753      0.88474 
        1000      2.25333  0.000589454 -0.000346917     0.884735 
        1000      2.61333  0.000394409 -0.000374416     0.884726 
        1000            3  0.000190228 -0.000394183     0.884713 
