Variables = x, y, u, v, p

Zone, I=416, F=POINT
         -50            0            0            0     -54.4253 
         -50     0.013333 -0.000457932 -7.57956e-08     -54.4253 
         -50     0.053333 -0.000403098 -2.41096e-07     -54.4253 
         -50         0.12 -0.000385132 -2.90578e-07     -54.4253 
         -50     0.213332 -0.000380286 -1.18453e-07     -54.4253 
         -50     0.333332  -0.00037829  6.36751e-08     -54.4252 
         -50         0.48 -0.000374503  1.01227e-06     -54.4251 
         -50     0.653331 -0.000369676  1.85749e-06     -54.4249 
         -50     0.853332 -0.000366552  2.14452e-06     -54.4247 
         -50         1.08 -0.000367767  2.41707e-06     -54.4243 
         -50      1.33333 -0.000372809  2.15837e-06     -54.4238 
         -50      1.61333 -0.000382714  9.37355e-07     -54.4231 
         -50         1.92 -0.000399639 -2.69728e-06     -54.4221 
         -50      2.25333 -0.000412182 -3.93727e-06     -54.4209 
         -50      2.61333 -0.000409167 -6.00501e-07     -54.4194 
         -50            3 -0.000397624  2.72338e-06     -54.4175 
         -25            0           -0           -0     -52.2586 
         -25     0.013333  -0.00034226  -3.9502e-08     -52.2586 
         -25     0.053333 -0.000316761 -2.37887e-07     -52.2586 
         -25         0.12 -0.000315131 -7.93142e-07     -52.2586 
         -25     0.213332 -0.000314607   -1.918e-06     -52.2586 
         -25     0.333332 -0.000311531 -3.69983e-06     -52.2586 
         -25         0.48  -0.00030897 -6.22313e-06     -52.2585 
         -25     0.653331 -0.000310373 -9.29924e-06     -52.2585 
         -25     0.853332 -0.000313216 -1.26004e-05     -52.2584 
         -25         1.08 -0.000312007 -1.58441e-05     -52.2582 
         -25      1.33333 -0.000305982 -1.85752e-05      -52.258 
         -25      1.61333  -0.00029625 -2.07346e-05     -52.2578 
         -25         1.92 -0.000281892 -2.19287e-05     -52.2574 
         -25      2.25333 -0.000275247 -2.33953e-05      -52.257 
         -25      2.61333 -0.000280442  -2.5361e-05     -52.2564 
         -25            3 -0.000288633  -2.6437e-05     -52.2557 
           0            0            0            0     -50.4643 
           0     0.013333  -0.00100196  0.000586578     -50.4671 
           0     0.053333  -0.00055777  0.000302557     -50.4705 
           0         0.12 -0.000413769  0.000194879     -50.4743 
           0     0.213332 -0.000352387   0.00015063     -50.4784 
           0     0.333332 -0.000324301  0.000123731     -50.4825 
           0         0.48 -0.000305585  0.000103801     -50.4867 
           0     0.653331  -0.00029191  8.89029e-05     -50.4909 
           0     0.853332 -0.000280237  7.74032e-05      -50.495 
           0         1.08 -0.000270862  6.82762e-05      -50.499 
           0      1.33333  -0.00026499  6.07925e-05     -50.5028 
           0      1.61333 -0.000261237  5.44144e-05     -50.5065 
           0         1.92 -0.000257163  4.88909e-05       -50.51 
           0      2.25333 -0.000252772  4.45397e-05     -50.5133 
           0      2.61333 -0.000244036  4.10612e-05     -50.5164 
           0            3 -0.000239281  3.30812e-05     -50.5193 
          20            0  5.35986e-05 -0.000266817     -49.4321 
          20     0.013333  6.83308e-05 -0.000267834     -49.4321 
          20     0.053333   0.00011461 -0.000270751      -49.432 
          20         0.12  0.000198744 -0.000275179     -49.4318 
          20     0.213332  0.000329744 -0.000280479     -49.4315 
          20     0.333332  0.000507845 -0.000286097     -49.4311 
          20         0.48  0.000695699 -0.000292526     -49.4306 
          20     0.653331  0.000809099 -0.000301446       -49.43 
          20     0.853332  0.000778086 -0.000312772     -49.4293 
          20         1.08  0.000626242 -0.000322465     -49.4284 
          20      1.33333  0.000418558 -0.000325353     -49.4273 
          20      1.61333   0.00018432 -0.000318279     -49.4261 
          20         1.92 -4.38839e-05 -0.000300237     -49.4248 
          20      2.25333 -0.000228983 -0.000272552     -49.4233 
          20      2.61333 -0.000349344 -0.000239076     -49.4217 
          20            3 -0.000409246 -0.000203022     -49.4199 
          40            0           -0           -0     -48.2878 
          40     0.013333 -0.000277288 -1.75153e-07     -48.2878 
          40     0.053333   -0.0002819 -2.47869e-06     -48.2878 
          40         0.12 -0.000212012 -1.09394e-05     -48.2878 
          40     0.213332 -3.57031e-05 -2.89627e-05     -48.2878 
          40     0.333332  0.000171687 -5.72899e-05     -48.2878 
          40         0.48  0.000319875 -9.45541e-05     -48.2878 
          40     0.653331  0.000386327 -0.000139034     -48.2878 
          40     0.853332   0.00039543 -0.000189127     -48.2877 
          40         1.08  0.000323035 -0.000242711     -48.2877 
          40      1.33333  0.000176082 -0.000294833     -48.2876 
          40      1.61333  1.75924e-05 -0.000337514     -48.2876 
          40         1.92 -0.000148002  -0.00036367     -48.2874 
          40      2.25333 -0.000271869 -0.000372021     -48.2873 
          40      2.61333  -0.00034674 -0.000363432     -48.2871 
          40            3 -0.000385609 -0.000340834     -48.2869 
          60            0           -0           -0     -47.2094 
          60     0.013333 -0.000356032 -6.62419e-08     -47.2094 
          60     0.053333 -0.000611252 -1.22322e-06     -47.2094 
          60         0.12 -0.000860621 -7.10843e-06     -47.2094 
          60     0.213332 -0.000949293 -2.32489e-05     -47.2094 
          60     0.333332 -0.000897837 -5.31022e-05     -47.2094 
          60         0.48 -0.000840885 -9.61485e-05     -47.2094 
          60     0.653331 -0.000874304 -0.000148936     -47.2094 
          60     0.853332  -0.00094298 -0.000203788     -47.2094 
          60         1.08 -0.000909222 -0.000251683     -47.2093 
          60      1.33333 -0.000761525 -0.000289034     -47.2093 
          60      1.61333  -0.00056291 -0.000316275     -47.2093 
          60         1.92 -0.000351657 -0.000329002     -47.2092 
          60      2.25333 -0.000183436 -0.000326258     -47.2091 
          60      2.61333 -7.86996e-05 -0.000311509      -47.209 
          60            3 -1.97864e-05 -0.000286969     -47.2089 
          80            0           -0           -0     -46.1686 
          80     0.013333 -0.000250678 -8.22718e-09     -46.1686 
          80     0.053333 -0.000279115 -1.18632e-07     -46.1686 
          80         0.12  -0.00033869 -5.93485e-07     -46.1686 
          80     0.213332 -0.000403265 -1.59939e-06     -46.1686 
          80     0.333332 -0.000465189 -3.00652e-06     -46.1686 
          80         0.48 -0.000521758 -4.90237e-06     -46.1686 
          80     0.653331 -0.000573767 -7.79129e-06     -46.1686 
          80     0.853332  -0.00060552 -1.08131e-05     -46.1686 
          80         1.08 -0.000561469 -9.98575e-06     -46.1686 
          80      1.33333 -0.000451645 -3.28019e-06     -46.1686 
          80      1.61333 -0.000356911  5.22051e-06     -46.1685 
          80         1.92   -0.0002699  1.31982e-05     -46.1685 
          80      2.25333 -0.000197872   2.0709e-05     -46.1685 
          80      2.61333 -0.000146417  2.65226e-05     -46.1684 
          80            3 -0.000116127  3.03774e-05     -46.1684 
         100            0           -0           -0     -45.1497 
         100     0.013333 -0.000186492 -3.17266e-08     -45.1497 
         100     0.053333  -5.6363e-05 -3.48251e-07     -45.1497 
         100         0.12  7.86989e-05 -8.63293e-07     -45.1497 
         100     0.213332  0.000174243 -2.80417e-07     -45.1497 
         100     0.333332  0.000211298  3.13279e-06     -45.1497 
         100         0.48  0.000213574  9.95547e-06     -45.1497 
         100     0.653331  0.000203495  1.90485e-05     -45.1497 
         100     0.853332  0.000168175  2.80011e-05     -45.1497 
         100         1.08  9.66721e-05  3.52845e-05     -45.1497 
         100      1.33333  2.05515e-05  4.14205e-05     -45.1497 
         100      1.61333 -5.34795e-05  4.67106e-05     -45.1497 
         100         1.92 -0.000135188  4.98522e-05     -45.1497 
         100      2.25333 -0.000204798  5.06549e-05     -45.1497 
         100      2.61333 -0.000254825  4.94999e-05     -45.1496 
         100            3 -0.000286675   4.6694e-05     -45.1496 
         150            0 -2.95081e-19 -1.87736e-25     -42.6534 
         150     0.013333  -0.00031451 -6.99125e-08     -42.6534 
         150     0.053333 -0.000501346 -1.26251e-06     -42.6534 
         150         0.12 -0.000665915 -7.00022e-06     -42.6534 
         150     0.213332 -0.000683135 -2.21753e-05     -42.6534 
         150     0.333332 -0.000580905 -4.94221e-05     -42.6534 
         150         0.48 -0.000473356 -8.71545e-05     -42.6534 
         150     0.653331 -0.000430951 -0.000131433     -42.6534 
         150     0.853332 -0.000430335 -0.000177332     -42.6534 
         150         1.08 -0.000405816 -0.000219711     -42.6534 
         150      1.33333 -0.000348148 -0.000255492     -42.6534 
         150      1.61333 -0.000286363 -0.000283675     -42.6534 
         150         1.92 -0.000227253 -0.000301119     -42.6533 
         150      2.25333 -0.000174772 -0.000305967     -42.6533 
         150      2.61333 -0.000136942 -0.000299049     -42.6533 
         150            3 -0.000116086 -0.000282127     -42.6533 
         200            0           -0           -0     -40.1885 
         200     0.013333 -0.000175217 -1.57367e-07     -40.1885 
         200     0.053333 -3.22454e-06 -2.17614e-06     -40.1885 
         200         0.12  0.000245121  -8.6311e-06     -40.1885 
         200     0.213332  0.000495269 -1.95098e-05     -40.1885 
         200     0.333332  0.000657591 -3.18777e-05     -40.1885 
         200         0.48  0.000718673 -4.32292e-05     -40.1885 
         200     0.653331  0.000709246 -5.40496e-05     -40.1885 
         200     0.853332   0.00063014 -6.72543e-05     -40.1885 
         200         1.08  0.000475862  -8.4423e-05     -40.1885 
         200      1.33333  0.000302078 -0.000102942     -40.1885 
         200      1.61333  0.000145171 -0.000118622     -40.1885 
         200         1.92 -2.14865e-05 -0.000129985     -40.1885 
         200      2.25333 -0.000172561 -0.000136433     -40.1885 
         200      2.61333 -0.000294093 -0.000137219     -40.1885 
         200            3 -0.000381982 -0.000132909     -40.1885 
         250            0           -0           -0     -37.7362 
         250     0.013333 -0.000149673 -3.40223e-08     -37.7362 
         250     0.053333  5.56273e-05 -3.53405e-07     -37.7362 
         250         0.12   0.00027318 -5.82535e-07     -37.7362 
         250     0.213332   0.00041256  1.48932e-06     -37.7362 
         250     0.333332  0.000435738  8.72823e-06     -37.7362 
         250         0.48  0.000387533  2.21554e-05     -37.7362 
         250     0.653331  0.000329485  4.02827e-05     -37.7362 
         250     0.853332  0.000277759  6.02869e-05     -37.7362 
         250         1.08  0.000211658  7.95475e-05     -37.7362 
         250      1.33333  0.000123961   9.6615e-05     -37.7362 
         250      1.61333  2.83608e-05   0.00011128     -37.7362 
         250         1.92 -7.11098e-05  0.000122512     -37.7362 
         250      2.25333 -0.000166017  0.000129235     -37.7362 
         250      2.61333 -0.000248544  0.000131169     -37.7362 
         250            3 -0.000312315    0.0001283     -37.7362 
         300            0            0            0      -35.289 
         300     0.013333 -0.000155966 -8.86475e-08      -35.289 
         300     0.053333  5.28964e-05 -1.19547e-06      -35.289 
         300         0.12  0.000329054 -4.55358e-06      -35.289 
         300     0.213332  0.000598508 -9.71647e-06      -35.289 
         300     0.333332  0.000787468 -1.45439e-05      -35.289 
         300         0.48  0.000885035 -1.70546e-05      -35.289 
         300     0.653331  0.000923981 -1.69085e-05      -35.289 
         300     0.853332  0.000915939 -1.59718e-05      -35.289 
         300         1.08  0.000828809  -1.7431e-05      -35.289 
         300      1.33333  0.000661834 -2.25426e-05      -35.289 
         300      1.61333  0.000468062 -2.89586e-05      -35.289 
         300         1.92  0.000260382 -3.49047e-05      -35.289 
         300      2.25333  5.40445e-05 -4.00836e-05      -35.289 
         300      2.61333 -0.000137402 -4.38726e-05      -35.289 
         300            3 -0.000300859 -4.60561e-05     -35.2891 
         350            0            0            0     -32.8457 
         350     0.013333 -0.000297097   2.9825e-07     -32.8457 
         350     0.053333 -0.000555439  4.30442e-06     -32.8457 
         350         0.12  -0.00106841  1.82237e-05     -32.8457 
         350     0.213332  -0.00169004  4.46326e-05     -32.8457 
         350     0.333332  -0.00218152  7.91912e-05     -32.8457 
         350         0.48  -0.00241778  0.000114962     -32.8457 
         350     0.653331  -0.00243516  0.000148897     -32.8457 
         350     0.853332  -0.00229693   0.00018294     -32.8457 
         350         1.08  -0.00203642  0.000219158     -32.8457 
         350      1.33333   -0.0017182  0.000255273     -32.8457 
         350      1.61333  -0.00139481  0.000286635     -32.8456 
         350         1.92  -0.00104116  0.000310631     -32.8456 
         350      2.25333 -0.000679717  0.000325465     -32.8456 
         350      2.61333 -0.000335775  0.000329709     -32.8456 
         350            3  -3.5055e-05  0.000323076     -32.8456 
         400            0 -4.35535e-19 -7.29521e-27     -30.4024 
         400     0.013333 -0.000112192  1.45218e-07     -30.4024 
         400     0.053333  0.000143212  2.31565e-06     -30.4024 
         400         0.12  0.000317168  1.12666e-05     -30.4024 
         400     0.213332  0.000302867  3.23069e-05     -30.4024 
         400     0.333332  0.000154579  6.74461e-05     -30.4024 
         400         0.48  9.54197e-06  0.000114514     -30.4024 
         400     0.653331 -4.25895e-05  0.000170183     -30.4024 
         400     0.853332  7.19546e-06  0.000231878     -30.4024 
         400         1.08  9.49987e-05  0.000295735     -30.4024 
         400      1.33333  0.000119558  0.000355257     -30.4024 
         400      1.61333  6.33565e-05  0.000405459     -30.4024 
         400         1.92 -3.60043e-06  0.000444533     -30.4024 
         400      2.25333 -6.96354e-05   0.00047015     -30.4024 
         400      2.61333 -0.000134922  0.000480299     -30.4024 
         400            3  -0.00019431  0.000474094     -30.4024 
         450            0            0            0     -27.9606 
         450     0.013333 -0.000154496 -4.17937e-08     -27.9606 
         450     0.053333   4.4212e-05 -5.07086e-07     -27.9606 
         450         0.12  0.000274732 -1.52166e-06     -27.9606 
         450     0.213332  0.000459917  -1.7754e-06     -27.9606 
         450     0.333332  0.000549626  8.85968e-07     -27.9606 
         450         0.48   0.00056218  7.66448e-06     -27.9606 
         450     0.653331  0.000547682  1.80451e-05     -27.9606 
         450     0.853332  0.000530519  3.01973e-05     -27.9606 
         450         1.08    0.0004877  4.14183e-05     -27.9606 
         450      1.33333  0.000391414  4.94649e-05     -27.9606 
         450      1.61333  0.000264592  5.45368e-05     -27.9606 
         450         1.92  0.000137997  5.79527e-05     -27.9606 
         450      2.25333  1.17419e-05  5.96409e-05     -27.9606 
         450      2.61333 -0.000112328  5.94221e-05     -27.9606 
         450            3 -0.000225508  5.72482e-05     -27.9606 
         500            0            0            0     -25.5203 
         500     0.013333 -0.000230211 -1.59729e-08     -25.5203 
         500     0.053333 -0.000231449 -2.46049e-07     -25.5203 
         500         0.12 -0.000244387 -1.14979e-06     -25.5203 
         500     0.213332  -0.00024574 -3.18465e-06     -25.5203 
         500     0.333332 -0.000235628 -6.49773e-06     -25.5203 
         500         0.48 -0.000223806 -1.09204e-05     -25.5203 
         500     0.653331 -0.000218086 -1.62339e-05     -25.5203 
         500     0.853332 -0.000221024 -2.23686e-05     -25.5203 
         500         1.08 -0.000231308 -2.91697e-05     -25.5203 
         500      1.33333 -0.000240496 -3.61761e-05     -25.5203 
         500      1.61333 -0.000239109 -4.24896e-05     -25.5203 
         500         1.92 -0.000231403 -4.77195e-05     -25.5203 
         500      2.25333 -0.000222025 -5.15401e-05     -25.5203 
         500      2.61333 -0.000212357 -5.37157e-05     -25.5203 
         500            3 -0.000202789  -5.4207e-05     -25.5202 
         550            0           -0           -0     -23.0813 
         550     0.013333 -0.000219534  2.03372e-09     -23.0813 
         550     0.053333  -0.00019805   2.9391e-08     -23.0813 
         550         0.12 -0.000194943  1.24735e-07     -23.0813 
         550     0.213332 -0.000197478  3.10984e-07     -23.0813 
         550     0.333332 -0.000200562  5.73624e-07     -23.0813 
         550         0.48 -0.000202234  8.82688e-07     -23.0813 
         550     0.653331 -0.000202901   1.2211e-06     -23.0813 
         550     0.853332 -0.000202771  1.60301e-06     -23.0813 
         550         1.08 -0.000201706  2.04525e-06     -23.0813 
         550      1.33333 -0.000199683  2.55946e-06     -23.0813 
         550      1.61333 -0.000197482  3.13577e-06     -23.0813 
         550         1.92 -0.000195782  3.64632e-06     -23.0813 
         550      2.25333 -0.000194197  4.08826e-06     -23.0813 
         550      2.61333 -0.000192691  4.41742e-06     -23.0813 
         550            3 -0.000191481  4.60822e-06     -23.0813 
         600            0           -0           -0     -20.6447 
         600     0.013333 -0.000219367 -2.35027e-10     -20.6447 
         600     0.053333 -0.000196971 -3.18802e-09     -20.6447 
         600         0.12 -0.000191487  -1.3388e-08     -20.6447 
         600     0.213332  -0.00019063 -3.31105e-08     -20.6447 
         600     0.333332 -0.000190613 -6.05935e-08     -20.6447 
         600         0.48 -0.000190344 -9.24637e-08     -20.6447 
         600     0.653331 -0.000190209 -1.27434e-07     -20.6447 
         600     0.853332 -0.000190192 -1.65449e-07     -20.6447 
         600         1.08 -0.000190297 -2.14129e-07     -20.6447 
         600      1.33333 -0.000190558 -2.65943e-07     -20.6447 
         600      1.61333 -0.000190927 -3.21456e-07     -20.6447 
         600         1.92 -0.000191344  -3.8942e-07     -20.6447 
         600      2.25333 -0.000191889 -4.58566e-07     -20.6447 
         600      2.61333 -0.000192475 -5.03224e-07     -20.6447 
         600            3 -0.000192752 -5.20258e-07     -20.6447 
         650            0            0            0     -18.2103 
         650     0.013333 -0.000219362  6.48687e-12     -18.2103 
         650     0.053333 -0.000197096  2.29973e-10     -18.2103 
         650         0.12 -0.000191905  1.03358e-09     -18.2103 
         650     0.213332 -0.000191439  2.51188e-09     -18.2103 
         650     0.333332 -0.000191762   4.5811e-09     -18.2103 
         650         0.48   -0.0001917   6.9788e-09     -18.2103 
         650     0.653331  -0.00019165  1.03947e-08     -18.2103 
         650     0.853332 -0.000191618  1.05144e-08     -18.2103 
         650         1.08 -0.000191595  1.47448e-08     -18.2103 
         650      1.33333 -0.000191589  2.25488e-08     -18.2103 
         650      1.61333 -0.000191566  1.25531e-08     -18.2103 
         650         1.92 -0.000191699    3.588e-08     -18.2103 
         650      2.25333 -0.000191768   2.9034e-08     -18.2103 
         650      2.61333 -0.000191992  4.08775e-08     -18.2103 
         650            3 -0.000192712  7.66026e-08     -18.2103 
         700            0 -2.57686e-19 -4.45037e-27     -15.7777 
         700     0.013333 -0.000219344 -1.79099e-11     -15.7777 
         700     0.053333 -0.000197086 -1.96046e-10     -15.7777 
         700         0.12 -0.000191875  -8.3287e-10     -15.7777 
         700     0.213332 -0.000191377  -1.9243e-09     -15.7777 
         700     0.333332 -0.000191675 -3.29936e-09     -15.7777 
         700         0.48   -0.0001916 -5.02803e-09     -15.7777 
         700     0.653331 -0.000191542  -6.6198e-09     -15.7777 
         700     0.853332 -0.000191505 -9.18056e-09     -15.7777 
         700         1.08 -0.000191476  -1.1857e-08     -15.7777 
         700      1.33333 -0.000191473 -1.22449e-08     -15.7777 
         700      1.61333 -0.000191478 -3.69335e-08     -15.7777 
         700         1.92   -0.0001916 -2.38313e-08     -15.7777 
         700      2.25333 -0.000191713 -2.90365e-08     -15.7777 
         700      2.61333 -0.000191736 -3.19442e-08     -15.7777 
         700            3 -0.000191647 -2.62199e-08     -15.7777 
         750            0           -0           -0     -13.3462 
         750     0.013333 -0.000219315 -1.14147e-11     -13.3462 
         750     0.053333 -0.000197044 -9.48869e-11     -13.3462 
         750         0.12 -0.000191829 -4.37022e-10     -13.3462 
         750     0.213332 -0.000191333 -9.71582e-10     -13.3462 
         750     0.333332 -0.000191637 -1.39195e-09     -13.3462 
         750         0.48 -0.000191568 -1.78871e-09     -13.3462 
         750     0.653331 -0.000191516 -6.46889e-10     -13.3462 
         750     0.853332  -0.00019148 -2.50733e-09     -13.3462 
         750         1.08 -0.000191435 -8.93692e-09     -13.3462 
         750      1.33333  -0.00019141 -1.46425e-08     -13.3462 
         750      1.61333 -0.000191337 -2.23694e-08     -13.3462 
         750         1.92 -0.000191467  2.31069e-08     -13.3462 
         750      2.25333 -0.000191509 -3.24524e-08     -13.3462 
         750      2.61333 -0.000191599 -6.49735e-08     -13.3462 
         750            3 -0.000192053  3.37254e-08     -13.3462 
         800            0            0            0     -10.9163 
         800     0.013333  -0.00021929 -1.31356e-11     -10.9163 
         800     0.053333 -0.000197024  7.46488e-13     -10.9163 
         800         0.12 -0.000191818  2.71968e-10     -10.9163 
         800     0.213332 -0.000191333  8.89413e-10     -10.9163 
         800     0.333332 -0.000191644  1.63145e-09     -10.9163 
         800         0.48 -0.000191578  2.59762e-09     -10.9163 
         800     0.653331 -0.000191524  3.16242e-09     -10.9163 
         800     0.853332 -0.000191491  9.95605e-09     -10.9163 
         800         1.08 -0.000191449  3.82946e-09     -10.9163 
         800      1.33333 -0.000191397  1.45515e-08     -10.9163 
         800      1.61333 -0.000191387  6.76691e-08     -10.9163 
         800         1.92 -0.000191284 -3.74812e-08     -10.9163 
         800      2.25333 -0.000191257  3.74625e-08     -10.9163 
         800      2.61333 -0.000191345   8.0056e-08     -10.9163 
         800            3 -0.000191579 -3.71594e-08     -10.9163 
         850            0           -0           -0     -8.48788 
         850     0.013333 -0.000219268 -1.86196e-11     -8.48788 
         850     0.053333 -0.000197007 -1.58449e-10     -8.48788 
         850         0.12 -0.000191808 -5.91392e-10     -8.48788 
         850     0.213332 -0.000191325 -1.29373e-09     -8.48788 
         850     0.333332 -0.000191637 -2.19497e-09     -8.48788 
         850         0.48 -0.000191574 -3.30642e-09     -8.48788 
         850     0.653331 -0.000191528 -5.03895e-09     -8.48788 
         850     0.853332 -0.000191499 -6.59788e-09     -8.48788 
         850         1.08 -0.000191466 -6.94728e-09     -8.48788 
         850      1.33333 -0.000191426 -1.27179e-08     -8.48788 
         850      1.61333 -0.000191349 -2.86047e-08     -8.48787 
         850         1.92 -0.000191275  -1.4535e-08     -8.48787 
         850      2.25333 -0.000191289 -3.34447e-09     -8.48787 
         850      2.61333 -0.000191244 -2.18426e-09     -8.48787 
         850            3 -0.000191023 -1.27813e-09     -8.48787 
         900            0            0            0     -6.06099 
         900     0.013333 -0.000219246 -2.54348e-11     -6.06099 
         900     0.053333 -0.000196982 -1.73338e-10     -6.06099 
         900         0.12 -0.000191774 -3.76484e-10     -6.06099 
         900     0.213332 -0.000191291 -4.23503e-10     -6.06099 
         900     0.333332 -0.000191608 -2.63382e-10     -6.06099 
         900         0.48 -0.000191551 -1.67857e-10     -6.06099 
         900     0.653331 -0.000191511 -3.14606e-10     -6.06099 
         900     0.853332 -0.000191486 -1.06408e-09     -6.06099 
         900         1.08 -0.000191453  2.46414e-10     -6.06099 
         900      1.33333 -0.000191402  3.67375e-09     -6.06099 
         900      1.61333 -0.000191313  1.39096e-08     -6.06099 
         900         1.92 -0.000191279 -3.07427e-09     -6.06099 
         900      2.25333 -0.000191178  4.07913e-08     -6.06099 
         900      2.61333 -0.000191133   5.6434e-08     -6.06099 
         900            3 -0.000191356  8.84325e-09     -6.06099 
         950            0            0            0     -3.63571 
         950     0.013333 -0.000219232 -3.79329e-12     -3.63571 
         950     0.053333 -0.000196991  9.14805e-12     -3.63571 
         950         0.12 -0.000191802 -5.65717e-11     -3.63571 
         950     0.213332 -0.000191328 -2.77282e-10     -3.63571 
         950     0.333332 -0.000191646  -5.9548e-10     -3.63571 
         950         0.48 -0.000191589 -9.24807e-10     -3.63571 
         950     0.653331 -0.000191552 -4.78867e-10     -3.63571 
         950     0.853332 -0.000191535 -2.32764e-09     -3.63571 
         950         1.08 -0.000191521 -4.56425e-09     -3.63571 
         950      1.33333  -0.00019151  1.28681e-09     -3.63571 
         950      1.61333 -0.000191463  7.72119e-09     -3.63571 
         950         1.92 -0.000191341 -1.96071e-08     -3.63571 
         950      2.25333 -0.000191284  4.94569e-09     -3.63571 
         950      2.61333 -0.000191133  3.58931e-08      -3.6357 
         950            3 -0.000190842 -4.91167e-10      -3.6357 
        1000            0            0            0     -1.21175 
        1000     0.013333 -0.000219213  9.71517e-12     -1.21175 
        1000     0.053333 -0.000196959  2.00919e-10     -1.21175 
        1000         0.12  -0.00019176  8.61226e-10     -1.21175 
        1000     0.213332 -0.000191276  1.92205e-09     -1.21175 
        1000     0.333332 -0.000191589  3.32069e-09     -1.21175 
        1000         0.48 -0.000191532  5.13554e-09     -1.21175 
        1000     0.653331 -0.000191497  7.41014e-09     -1.21175 
        1000     0.853332 -0.000191484  1.08673e-08     -1.21175 
        1000         1.08  -0.00019148  1.68507e-08     -1.21175 
        1000      1.33333 -0.000191454   2.1529e-08     -1.21175 
        1000      1.61333 -0.000191453  3.87356e-08     -1.21175 
        1000         1.92 -0.000191388  4.51335e-08     -1.21175 
        1000      2.25333 -0.000191296  7.08811e-08     -1.21175 
        1000      2.61333 -0.000191117  8.90472e-08     -1.21175 
        1000            3 -0.000190855  5.91841e-08     -1.21175 
