Variables = x, y, u, v, p

Zone, I=416, F=POINT
         -50            0            0            0     -11.9631 
         -50     0.013333  6.50268e-05 -7.43431e-09     -11.9631 
         -50     0.053333  6.12791e-05 -1.96282e-07     -11.9631 
         -50         0.12  6.31364e-05 -9.93916e-07     -11.9631 
         -50     0.213332  7.34969e-05 -2.64877e-06     -11.9631 
         -50     0.333332  8.43768e-05 -5.22307e-06     -11.9631 
         -50         0.48  8.87891e-05 -8.29088e-06      -11.963 
         -50     0.653331  8.49089e-05 -1.13948e-05      -11.963 
         -50     0.853332  7.70986e-05 -1.55022e-05     -11.9629 
         -50         1.08  7.12371e-05 -1.86308e-05     -11.9629 
         -50      1.33333  6.75641e-05 -2.06591e-05     -11.9627 
         -50      1.61333  6.65238e-05 -2.15223e-05     -11.9626 
         -50         1.92  6.65565e-05 -2.00722e-05     -11.9624 
         -50      2.25333  7.41944e-05 -1.71829e-05     -11.9621 
         -50      2.61333  8.36768e-05 -1.43821e-05     -11.9618 
         -50            3  8.56265e-05 -1.24482e-05     -11.9613 
         -25            0           -0           -0      -11.495 
         -25     0.013333  4.86318e-05  6.00605e-09      -11.495 
         -25     0.053333  4.54139e-05  5.15013e-08      -11.495 
         -25         0.12  4.07223e-05  1.21336e-07      -11.495 
         -25     0.213332  3.90164e-05  1.12453e-07      -11.495 
         -25     0.333332  3.98267e-05 -6.82049e-08      -11.495 
         -25         0.48  4.10658e-05 -3.00662e-07      -11.495 
         -25     0.653331  4.30796e-05 -5.17366e-07      -11.495 
         -25     0.853332  4.72171e-05 -4.15434e-07     -11.4949 
         -25         1.08  5.18548e-05 -2.18117e-07     -11.4949 
         -25      1.33333  5.40915e-05 -3.03237e-08     -11.4949 
         -25      1.61333  5.24119e-05 -1.09075e-07     -11.4948 
         -25         1.92  4.69307e-05 -1.10351e-07     -11.4947 
         -25      2.25333  5.05071e-05 -1.36101e-07     -11.4946 
         -25      2.61333  5.51628e-05 -1.93134e-06     -11.4945 
         -25            3  4.97425e-05 -5.37407e-06     -11.4943 
           0            0  1.63535e-19 -2.27105e-19       -11.11 
           0     0.013333  0.000168823 -8.87068e-05     -11.1101 
           0     0.053333  0.000121271 -5.08495e-05     -11.1108 
           0         0.12  0.000112696 -3.39589e-05     -11.1115 
           0     0.213332  0.000107374  -2.6922e-05     -11.1123 
           0     0.333332  9.96695e-05 -2.21908e-05     -11.1132 
           0         0.48  9.20171e-05 -1.79112e-05      -11.114 
           0     0.653331  8.62896e-05 -1.40844e-05     -11.1148 
           0     0.853332  7.99489e-05 -1.07801e-05     -11.1156 
           0         1.08  7.16612e-05   -8.029e-06     -11.1164 
           0      1.33333  6.35693e-05 -5.65616e-06     -11.1171 
           0      1.61333  5.71061e-05 -3.74202e-06     -11.1178 
           0         1.92  5.43797e-05 -2.24925e-06     -11.1185 
           0      2.25333  5.46111e-05 -1.21216e-06     -11.1191 
           0      2.61333  5.30619e-05 -9.22475e-07     -11.1197 
           0            3  5.16275e-05 -1.30686e-07     -11.1203 
          20            0  0.000321892 -0.000138901     -10.8765 
          20     0.013333  0.000325543 -0.000139283     -10.8765 
          20     0.053333  0.000337554 -0.000140262     -10.8765 
          20         0.12  0.000360946 -0.000141338     -10.8765 
          20     0.213332  0.000399301 -0.000141677     -10.8765 
          20     0.333332  0.000452239 -0.000140274     -10.8764 
          20         0.48  0.000504913 -0.000136548     -10.8764 
          20     0.653331  0.000524136 -0.000130904     -10.8764 
          20     0.853332   0.00048805 -0.000124223     -10.8764 
          20         1.08  0.000402209 -0.000117078     -10.8764 
          20      1.33333  0.000291538  -0.00010902     -10.8764 
          20      1.61333   0.00016859 -9.97129e-05     -10.8764 
          20         1.92  5.28499e-05 -8.94305e-05     -10.8763 
          20      2.25333 -3.33038e-05 -7.82289e-05     -10.8763 
          20      2.61333 -8.13599e-05 -6.69626e-05     -10.8763 
          20            3 -0.000100881 -5.76427e-05     -10.8762 
          40            0  0.000938439  -0.00128528     -10.6494 
          40     0.013333   0.00106411   -0.0012991     -10.6494 
          40     0.053333   0.00144558  -0.00134131     -10.6494 
          40         0.12   0.00208675  -0.00141483     -10.6494 
          40     0.213332   0.00295436  -0.00152675     -10.6494 
          40     0.333332   0.00390611  -0.00169057     -10.6494 
          40         0.48   0.00464465  -0.00192357     -10.6494 
          40     0.653331   0.00487739  -0.00223029     -10.6493 
          40     0.853332   0.00460371  -0.00258036     -10.6492 
          40         1.08   0.00406005  -0.00291287     -10.6491 
          40      1.33333   0.00340416   -0.0031676      -10.649 
          40      1.61333   0.00268089  -0.00330322     -10.6488 
          40         1.92   0.00195087  -0.00330072     -10.6485 
          40      2.25333   0.00130457  -0.00316835     -10.6483 
          40      2.61333  0.000797403  -0.00293739      -10.648 
          40            3  0.000450977  -0.00265047     -10.6477 
          60            0            0            0     -10.4174 
          60     0.013333  0.000683822 -1.66023e-06     -10.4174 
          60     0.053333    0.0024715 -1.97993e-05     -10.4174 
          60         0.12   0.00451776 -5.85695e-05     -10.4174 
          60     0.213332   0.00563013 -7.54551e-05     -10.4174 
          60     0.333332   0.00578568 -2.55426e-05     -10.4174 
          60         0.48    0.0056628  6.08959e-05     -10.4174 
          60     0.653331   0.00516078  9.03874e-05     -10.4174 
          60     0.853332   0.00443827  6.31083e-05     -10.4174 
          60         1.08   0.00358508  3.90135e-05     -10.4174 
          60      1.33333   0.00210847 -2.17459e-07     -10.4174 
          60      1.61333  0.000532653 -4.86658e-05     -10.4175 
          60         1.92 -0.000759666 -8.64005e-05     -10.4176 
          60      2.25333  -0.00160597 -0.000110244     -10.4178 
          60      2.61333  -0.00199009 -0.000114661      -10.418 
          60            3  -0.00200515 -0.000107667     -10.4181 
          80            0            0            0     -10.1949 
          80     0.013333  0.000383618  2.22091e-06     -10.1949 
          80     0.053333  0.000675463  3.35574e-05     -10.1949 
          80         0.12 -0.000313319  0.000149417     -10.1949 
          80     0.213332  -0.00245027  0.000381107     -10.1949 
          80     0.333332  -0.00434953  0.000699318     -10.1949 
          80         0.48  -0.00501082   0.00106239     -10.1949 
          80     0.653331   -0.0039826   0.00148738     -10.1949 
          80     0.853332  -0.00133632   0.00200173     -10.1949 
          80         1.08  0.000907701    0.0025091     -10.1949 
          80      1.33333   0.00129938   0.00288241     -10.1948 
          80      1.61333  0.000875226   0.00311227     -10.1948 
          80         1.92  0.000646364     0.003182     -10.1947 
          80      2.25333  0.000503971   0.00308852     -10.1947 
          80      2.61333   0.00043256   0.00286746     -10.1946 
          80            3  0.000386508   0.00256101     -10.1945 
         100            0           -0           -0     -9.97705 
         100     0.013333  0.000413995  2.37018e-06     -9.97705 
         100     0.053333  0.000770802  3.53868e-05     -9.97705 
         100         0.12 -0.000229565  0.000157137     -9.97705 
         100     0.213332  -0.00271311  0.000407796     -9.97705 
         100     0.333332  -0.00547247  0.000776278     -9.97705 
         100         0.48   -0.0072632   0.00122844     -9.97705 
         100     0.653331  -0.00724877   0.00175758     -9.97705 
         100     0.853332  -0.00497517   0.00237476     -9.97705 
         100         1.08  -0.00173812   0.00301826     -9.97704 
         100      1.33333 -7.54331e-05   0.00354532     -9.97701 
         100      1.61333  8.72209e-05   0.00389536     -9.97696 
         100         1.92  0.000428134   0.00407571     -9.97689 
         100      2.25333  0.000712834   0.00408048      -9.9768 
         100      2.61333  0.000886969   0.00392589      -9.9767 
         100            3   0.00100456   0.00364782      -9.9766 
         150            0           -0           -0     -9.44397 
         150     0.013333  2.28474e-05  1.85909e-06     -9.44397 
         150     0.053333 -0.000419376  2.67321e-05     -9.44397 
         150         0.12  -0.00182037  0.000112689     -9.44397 
         150     0.213332  -0.00382486  0.000276408     -9.44397 
         150     0.333332  -0.00552018  0.000499301     -9.44397 
         150         0.48  -0.00639111  0.000756987     -9.44397 
         150     0.653331  -0.00634424   0.00104927     -9.44398 
         150     0.853332   -0.0053472   0.00138867     -9.44398 
         150         1.08  -0.00387458   0.00175062     -9.44397 
         150      1.33333   -0.0026659   0.00207939     -9.44394 
         150      1.61333  -0.00157707   0.00234338     -9.44389 
         150         1.92 -0.000437349   0.00252064     -9.44382 
         150      2.25333  0.000423748    0.0025917     -9.44371 
         150      2.61333   0.00101659   0.00255515     -9.44358 
         150            3   0.00142902   0.00242935     -9.44345 
         200            0           -0           -0     -8.91626 
         200     0.013333  0.000419039  1.01966e-06     -8.91626 
         200     0.053333   0.00112146  1.59134e-05     -8.91626 
         200         0.12   0.00125309  7.48893e-05     -8.91626 
         200     0.213332  0.000489058  0.000205993     -8.91625 
         200     0.333332 -0.000613061  0.000411473     -8.91625 
         200         0.48  -0.00131586  0.000671416     -8.91625 
         200     0.653331  -0.00132331  0.000966367     -8.91625 
         200     0.853332 -0.000824337   0.00127812     -8.91625 
         200         1.08 -0.000378369   0.00157326     -8.91625 
         200      1.33333 -0.000268269    0.0018215     -8.91625 
         200      1.61333 -0.000197847   0.00201575     -8.91625 
         200         1.92 -5.65718e-05   0.00214023     -8.91624 
         200      2.25333  2.64159e-05    0.0021804     -8.91623 
         200      2.61333   7.3384e-05   0.00213738     -8.91622 
         200            3  0.000134835   0.00202202     -8.91621 
         250            0           -0           -0     -8.39221 
         250     0.013333  0.000797364  9.06741e-07     -8.39221 
         250     0.053333    0.0024392  1.50761e-05     -8.39221 
         250         0.12   0.00349953   7.7355e-05     -8.39221 
         250     0.213332   0.00297162  0.000233698     -8.39221 
         250     0.333332   0.00119961  0.000509427      -8.3922 
         250         0.48 -0.000641495  0.000890697      -8.3922 
         250     0.653331  -0.00172932   0.00134116      -8.3922 
         250     0.853332  -0.00201937    0.0018246      -8.3922 
         250         1.08   -0.0018834   0.00231033      -8.3922 
         250      1.33333  -0.00165397   0.00276959     -8.39221 
         250      1.61333  -0.00145013   0.00317149     -8.39222 
         250         1.92  -0.00116872   0.00347859     -8.39224 
         250      2.25333 -0.000868695   0.00366313     -8.39226 
         250      2.61333 -0.000566115   0.00371341     -8.39229 
         250            3 -0.000273629   0.00363143     -8.39231 
         300            0            0            0     -7.86496 
         300     0.013333   0.00117823 -9.85366e-07     -7.86496 
         300     0.053333   0.00436238  -1.2753e-05     -7.86496 
         300         0.12   0.00861665 -4.44993e-05     -7.86496 
         300     0.213332    0.0123864 -7.93496e-05     -7.86496 
         300     0.333332    0.0145478 -7.84113e-05     -7.86496 
         300         0.48    0.0151704 -1.12923e-05     -7.86495 
         300     0.653331    0.0150186  0.000123593     -7.86495 
         300     0.853332    0.0145094  0.000298749     -7.86494 
         300         1.08     0.013327   0.00046869     -7.86495 
         300      1.33333     0.011217  0.000598383     -7.86498 
         300      1.61333   0.00862165  0.000692235     -7.86503 
         300         1.92   0.00582614  0.000758429     -7.86513 
         300      2.25333   0.00305859  0.000791546     -7.86527 
         300      2.61333  0.000505965  0.000792962     -7.86546 
         300            3  -0.00164084  0.000764036     -7.86569 
         350            0           -0           -0     -7.34817 
         350     0.013333  -0.00126493 -5.76372e-07     -7.34817 
         350     0.053333  -0.00439113 -1.06495e-05     -7.34817 
         350         0.12     -0.00748 -6.09415e-05     -7.34817 
         350     0.213332  -0.00884301 -0.000201602     -7.34817 
         350     0.333332   -0.0082549 -0.000472351     -7.34817 
         350         0.48  -0.00682371 -0.000875329     -7.34818 
         350     0.653331  -0.00572562  -0.00138216     -7.34818 
         350     0.853332  -0.00531677  -0.00195303     -7.34818 
         350         1.08  -0.00511391  -0.00253985     -7.34818 
         350      1.33333  -0.00449158  -0.00309309     -7.34816 
         350      1.61333  -0.00345562  -0.00358109     -7.34814 
         350         1.92  -0.00232986  -0.00397675     -7.34809 
         350      2.25333  -0.00119529  -0.00424899     -7.34802 
         350      2.61333 -0.000123972  -0.00437731     -7.34792 
         350            3  0.000786891  -0.00435374     -7.34781 
         400            0  1.94153e-19  6.83343e-27     -6.82372 
         400     0.013333  0.000447842  1.16415e-06     -6.82372 
         400     0.053333   0.00118061  1.77651e-05     -6.82372 
         400         0.12   0.00121009   8.2238e-05     -6.82372 
         400     0.213332  5.14906e-05  0.000226504     -6.82372 
         400     0.333332  -0.00180855  0.000460637     -6.82372 
         400         0.48  -0.00349043  0.000770025     -6.82372 
         400     0.653331  -0.00445943   0.00113281     -6.82372 
         400     0.853332  -0.00461438   0.00153591     -6.82373 
         400         1.08  -0.00407119   0.00197151     -6.82373 
         400      1.33333  -0.00320452   0.00241861     -6.82373 
         400      1.61333  -0.00245196   0.00283859     -6.82372 
         400         1.92  -0.00176387   0.00319541      -6.8237 
         400      2.25333  -0.00108473   0.00346317     -6.82368 
         400      2.61333 -0.000426729   0.00362102     -6.82364 
         400            3  0.000163257    0.0036572     -6.82359 
         450            0            0            0     -6.29576 
         450     0.013333 -7.02309e-05 -2.32375e-06     -6.29576 
         450     0.053333  0.000348458 -3.48071e-05     -6.29576 
         450         0.12   0.00250566 -0.000156197     -6.29576 
         450     0.213332   0.00637307 -0.000412123     -6.29576 
         450     0.333332    0.0103836 -0.000795609     -6.29576 
         450         0.48    0.0129617  -0.00125827     -6.29576 
         450     0.653331    0.0136932  -0.00175805     -6.29575 
         450     0.853332    0.0129396  -0.00228292     -6.29575 
         450         1.08    0.0112325  -0.00282744     -6.29575 
         450      1.33333    0.0092631  -0.00336241     -6.29576 
         450      1.61333   0.00746966   -0.0038453     -6.29579 
         450         1.92    0.0056066  -0.00424441     -6.29584 
         450      2.25333   0.00364495   -0.0045328     -6.29593 
         450      2.61333   0.00168669  -0.00468662     -6.29605 
         450            3 -0.000118689  -0.00469164      -6.2962 
         500            0            0            0     -5.78114 
         500     0.013333  -0.00123261  1.83332e-06     -5.78114 
         500     0.053333  -0.00498259  2.52484e-05     -5.78114 
         500         0.12   -0.0105166  9.90314e-05     -5.78114 
         500     0.213332   -0.0160054  0.000217832     -5.78114 
         500     0.333332   -0.0195889  0.000334321     -5.78115 
         500         0.48   -0.0208497  0.000400111     -5.78115 
         500     0.653331   -0.0206551  0.000405446     -5.78116 
         500     0.853332   -0.0197607  0.000381749     -5.78117 
         500         1.08   -0.0180581  0.000379111     -5.78117 
         500      1.33333   -0.0153548   0.00042593     -5.78115 
         500      1.61333   -0.0122294  0.000501393      -5.7811 
         500         1.92  -0.00910792  0.000571633     -5.78101 
         500      2.25333  -0.00591982   0.00062958     -5.78086 
         500      2.61333  -0.00272219  0.000671603     -5.78064 
         500            3  0.000247898  0.000694321     -5.78037 
         550            0            0            0     -5.24645 
         550     0.013333   0.00160333  -8.2388e-07     -5.24645 
         550     0.053333   0.00585262 -9.96835e-06     -5.24645 
         550         0.12    0.0112606 -2.90515e-05     -5.24645 
         550     0.213332    0.0156424 -2.71803e-05     -5.24645 
         550     0.333332    0.0175702  4.96495e-05     -5.24644 
         550         0.48    0.0173616   0.00023621     -5.24644 
         550     0.653331    0.0163177  0.000522781     -5.24643 
         550     0.853332     0.015265  0.000866743     -5.24642 
         550         1.08    0.0140383   0.00121545     -5.24642 
         550      1.33333    0.0122003   0.00153032     -5.24644 
         550      1.61333   0.00988223   0.00180268     -5.24648 
         550         1.92   0.00746394   0.00203697     -5.24655 
         550      2.25333   0.00497612   0.00222321     -5.24667 
         550      2.61333    0.0024683   0.00234773     -5.24684 
         550            3  0.000104255   0.00240023     -5.24706 
         600            0            0            0      -4.7306 
         600     0.013333  -0.00181813 -5.99901e-07      -4.7306 
         600     0.053333  -0.00636522 -1.16583e-05      -4.7306 
         600         0.12   -0.0110775 -6.99982e-05      -4.7306 
         600     0.213332   -0.0134774 -0.000240434      -4.7306 
         600     0.333332   -0.0129878 -0.000578841     -4.73061 
         600         0.48   -0.0110595  -0.00109166     -4.73061 
         600     0.653331  -0.00949856  -0.00174025     -4.73062 
         600     0.853332  -0.00902706  -0.00247069     -4.73063 
         600         1.08  -0.00904839  -0.00322108     -4.73063 
         600      1.33333  -0.00841462  -0.00392451     -4.73062 
         600      1.61333  -0.00686103  -0.00454181      -4.7306 
         600         1.92  -0.00515006  -0.00506839     -4.73055 
         600      2.25333  -0.00345733  -0.00548417     -4.73047 
         600      2.61333  -0.00177515  -0.00576001     -4.73035 
         600            3 -0.000169105  -0.00587083      -4.7302 
         650            0            0            0     -4.20167 
         650     0.013333    0.0012799  1.41692e-06     -4.20167 
         650     0.053333    0.0040731  2.26343e-05     -4.20167 
         650         0.12   0.00629356  0.000111056     -4.20166 
         650     0.213332   0.00639083  0.000323712     -4.20166 
         650     0.333332   0.00460589  0.000690367     -4.20166 
         650         0.48    0.0024145   0.00119693     -4.20166 
         650     0.653331   0.00108038   0.00180869     -4.20166 
         650     0.853332     0.001018   0.00249836     -4.20166 
         650         1.08   0.00189555   0.00323973     -4.20166 
         650      1.33333   0.00273222   0.00398145     -4.20166 
         650      1.61333   0.00268661   0.00466052     -4.20166 
         650         1.92   0.00215575   0.00524458     -4.20167 
         650      2.25333   0.00157716   0.00571579     -4.20168 
         650      2.61333   0.00104426   0.00604599      -4.2017 
         650            3  0.000516633   0.00620721     -4.20173 
         700            0           -0           -0     -3.67777 
         700     0.013333 -0.000528091 -6.86866e-07     -3.67777 
         700     0.053333  -0.00178306 -1.07649e-05     -3.67777 
         700         0.12  -0.00280371 -5.15717e-05     -3.67777 
         700     0.213332  -0.00293465 -0.000146981     -3.67777 
         700     0.333332  -0.00228838 -0.000308079     -3.67777 
         700         0.48  -0.00146138 -0.000528471     -3.67777 
         700     0.653331 -0.000945762 -0.000795294     -3.67777 
         700     0.853332 -0.000927075  -0.00110067     -3.67777 
         700         1.08  -0.00135747  -0.00143871     -3.67777 
         700      1.33333  -0.00188262  -0.00179063     -3.67777 
         700      1.61333  -0.00200647  -0.00212293     -3.67777 
         700         1.92  -0.00174109  -0.00241152     -3.67776 
         700      2.25333   -0.0013777  -0.00264677     -3.67776 
         700      2.61333  -0.00101914  -0.00281765     -3.67776 
         700            3    -0.000642  -0.00291198     -3.67775 
         750            0            0            0     -3.15154 
         750     0.013333  0.000163986  1.34524e-07     -3.15154 
         750     0.053333  0.000468197   2.1148e-06     -3.15154 
         750         0.12   0.00074342  1.01639e-05     -3.15154 
         750     0.213332  0.000843507  2.90436e-05     -3.15154 
         750     0.333332   0.00077748   6.1027e-05     -3.15154 
         750         0.48  0.000656653  0.000105007     -3.15153 
         750     0.653331  0.000577518  0.000158674     -3.15153 
         750     0.853332  0.000581411   0.00022078     -3.15153 
         750         1.08  0.000670727  0.000290604     -3.15154 
         750      1.33333  0.000784442  0.000364666     -3.15154 
         750      1.61333  0.000804793  0.000435272     -3.15154 
         750         1.92  0.000704336   0.00049578     -3.15154 
         750      2.25333  0.000565912  0.000544481     -3.15154 
         750      2.61333  0.000426993  0.000579542     -3.15154 
         750            3  0.000283004  0.000598747     -3.15154 
         800            0            0            0     -2.62613 
         800     0.013333  1.77196e-05 -1.79384e-08     -2.62613 
         800     0.053333 -1.49257e-05 -2.78412e-07     -2.62613 
         800         0.12 -4.30525e-05 -1.31444e-06     -2.62613 
         800     0.213332 -4.94578e-05 -3.68195e-06     -2.62613 
         800     0.333332 -3.78534e-05 -7.58604e-06     -2.62613 
         800         0.48 -2.25908e-05 -1.28267e-05     -2.62613 
         800     0.653331 -1.37879e-05 -1.91142e-05     -2.62613 
         800     0.853332 -1.49212e-05 -2.63544e-05     -2.62613 
         800         1.08 -2.70402e-05 -3.45817e-05     -2.62613 
         800      1.33333 -4.54091e-05 -4.35274e-05     -2.62613 
         800      1.61333 -5.50172e-05 -5.22364e-05     -2.62613 
         800         1.92 -4.65706e-05 -5.97054e-05     -2.62613 
         800      2.25333 -3.17802e-05 -6.55522e-05     -2.62613 
         800      2.61333 -1.74089e-05 -6.96951e-05     -2.62613 
         800            3  -2.8283e-06 -7.19985e-05     -2.62613 
         850            0            0            0      -2.1007 
         850     0.013333  3.41093e-05  2.56568e-09      -2.1007 
         850     0.053333   3.8152e-05   3.9347e-08      -2.1007 
         850         0.12  4.03553e-05  1.83167e-07      -2.1007 
         850     0.213332  4.02528e-05  5.06935e-07      -2.1007 
         850     0.333332  3.82258e-05  1.03545e-06      -2.1007 
         850         0.48  3.58216e-05  1.74112e-06      -2.1007 
         850     0.653331  3.43439e-05  2.58616e-06      -2.1007 
         850     0.853332  3.41763e-05  3.55736e-06      -2.1007 
         850         1.08  3.54702e-05  4.66272e-06      -2.1007 
         850      1.33333  3.78898e-05  5.87952e-06      -2.1007 
         850      1.61333  3.97333e-05  7.09473e-06      -2.1007 
         850         1.92  3.91665e-05  8.20748e-06      -2.1007 
         850      2.25333  3.74277e-05  9.11989e-06      -2.1007 
         850      2.61333  3.55335e-05  9.78976e-06      -2.1007 
         850            3   3.3441e-05  1.02159e-05      -2.1007 
         900            0  3.26116e-20  -6.0765e-28     -1.57562 
         900     0.013333  3.20476e-05 -1.95299e-10     -1.57562 
         900     0.053333  3.15121e-05 -3.16967e-09     -1.57562 
         900         0.12  3.00249e-05 -1.54795e-08     -1.57562 
         900     0.213332  2.93276e-05 -4.45097e-08     -1.57562 
         900     0.333332  2.92561e-05 -9.44422e-08     -1.57562 
         900         0.48  2.93335e-05 -1.64748e-07     -1.57562 
         900     0.653331  2.94082e-05 -2.52043e-07     -1.57562 
         900     0.853332  2.93777e-05 -3.56454e-07     -1.57562 
         900         1.08  2.92034e-05 -4.73267e-07     -1.57562 
         900      1.33333  2.89698e-05   -6.126e-07     -1.57562 
         900      1.61333  2.87736e-05 -7.76198e-07     -1.57562 
         900         1.92  2.87437e-05 -8.36172e-07     -1.57562 
         900      2.25333  2.89064e-05 -1.00792e-06     -1.57562 
         900      2.61333  2.89916e-05 -1.12972e-06     -1.57562 
         900            3  2.88589e-05 -1.08068e-06     -1.57562 
         950            0            0            0     -1.05069 
         950     0.013333  3.23307e-05  -2.7558e-11     -1.05069 
         950     0.053333  3.24848e-05 -2.85042e-10     -1.05069 
         950         0.12  3.17061e-05 -6.48628e-10     -1.05069 
         950     0.213332  3.14288e-05 -6.75496e-10     -1.05069 
         950     0.333332  3.14421e-05 -1.52365e-10     -1.05069 
         950         0.48  3.14268e-05  9.78615e-10     -1.05069 
         950     0.653331  3.14094e-05  1.06376e-09     -1.05069 
         950     0.853332  3.13813e-05  6.58162e-09     -1.05069 
         950         1.08   3.1345e-05  1.06826e-08     -1.05069 
         950      1.33333  3.12919e-05 -1.99491e-09     -1.05069 
         950      1.61333   3.1211e-05 -5.37823e-08     -1.05069 
         950         1.92  3.09934e-05  3.99016e-08     -1.05069 
         950      2.25333  3.07712e-05 -1.28858e-08     -1.05069 
         950      2.61333  3.05061e-05 -5.86334e-08     -1.05069 
         950            3  3.01075e-05  6.31552e-09     -1.05069 
        1000            0            0            0    -0.525507 
        1000     0.013333  3.23092e-05 -1.76871e-12    -0.525507 
        1000     0.053333  3.24204e-05 -4.16066e-12    -0.525507 
        1000         0.12  3.15839e-05  1.34827e-10    -0.525507 
        1000     0.213332   3.1259e-05  4.91458e-10    -0.525507 
        1000     0.333332  3.12473e-05  9.41444e-10    -0.525507 
        1000         0.48  3.12261e-05  1.62145e-09    -0.525507 
        1000     0.653331  3.12099e-05  9.93524e-10    -0.525507 
        1000     0.853332  3.11818e-05  6.10509e-09    -0.525507 
        1000         1.08  3.11412e-05  2.20724e-10    -0.525507 
        1000      1.33333  3.10946e-05 -3.43866e-09    -0.525507 
        1000      1.61333  3.09872e-05    4.148e-08    -0.525507 
        1000         1.92  3.09191e-05  3.66225e-09    -0.525508 
        1000      2.25333  3.07536e-05  2.72157e-08    -0.525508 
        1000      2.61333  3.05414e-05  7.23456e-08    -0.525508 
        1000            3  3.03829e-05   4.8204e-08    -0.525508 
