Variables = x, y, u, v, p

Zone, I=416, F=POINT
         -50            0            0            0     -79.6588 
         -50     0.013333 -0.000180892  -5.7146e-08     -79.6588 
         -50     0.053333 -0.000132106 -1.39199e-07     -79.6588 
         -50         0.12 -0.000110953 -1.57994e-07     -79.6588 
         -50     0.213332 -9.97964e-05  1.14728e-07     -79.6588 
         -50     0.333332 -9.39474e-05  1.24885e-06     -79.6587 
         -50         0.48 -8.86037e-05  2.40992e-06     -79.6585 
         -50     0.653331 -8.49881e-05  4.03101e-06     -79.6583 
         -50     0.853332 -8.74303e-05  4.77908e-06     -79.6579 
         -50         1.08 -9.85208e-05  5.71224e-06     -79.6573 
         -50      1.33333  -0.00011425  6.06703e-06     -79.6565 
         -50      1.61333 -0.000130349  5.70075e-06     -79.6555 
         -50         1.92 -0.000144327  5.94859e-06     -79.6541 
         -50      2.25333  -0.00015586  4.34753e-06     -79.6523 
         -50      2.61333 -0.000160608  3.72568e-06     -79.6501 
         -50            3 -0.000156567   7.2595e-06     -79.6473 
         -25            0           -0           -0     -76.4809 
         -25     0.013333 -0.000144397 -2.25103e-08     -76.4809 
         -25     0.053333 -0.000138008 -7.84212e-08     -76.4809 
         -25         0.12 -0.000152763 -3.14447e-07     -76.4809 
         -25     0.213332 -0.000160525 -1.06103e-06     -76.4808 
         -25     0.333332 -0.000156565  -2.6991e-06     -76.4808 
         -25         0.48  -0.00014785 -5.38121e-06     -76.4807 
         -25     0.653331 -0.000142796 -8.98044e-06     -76.4807 
         -25     0.853332 -0.000140643  -1.3235e-05     -76.4805 
         -25         1.08 -0.000134923 -1.72207e-05     -76.4803 
         -25      1.33333 -0.000124764 -2.06507e-05       -76.48 
         -25      1.61333 -0.000113256 -2.32779e-05     -76.4796 
         -25         1.92 -0.000102377 -2.42517e-05     -76.4791 
         -25      2.25333 -9.41268e-05 -2.47403e-05     -76.4784 
         -25      2.61333 -9.34231e-05 -2.55086e-05     -76.4775 
         -25            3 -9.96751e-05 -2.56124e-05     -76.4765 
           0            0            0            0     -73.8692 
           0     0.013333 -0.000320475  0.000207685      -73.872 
           0     0.053333 -0.000208952  0.000100922     -73.8767 
           0         0.12 -0.000190643  7.06706e-05     -73.8819 
           0     0.213332 -0.000187044  5.46153e-05     -73.8874 
           0     0.333332 -0.000183545  4.43546e-05     -73.8931 
           0         0.48 -0.000177653  3.61669e-05     -73.8987 
           0     0.653331 -0.000171079  2.92342e-05     -73.9043 
           0     0.853332  -0.00016147  2.32464e-05     -73.9097 
           0         1.08 -0.000146728  1.82313e-05     -73.9149 
           0      1.33333 -0.000130594  1.41198e-05     -73.9199 
           0      1.61333 -0.000116714  1.06835e-05     -73.9247 
           0         1.92 -0.000103279  8.04943e-06     -73.9292 
           0      2.25333 -8.97486e-05  6.38137e-06     -73.9334 
           0      2.61333 -7.74516e-05  5.72023e-06     -73.9374 
           0            3 -6.73935e-05  6.73132e-06     -73.9411 
          20            0            0            0     -72.3843 
          20     0.013333  0.000368155  0.000314859     -72.3817 
          20     0.053333  0.000674948  0.000549868     -72.3774 
          20         0.12   0.00049351  0.000429401     -72.3725 
          20     0.213332  0.000262023  0.000312156     -72.3673 
          20     0.333332  7.51389e-05  0.000237596      -72.362 
          20         0.48 -5.41078e-05  0.000195038     -72.3566 
          20     0.653331 -0.000117499  0.000175351     -72.3513 
          20     0.853332 -0.000131552  0.000170309     -72.3461 
          20         1.08 -0.000130669  0.000171819      -72.341 
          20      1.33333 -0.000131889  0.000174212      -72.336 
          20      1.61333 -0.000134666  0.000174058     -72.3312 
          20         1.92 -0.000134454  0.000169204     -72.3265 
          20      2.25333 -0.000131921  0.000158605     -72.3219 
          20      2.61333 -0.000136781  0.000142088     -72.3175 
          20            3 -0.000146844   0.00012274     -72.3132 
          40            0  -2.3432e-19 -6.17925e-24     -70.6359 
          40     0.013333  -9.8534e-05  6.08301e-08     -70.6359 
          40     0.053333 -9.10866e-05  9.54389e-07     -70.6359 
          40         0.12 -0.000128109  4.09328e-06     -70.6359 
          40     0.213332 -0.000176321  9.95133e-06     -70.6359 
          40     0.333332 -0.000195571  1.73794e-05     -70.6359 
          40         0.48 -0.000175589  2.50306e-05     -70.6359 
          40     0.653331 -0.000136329  3.24911e-05     -70.6358 
          40     0.853332 -0.000102594  3.95231e-05     -70.6358 
          40         1.08 -8.01858e-05  4.54927e-05     -70.6357 
          40      1.33333  -6.3834e-05  4.95603e-05     -70.6357 
          40      1.61333  -5.4985e-05  5.07324e-05     -70.6356 
          40         1.92 -5.31972e-05  4.87086e-05     -70.6354 
          40      2.25333 -5.79083e-05  4.38532e-05     -70.6353 
          40      2.61333 -6.60548e-05  3.71192e-05     -70.6351 
          40            3 -7.26219e-05  3.03228e-05     -70.6348 
          60            0 -1.26566e-19 -1.61286e-24     -69.0628 
          60     0.013333 -0.000136797   1.6868e-07     -69.0628 
          60     0.053333 -0.000262315  2.40274e-06     -69.0628 
          60         0.12 -0.000502464  9.70461e-06     -69.0628 
          60     0.213332 -0.000754983  2.21559e-05     -69.0628 
          60     0.333332 -0.000914183  3.60886e-05     -69.0628 
          60         0.48 -0.000962549  4.81899e-05     -69.0628 
          60     0.653331 -0.000928039  5.91078e-05     -69.0628 
          60     0.853332 -0.000812541  7.20405e-05     -69.0627 
          60         1.08 -0.000646385  8.64047e-05     -69.0627 
          60      1.33333 -0.000484382   9.8546e-05     -69.0627 
          60      1.61333 -0.000322787  0.000106144     -69.0626 
          60         1.92 -0.000156988  0.000108314     -69.0625 
          60      2.25333 -1.51505e-05  0.000105356     -69.0624 
          60      2.61333  7.80118e-05  9.68129e-05     -69.0623 
          60            3  0.000115624  8.37405e-05     -69.0621 
          80            0            0            0     -67.5412 
          80     0.013333 -9.04077e-05  2.01461e-07     -67.5412 
          80     0.053333 -0.000113383   2.9486e-06     -67.5412 
          80         0.12  -0.00025985  1.26225e-05     -67.5412 
          80     0.213332 -0.000485505  3.14422e-05     -67.5412 
          80     0.333332 -0.000684635  5.75237e-05     -67.5412 
          80         0.48 -0.000789092   8.7884e-05     -67.5412 
          80     0.653331 -0.000778819  0.000121941     -67.5412 
          80     0.853332 -0.000651265  0.000160479     -67.5411 
          80         1.08 -0.000472862  0.000200196     -67.5411 
          80      1.33333 -0.000339008  0.000234483     -67.5411 
          80      1.61333 -0.000235511  0.000259286     -67.5411 
          80         1.92 -0.000122804  0.000273156      -67.541 
          80      2.25333 -2.09679e-05  0.000274954     -67.5409 
          80      2.61333  5.17113e-05  0.000265209     -67.5409 
          80            3  9.17944e-05  0.000247414     -67.5408 
         100            0            0            0     -66.0509 
         100     0.013333 -6.80845e-05  1.10693e-07     -66.0509 
         100     0.053333 -1.54175e-05   1.6419e-06     -66.0509 
         100         0.12 -2.21242e-05   7.1535e-06     -66.0509 
         100     0.213332  -8.1126e-05  1.82214e-05     -66.0509 
         100     0.333332 -0.000145368  3.42948e-05     -66.0509 
         100         0.48 -0.000176181  5.41857e-05     -66.0509 
         100     0.653331 -0.000158427  7.76693e-05     -66.0509 
         100     0.853332 -9.96125e-05  0.000104313     -66.0509 
         100         1.08 -5.14557e-05  0.000130755     -66.0509 
         100      1.33333 -4.52103e-05  0.000152908     -66.0508 
         100      1.61333 -4.56739e-05  0.000169275     -66.0508 
         100         1.92 -4.40434e-05  0.000178904     -66.0508 
         100      2.25333 -4.46581e-05  0.000180251     -66.0508 
         100      2.61333 -4.59361e-05  0.000174149     -66.0507 
         100            3 -4.28152e-05   0.00016351     -66.0507 
         150            0 -7.32829e-20 -2.26168e-25     -62.3981 
         150     0.013333  4.70133e-07  2.25987e-08     -62.3981 
         150     0.053333  0.000232479  5.62019e-07     -62.3981 
         150         0.12  0.000437611  3.88624e-06     -62.3981 
         150     0.213332  0.000505729  1.41747e-05     -62.3981 
         150     0.333332  0.000437956  3.46316e-05     -62.3981 
         150         0.48  0.000330306  6.49261e-05     -62.3981 
         150     0.653331  0.000260106  0.000101987     -62.3981 
         150     0.853332  0.000224154  0.000141376     -62.3981 
         150         1.08  0.000174105  0.000178753     -62.3981 
         150      1.33333  0.000100072  0.000211246     -62.3981 
         150      1.61333  2.30611e-05  0.000237495     -62.3981 
         150         1.92 -5.15709e-05  0.000255504     -62.3981 
         150      2.25333 -0.000116228  0.000262627     -62.3981 
         150      2.61333 -0.000164647  0.000259302      -62.398 
         150            3 -0.000193112  0.000246842      -62.398 
         200            0            0            0     -58.7915 
         200     0.013333 -5.37624e-05  1.17974e-08     -58.7915 
         200     0.053333  5.12458e-05  2.11268e-07     -58.7915 
         200         0.12  0.000153049  1.16762e-06     -58.7915 
         200     0.213332  0.000222618  3.80923e-06     -58.7915 
         200     0.333332  0.000248271  9.03691e-06     -58.7915 
         200         0.48  0.000244512  1.73301e-05     -58.7915 
         200     0.653331  0.000234597  2.86964e-05     -58.7915 
         200     0.853332   0.00023161  4.26706e-05     -58.7915 
         200         1.08  0.000224003  5.79204e-05     -58.7915 
         200      1.33333  0.000187831  7.21236e-05     -58.7915 
         200      1.61333  0.000126941  8.36974e-05     -58.7915 
         200         1.92  5.84974e-05  9.21335e-05     -58.7915 
         200      2.25333 -1.22004e-05  9.65339e-05     -58.7915 
         200      2.61333  -7.6381e-05  9.68298e-05     -58.7915 
         200            3 -0.000124146  9.33376e-05     -58.7914 
         250            0            0            0     -55.2006 
         250     0.013333 -6.38903e-06 -5.81088e-08     -55.2006 
         250     0.053333   0.00022895 -6.67851e-07     -55.2006 
         250         0.12  0.000492379 -1.69372e-06     -55.2006 
         250     0.213332  0.000669378 -5.62059e-07     -55.2006 
         250     0.333332  0.000705262  6.35857e-06     -55.2006 
         250         0.48  0.000651287  2.04108e-05     -55.2006 
         250     0.653331  0.000581768  3.96006e-05     -55.2006 
         250     0.853332  0.000511188  6.00568e-05     -55.2006 
         250         1.08  0.000414184  7.86787e-05     -55.2006 
         250      1.33333  0.000297526  9.47191e-05     -55.2006 
         250      1.61333  0.000183768  0.000108699     -55.2006 
         250         1.92  6.90914e-05  0.000119967     -55.2006 
         250      2.25333  -4.3596e-05  0.000126838     -55.2006 
         250      2.61333 -0.000141481  0.000129149     -55.2006 
         250            3 -0.000210854  0.000126918     -55.2006 
         300            0            0            0     -51.6153 
         300     0.013333 -6.04913e-06  1.79428e-08     -51.6153 
         300     0.053333  0.000212582   4.3369e-07     -51.6153 
         300         0.12  0.000420177  2.96772e-06     -51.6153 
         300     0.213332  0.000520048  1.07742e-05     -51.6153 
         300     0.333332   0.00050123  2.63163e-05     -51.6153 
         300         0.48  0.000435919  4.95299e-05     -51.6153 
         300     0.653331  0.000394569  7.84697e-05     -51.6153 
         300     0.853332  0.000387249  0.000110167     -51.6153 
         300         1.08  0.000362225  0.000140516     -51.6153 
         300      1.33333   0.00028204  0.000165945     -51.6153 
         300      1.61333  0.000181704  0.000186047     -51.6153 
         300         1.92  8.60589e-05  0.000200983     -51.6153 
         300      2.25333 -7.10938e-06  0.000209032     -51.6153 
         300      2.61333 -9.22607e-05  0.000209588     -51.6153 
         300            3 -0.000158902  0.000202771     -51.6153 
         350            0           -0           -0     -48.0321 
         350     0.013333 -0.000146532   3.3966e-08     -48.0321 
         350     0.053333 -0.000284528  4.09738e-07     -48.0321 
         350         0.12  -0.00047128  1.15277e-06     -48.0321 
         350     0.213332 -0.000605999  7.73472e-07     -48.0321 
         350     0.333332  -0.00063213 -3.33995e-06     -48.0321 
         350         0.48 -0.000571792 -1.28134e-05     -48.0321 
         350     0.653331 -0.000485178 -2.70206e-05     -48.0321 
         350     0.853332 -0.000406462 -4.39291e-05     -48.0321 
         350         1.08 -0.000337788 -6.18807e-05     -48.0321 
         350      1.33333 -0.000278914 -8.02902e-05     -48.0321 
         350      1.61333 -0.000225208 -9.85609e-05     -48.0321 
         350         1.92 -0.000166274 -0.000115147     -48.0321 
         350      2.25333 -0.000105172 -0.000128581     -48.0321 
         350      2.61333  -4.8527e-05 -0.000137777     -48.0321 
         350            3 -2.98328e-06 -0.000142078     -48.0321 
         400            0            0            0      -44.449 
         400     0.013333  1.50081e-05  1.89907e-07      -44.449 
         400     0.053333  0.000240423  2.98473e-06      -44.449 
         400         0.12  0.000341307  1.43248e-05      -44.449 
         400     0.213332  0.000202548  4.07601e-05      -44.449 
         400     0.333332 -9.82571e-05  8.49027e-05      -44.449 
         400         0.48 -0.000383062  0.000144081      -44.449 
         400     0.653331  -0.00053512  0.000213647      -44.449 
         400     0.853332  -0.00054022   0.00029002      -44.449 
         400         1.08 -0.000453139  0.000369721      -44.449 
         400      1.33333 -0.000360675  0.000447385      -44.449 
         400      1.61333 -0.000304145  0.000517285      -44.449 
         400         1.92 -0.000253801  0.000575346      -44.449 
         400      2.25333 -0.000196724  0.000617375      -44.449 
         400      2.61333 -0.000137146  0.000639617      -44.449 
         400            3 -8.39804e-05  0.000640159      -44.449 
         450            0            0            0     -40.8656 
         450     0.013333 -5.21485e-05 -2.63194e-07     -40.8656 
         450     0.053333  0.000130637 -3.83035e-06     -40.8656 
         450         0.12  0.000497105 -1.64734e-05     -40.8656 
         450     0.213332  0.000983956  -4.1343e-05     -40.8656 
         450     0.333332   0.00140467 -7.58234e-05     -40.8656 
         450         0.48    0.0016337 -0.000114487     -40.8656 
         450     0.653331   0.00167706 -0.000154391     -40.8656 
         450     0.853332   0.00158114 -0.000196624     -40.8656 
         450         1.08   0.00137015 -0.000243084     -40.8656 
         450      1.33333   0.00109716 -0.000292042     -40.8656 
         450      1.61333  0.000837336 -0.000338189     -40.8656 
         450         1.92  0.000592543 -0.000377174     -40.8656 
         450      2.25333  0.000339234 -0.000406425     -40.8656 
         450      2.61333  8.44558e-05  -0.00042355     -40.8656 
         450            3 -0.000143679 -0.000427038     -40.8656 
         500            0           -0           -0     -37.2835 
         500     0.013333 -0.000325402   1.7463e-08     -37.2835 
         500     0.053333 -0.000911003 -1.31511e-07     -37.2835 
         500         0.12  -0.00157966 -3.19247e-06     -37.2835 
         500     0.213332  -0.00198395 -1.66132e-05     -37.2835 
         500     0.333332  -0.00199253 -4.88134e-05     -37.2835 
         500         0.48  -0.00175676 -0.000102571     -37.2835 
         500     0.653331  -0.00151148 -0.000173463     -37.2835 
         500     0.853332  -0.00135739 -0.000253421     -37.2835 
         500         1.08  -0.00123075 -0.000333788     -37.2835 
         500      1.33333  -0.00104098 -0.000407937     -37.2835 
         500      1.61333  -0.00080459 -0.000473577     -37.2835 
         500         1.92 -0.000575382 -0.000530296     -37.2835 
         500      2.25333 -0.000348055 -0.000574384     -37.2835 
         500      2.61333 -0.000123177 -0.000602263     -37.2835 
         500            3  7.96885e-05 -0.000611491     -37.2835 
         550            0           -0           -0     -33.6995 
         550     0.013333  0.000262974  2.55959e-07     -33.6995 
         550     0.053333   0.00110471   4.2898e-06     -33.6995 
         550         0.12   0.00186324  2.23226e-05     -33.6995 
         550     0.213332   0.00208831  6.88506e-05     -33.6995 
         550     0.333332   0.00175183  0.000154095     -33.6995 
         550         0.48     0.001198  0.000277451     -33.6995 
         550     0.653331  0.000784098  0.000430466     -33.6995 
         550     0.853332  0.000646263  0.000603469     -33.6995 
         550         1.08   0.00069337  0.000786344     -33.6995 
         550      1.33333  0.000713592  0.000966306     -33.6995 
         550      1.61333  0.000594556   0.00113144     -33.6995 
         550         1.92  0.000418131   0.00127506     -33.6995 
         550      2.25333  0.000237603   0.00138989     -33.6995 
         550      2.61333  6.25197e-05   0.00146734     -33.6995 
         550            3 -0.000102458   0.00150048     -33.6996 
         600            0 -2.20327e-19  -3.4936e-28     -30.1171 
         600     0.013333 -0.000403852 -1.83799e-07     -30.1171 
         600     0.053333  -0.00114673  -3.1071e-06     -30.1171 
         600         0.12  -0.00190456 -1.63347e-05     -30.1171 
         600     0.213332  -0.00226818 -5.09099e-05     -30.1171 
         600     0.333332  -0.00216495 -0.000115168     -30.1171 
         600         0.48  -0.00183101 -0.000209712     -30.1171 
         600     0.653331  -0.00154806  -0.00032919     -30.1171 
         600     0.853332  -0.00144969 -0.000466959     -30.1171 
         600         1.08  -0.00148932 -0.000615421     -30.1171 
         600      1.33333  -0.00149282 -0.000763803     -30.1171 
         600      1.61333  -0.00133663 -0.000900848     -30.1171 
         600         1.92  -0.00108662  -0.00102031     -30.1171 
         600      2.25333 -0.000811938  -0.00111743     -30.1171 
         600      2.61333 -0.000531082  -0.00118554      -30.117 
         600            3 -0.000250991  -0.00121866      -30.117 
         650            0           -0           -0     -26.5326 
         650     0.013333  5.82307e-05  2.86966e-08     -26.5326 
         650     0.053333  0.000448493  5.92039e-07     -26.5326 
         650         0.12  0.000877876  3.72547e-06     -26.5326 
         650     0.213332   0.00117694  1.32164e-05     -26.5326 
         650     0.333332   0.00127818  3.26536e-05     -26.5326 
         650         0.48   0.00124511  6.31655e-05     -26.5326 
         650     0.653331   0.00118574  0.000103465     -26.5326 
         650     0.853332   0.00116588  0.000151247     -26.5326 
         650         1.08   0.00117407  0.000203193     -26.5326 
         650      1.33333   0.00113316  0.000254253     -26.5326 
         650      1.61333  0.000989534  0.000299529     -26.5326 
         650         1.92    0.0007897    0.0003375     -26.5326 
         650      2.25333  0.000573412  0.000367599     -26.5327 
         650      2.61333  0.000349391  0.000388153     -26.5327 
         650            3  0.000122558  0.000397319     -26.5327 
         700            0            0            0     -22.9491 
         700     0.013333 -6.41262e-05 -3.80341e-09     -22.9491 
         700     0.053333  1.58183e-05 -1.99848e-08     -22.9491 
         700         0.12   8.7284e-05  1.90012e-07     -22.9491 
         700     0.213332  0.000117492   1.5267e-06     -22.9491 
         700     0.333332  8.37528e-05  5.35791e-06     -22.9491 
         700         0.48  3.19385e-06  1.25069e-05     -22.9491 
         700     0.653331 -8.53313e-05  2.24704e-05     -22.9491 
         700     0.853332 -0.000157977  3.38382e-05     -22.9491 
         700         1.08 -0.000212665  4.54865e-05     -22.9491 
         700      1.33333 -0.000244161  5.74641e-05     -22.9491 
         700      1.61333 -0.000242941  7.03947e-05     -22.9491 
         700         1.92 -0.000223628  8.39271e-05     -22.9491 
         700      2.25333 -0.000201147  9.67512e-05     -22.9491 
         700      2.61333  -0.00017808  0.000107796     -22.9491 
         700            3 -0.000152545  0.000116333     -22.9491 
         750            0            0            0     -19.3655 
         750     0.013333 -0.000244638  1.67825e-07     -19.3655 
         750     0.053333 -0.000684663  2.33932e-06     -19.3655 
         750         0.12  -0.00135558  9.32449e-06     -19.3655 
         750     0.213332  -0.00203768  2.07627e-05     -19.3655 
         750     0.333332  -0.00249657  3.16671e-05     -19.3655 
         750         0.48  -0.00264792  3.60203e-05     -19.3655 
         750     0.653331  -0.00258261  3.15162e-05     -19.3655 
         750     0.853332   -0.0024252  2.05976e-05     -19.3655 
         750         1.08   -0.0022182   7.9878e-06     -19.3655 
         750      1.33333  -0.00195463 -3.17325e-06     -19.3655 
         750      1.61333  -0.00165958 -1.31437e-05     -19.3655 
         750         1.92  -0.00136388 -2.35565e-05     -19.3655 
         750      2.25333   -0.0010528 -3.43722e-05     -19.3655 
         750      2.61333 -0.000719805  -4.4747e-05     -19.3655 
         750            3 -0.000380488 -5.39385e-05     -19.3655 
         800            0           -0           -0     -15.7796 
         800     0.013333  -0.00012602 -2.43984e-07     -15.7796 
         800     0.053333 -0.000131505 -3.65186e-06     -15.7796 
         800         0.12  2.78267e-05 -1.64462e-05     -15.7796 
         800     0.213332  0.000408402 -4.39013e-05     -15.7796 
         800     0.333332  0.000878969 -8.65134e-05     -15.7796 
         800         0.48    0.0012621 -0.000140541     -15.7796 
         800     0.653331   0.00147417 -0.000202123     -15.7796 
         800     0.853332   0.00151549 -0.000270363     -15.7796 
         800         1.08   0.00139495 -0.000346639     -15.7796 
         800      1.33333    0.0011481 -0.000430232     -15.7796 
         800      1.61333   0.00088356 -0.000515311     -15.7796 
         800         1.92  0.000684596 -0.000594611     -15.7796 
         800      2.25333  0.000505796 -0.000663807     -15.7796 
         800      2.61333  0.000315222 -0.000719404     -15.7796 
         800            3  0.000119216 -0.000757835     -15.7796 
         850            0           -0           -0     -12.1943 
         850     0.013333 -8.59899e-05 -1.75953e-08     -12.1943 
         850     0.053333 -4.99108e-05 -2.98941e-07     -12.1943 
         850         0.12  1.31995e-05 -1.60621e-06     -12.1943 
         850     0.213332  0.000133289 -5.17889e-06     -12.1943 
         850     0.333332  0.000298768  -1.2065e-05     -12.1943 
         850         0.48  0.000461971 -2.21395e-05     -12.1943 
         850     0.653331   0.00057592 -3.39072e-05     -12.1943 
         850     0.853332  0.000632401 -4.52924e-05     -12.1943 
         850         1.08  0.000659321 -5.45936e-05     -12.1943 
         850      1.33333  0.000675911 -6.14831e-05     -12.1943 
         850      1.61333  0.000657282 -6.76721e-05     -12.1943 
         850         1.92  0.000579777 -7.50753e-05     -12.1943 
         850      2.25333   0.00047444 -8.28802e-05     -12.1943 
         850      2.61333  0.000359001 -9.02592e-05     -12.1943 
         850            3  0.000234033  -9.6501e-05     -12.1943 
         900            0 -5.92726e-20  3.56807e-27     -8.60777 
         900     0.013333  4.30906e-05 -9.96096e-08     -8.60777 
         900     0.053333  0.000436739 -1.35022e-06     -8.60777 
         900         0.12   0.00097357  -5.1102e-06     -8.60777 
         900     0.213332   0.00149393 -1.04025e-05     -8.60777 
         900     0.333332   0.00183272  -1.3396e-05     -8.60777 
         900         0.48   0.00194502  -1.0122e-05     -8.60777 
         900     0.653331   0.00191114  5.50499e-07     -8.60777 
         900     0.853332   0.00182911  1.64892e-05     -8.60777 
         900         1.08   0.00172217  3.36443e-05     -8.60777 
         900      1.33333   0.00155419  4.83092e-05     -8.60777 
         900      1.61333   0.00132326  5.95311e-05     -8.60777 
         900         1.92   0.00108438  6.91071e-05     -8.60778 
         900      2.25333  0.000843899  7.81529e-05     -8.60779 
         900      2.61333  0.000590153  8.61212e-05      -8.6078 
         900            3  0.000322464  9.21462e-05     -8.60781 
         950            0           -0           -0     -5.02187 
         950     0.013333 -4.77993e-05  1.15219e-07     -5.02187 
         950     0.053333  4.15514e-05  1.74781e-06     -5.02187 
         950         0.12  4.53149e-05  8.02977e-06     -5.02187 
         950     0.213332 -7.65156e-05  2.19455e-05     -5.02187 
         950     0.333332 -0.000273351  4.43055e-05     -5.02187 
         950         0.48 -0.000451868  7.35794e-05     -5.02187 
         950     0.653331 -0.000555333  0.000107713     -5.02187 
         950     0.853332 -0.000575296  0.000145859     -5.02187 
         950         1.08 -0.000517566  0.000188342     -5.02187 
         950      1.33333 -0.000400878  0.000234797     -5.02187 
         950      1.61333 -0.000280934  0.000282403     -5.02187 
         950         1.92 -0.000213062  0.000327026     -5.02187 
         950      2.25333  -0.00017139  0.000366444     -5.02187 
         950      2.61333 -0.000130312  0.000398994     -5.02186 
         950            3  -8.6399e-05  0.000422966     -5.02186 
        1000            0           -0           -0     -1.43496 
        1000     0.013333 -0.000125504  5.79455e-10     -1.43496 
        1000     0.053333 -0.000204444 -2.74265e-08     -1.43496 
        1000         0.12 -0.000319344  -3.6299e-07     -1.43496 
        1000     0.213332 -0.000413903 -1.72105e-06     -1.43496 
        1000     0.333332 -0.000460485 -4.93532e-06     -1.43496 
        1000         0.48 -0.000465735 -1.04041e-05     -1.43496 
        1000     0.653331 -0.000455236 -1.79508e-05     -1.43496 
        1000     0.853332 -0.000449901 -2.71047e-05     -1.43496 
        1000         1.08 -0.000454428 -3.72687e-05     -1.43496 
        1000      1.33333 -0.000454503 -4.74751e-05     -1.43496 
        1000      1.61333 -0.000428367 -5.64298e-05     -1.43496 
        1000         1.92  -0.00037444 -6.34509e-05     -1.43496 
        1000      2.25333 -0.000313941  -6.8889e-05     -1.43496 
        1000      2.61333 -0.000254261 -7.29079e-05     -1.43495 
        1000            3 -0.000191925 -7.53227e-05     -1.43495 
