Variables = x, y, u, v, p

Zone, I=416, F=POINT
         -50            0            0            0     -27.9637 
         -50     0.013333  0.000442471   5.6601e-08     -27.9637 
         -50     0.053333  0.000416885  3.99366e-07     -27.9637 
         -50         0.12  0.000411753  1.18262e-06     -27.9637 
         -50     0.213332  0.000408524  2.76744e-06     -27.9637 
         -50     0.333332  0.000401204  5.69434e-06     -27.9637 
         -50         0.48  0.000394608  8.37157e-06     -27.9636 
         -50     0.653331  0.000391789  1.18943e-05     -27.9635 
         -50     0.853332  0.000391653   1.6069e-05     -27.9634 
         -50         1.08  0.000392047  1.95391e-05     -27.9632 
         -50      1.33333  0.000391234  2.31918e-05     -27.9629 
         -50      1.61333  0.000389662  2.60133e-05     -27.9625 
         -50         1.92  0.000391974  2.84363e-05      -27.962 
         -50      2.25333   0.00039293  2.97608e-05     -27.9614 
         -50      2.61333  0.000391319  3.04112e-05     -27.9606 
         -50            3  0.000390734   3.2136e-05     -27.9596 
         -25            0  3.59273e-19  1.64125e-24     -26.8565 
         -25     0.013333  0.000317564  1.97544e-08     -26.8565 
         -25     0.053333  0.000284719  1.04469e-07     -26.8565 
         -25         0.12  0.000270075  1.49755e-07     -26.8565 
         -25     0.213332  0.000267475 -7.26827e-10     -26.8565 
         -25     0.333332  0.000269768 -4.72733e-07     -26.8565 
         -25         0.48  0.000272473 -1.18654e-06     -26.8565 
         -25     0.653331  0.000273925 -2.13934e-06     -26.8564 
         -25     0.853332  0.000275566 -3.11759e-06     -26.8564 
         -25         1.08  0.000279218 -3.66342e-06     -26.8563 
         -25      1.33333  0.000283987 -3.86761e-06     -26.8562 
         -25      1.61333  0.000289764 -3.70442e-06      -26.856 
         -25         1.92   0.00029556 -2.95792e-06     -26.8558 
         -25      2.25333  0.000302898 -2.06957e-06     -26.8556 
         -25      2.61333  0.000307377 -1.34281e-06     -26.8553 
         -25            3  0.000305034 -3.52667e-07     -26.8549 
           0            0  5.20139e-15 -3.20461e-15     -25.9387 
           0     0.013333   0.00110815 -0.000623884     -25.9387 
           0     0.053333  0.000597585 -0.000331577     -25.9406 
           0         0.12  0.000432258  -0.00021089     -25.9428 
           0     0.213332  0.000371378 -0.000165026     -25.9451 
           0     0.333332  0.000346031 -0.000137696     -25.9475 
           0         0.48  0.000328996 -0.000118086     -25.9499 
           0     0.653331  0.000313953 -0.000104114     -25.9523 
           0     0.853332  0.000298826 -9.39389e-05     -25.9547 
           0         1.08   0.00028642 -8.61949e-05     -25.9571 
           0      1.33333  0.000277535 -7.98745e-05     -25.9594 
           0      1.61333  0.000269049 -7.43073e-05     -25.9616 
           0         1.92  0.000259574 -6.88892e-05     -25.9637 
           0      2.25333  0.000249239 -6.33239e-05     -25.9657 
           0      2.61333  0.000246945 -5.56935e-05     -25.9676 
           0            3  0.000255806 -4.62879e-05     -25.9694 
          20            0  2.87249e-19  2.80722e-24     -25.4078 
          20     0.013333  0.000241245  2.78409e-08     -25.4078 
          20     0.053333  0.000172543  2.70389e-08     -25.4078 
          20         0.12  0.000127726 -7.73694e-07     -25.4078 
          20     0.213332  0.000118782 -3.51476e-06     -25.4078 
          20     0.333332  0.000131271 -8.44019e-06     -25.4078 
          20         0.48  0.000156143 -1.42272e-05     -25.4077 
          20     0.653331  0.000183127 -2.02893e-05     -25.4077 
          20     0.853332  0.000193447 -2.75253e-05     -25.4076 
          20         1.08  0.000201721 -3.43677e-05     -25.4074 
          20      1.33333  0.000216852 -3.89599e-05     -25.4073 
          20      1.61333   0.00023478 -4.07026e-05      -25.407 
          20         1.92   0.00025188 -3.94486e-05     -25.4067 
          20      2.25333  0.000262718 -3.55833e-05     -25.4064 
          20      2.61333  0.000266842 -2.96707e-05     -25.4059 
          20            3  0.000263416 -2.42153e-05     -25.4054 
          40            0           -0           -0     -24.8261 
          40     0.013333  0.000227304 -1.11365e-07     -24.8261 
          40     0.053333  0.000218957 -1.67903e-06     -24.8261 
          40         0.12   0.00028054 -7.28863e-06     -24.8261 
          40     0.213332  0.000382513 -1.81007e-05     -24.8261 
          40     0.333332  0.000457289 -3.26516e-05     -24.8261 
          40         0.48  0.000472534 -4.92087e-05     -24.8261 
          40     0.653331  0.000434038 -6.77092e-05     -24.8261 
          40     0.853332  0.000368987 -8.76994e-05     -24.8261 
          40         1.08  0.000315387 -0.000106305      -24.826 
          40      1.33333  0.000278527  -0.00012082      -24.826 
          40      1.61333  0.000243884 -0.000129768      -24.826 
          40         1.92  0.000208419 -0.000132045     -24.8259 
          40      2.25333  0.000178456 -0.000127695     -24.8259 
          40      2.61333  0.000164618 -0.000116978     -24.8258 
          40            3  0.000169481 -0.000101999     -24.8257 
          60            0           -0           -0     -24.2813 
          60     0.013333  0.000255506  -8.7004e-08     -24.2813 
          60     0.053333  0.000333141 -1.16865e-06     -24.2813 
          60         0.12  0.000464888 -4.29391e-06     -24.2813 
          60     0.213332  0.000584191 -8.61568e-06     -24.2813 
          60     0.333332  0.000647228 -1.20152e-05     -24.2813 
          60         0.48  0.000666879  -1.3662e-05     -24.2813 
          60     0.653331  0.000657902 -1.52878e-05     -24.2813 
          60     0.853332  0.000595969 -2.02262e-05     -24.2812 
          60         1.08  0.000486119 -2.87756e-05     -24.2812 
          60      1.33333  0.000386897 -3.74516e-05     -24.2812 
          60      1.61333   0.00030416 -4.37754e-05     -24.2812 
          60         1.92  0.000222833 -4.73939e-05     -24.2812 
          60      2.25333  0.000157144 -4.84155e-05     -24.2812 
          60      2.61333  0.000113608 -4.68719e-05     -24.2811 
          60            3  9.05469e-05 -4.34709e-05     -24.2811 
          80            0           -0           -0     -23.7547 
          80     0.013333  0.000235092  6.81341e-11     -23.7547 
          80     0.053333  0.000256241  6.01362e-08     -23.7547 
          80         0.12  0.000283701  6.62098e-07     -23.7547 
          80     0.213332  0.000289331   2.7313e-06     -23.7547 
          80     0.333332  0.000276105  6.72344e-06     -23.7547 
          80         0.48  0.000265678  1.21324e-05     -23.7547 
          80     0.653331  0.000266199  1.78709e-05     -23.7547 
          80     0.853332  0.000259832  2.22483e-05     -23.7547 
          80         1.08  0.000229739  2.39233e-05     -23.7547 
          80      1.33333  0.000200988  2.36647e-05     -23.7547 
          80      1.61333  0.000188293  2.28803e-05     -23.7547 
          80         1.92   0.00017865  2.14429e-05     -23.7547 
          80      2.25333  0.000172355  1.89816e-05     -23.7547 
          80      2.61333  0.000168869  1.58433e-05     -23.7546 
          80            3   0.00016588  1.17627e-05     -23.7546 
         100            0   2.4824e-19  8.32215e-26     -23.2392 
         100     0.013333  0.000232077  4.21929e-08     -23.2392 
         100     0.053333  0.000247071  6.55623e-07     -23.2392 
         100         0.12  0.000252186  3.09681e-06     -23.2392 
         100     0.213332    0.0002278  8.52612e-06     -23.2392 
         100     0.333332  0.000192341  1.69992e-05     -23.2392 
         100         0.48  0.000173264  2.76863e-05     -23.2392 
         100     0.653331  0.000179853   3.9745e-05     -23.2392 
         100     0.853332   0.00019965  5.21399e-05     -23.2392 
         100         1.08  0.000209329  6.32963e-05     -23.2392 
         100      1.33333  0.000206608   7.2119e-05     -23.2392 
         100      1.61333  0.000204265  7.83668e-05     -23.2392 
         100         1.92  0.000201087  8.13589e-05     -23.2392 
         100      2.25333  0.000195703  8.07684e-05     -23.2391 
         100      2.61333  0.000191736  7.69979e-05     -23.2391 
         100            3  0.000192748   7.1032e-05     -23.2391 
         150            0           -0           -0     -21.9753 
         150     0.013333  0.000204627  -6.7081e-08     -21.9753 
         150     0.053333  0.000187244 -9.81649e-07     -21.9753 
         150         0.12  0.000211529 -4.20817e-06     -21.9753 
         150     0.213332  0.000261752 -1.04415e-05     -21.9753 
         150     0.333332  0.000300328 -1.89539e-05     -21.9753 
         150         0.48   0.00030848 -2.87611e-05     -21.9753 
         150     0.653331  0.000287012 -3.98122e-05     -21.9753 
         150     0.853332  0.000242289 -5.23091e-05     -21.9753 
         150         1.08  0.000199065  -6.4863e-05     -21.9753 
         150      1.33333  0.000179952 -7.52856e-05     -21.9753 
         150      1.61333  0.000171565 -8.27415e-05     -21.9753 
         150         1.92  0.000164773 -8.68116e-05     -21.9753 
         150      2.25333  0.000161744 -8.72361e-05     -21.9753 
         150      2.61333  0.000165063 -8.37569e-05     -21.9753 
         150            3  0.000175102 -7.68742e-05     -21.9753 
         200            0            0            0     -20.7256 
         200     0.013333  0.000241314  1.02286e-08     -20.7256 
         200     0.053333   0.00030272  2.09278e-07     -20.7256 
         200         0.12  0.000375899  1.29868e-06     -20.7256 
         200     0.213332   0.00041383  4.49586e-06     -20.7256 
         200     0.333332  0.000407793   1.0769e-05     -20.7256 
         200         0.48  0.000383018   2.0161e-05     -20.7256 
         200     0.653331  0.000364738  3.19889e-05     -20.7256 
         200     0.853332  0.000357475  4.52066e-05     -20.7256 
         200         1.08  0.000346225  5.84242e-05     -20.7256 
         200      1.33333  0.000317874  7.01022e-05     -20.7256 
         200      1.61333  0.000279873  7.94723e-05     -20.7256 
         200         1.92  0.000239818  8.60807e-05     -20.7256 
         200      2.25333  0.000199293  8.91094e-05     -20.7256 
         200      2.61333  0.000161459  8.84828e-05     -20.7256 
         200            3  0.000134209  8.49262e-05     -20.7256 
         250            0           -0           -0     -19.4787 
         250     0.013333  0.000250357 -2.21665e-08     -19.4787 
         250     0.053333   0.00034539 -2.50154e-07     -19.4787 
         250         0.12  0.000478189 -6.05296e-07     -19.4787 
         250     0.213332  0.000586263 -8.27078e-08     -19.4787 
         250     0.333332  0.000637357   2.7218e-06     -19.4787 
         250         0.48  0.000646126   8.4822e-06     -19.4787 
         250     0.653331  0.000641481  1.67566e-05     -19.4787 
         250     0.853332  0.000629176  2.61173e-05     -19.4787 
         250         1.08  0.000590093  3.47379e-05     -19.4787 
         250      1.33333  0.000519454  4.15286e-05     -19.4787 
         250      1.61333  0.000437426  4.67621e-05     -19.4787 
         250         1.92  0.000351981   5.0539e-05     -19.4787 
         250      2.25333  0.000265534  5.22882e-05     -19.4787 
         250      2.61333  0.000184381  5.19743e-05     -19.4787 
         250            3  0.000116959   4.9621e-05     -19.4787 
         300            0            0            0     -18.2309 
         300     0.013333   0.00017331  5.67696e-08     -18.2309 
         300     0.053333  5.31382e-05  7.79975e-07     -18.2309 
         300         0.12 -0.000103123  3.03207e-06     -18.2309 
         300     0.213332 -0.000246861  6.52089e-06     -18.2309 
         300     0.333332 -0.000329567  9.58728e-06     -18.2309 
         300         0.48 -0.000345755  1.06941e-05     -18.2309 
         300     0.653331   -0.0003229  9.75201e-06     -18.2309 
         300     0.853332 -0.000279269  7.92025e-06     -18.2309 
         300         1.08 -0.000216533  6.21497e-06     -18.2309 
         300      1.33333 -0.000142716  4.62164e-06     -18.2309 
         300      1.61333 -6.59332e-05  2.70259e-06     -18.2309 
         300         1.92  1.66744e-05  4.86452e-07     -18.2309 
         300      2.25333   0.00010319 -1.63749e-06     -18.2309 
         300      2.61333  0.000186068 -3.65118e-06     -18.2309 
         300            3  0.000253983  -5.5207e-06     -18.2309 
         350            0           -0           -0     -16.9797 
         350     0.013333  0.000222746  2.41219e-09     -16.9797 
         350     0.053333  0.000246144   2.5203e-08     -16.9797 
         350         0.12  0.000295994  5.92439e-08     -16.9797 
         350     0.213332   0.00035156  8.26071e-08     -16.9797 
         350     0.333332  0.000392084  3.12772e-07     -16.9797 
         350         0.48  0.000406682  1.35997e-06     -16.9797 
         350     0.653331  0.000401165  3.97177e-06     -16.9797 
         350     0.853332  0.000392892  8.70803e-06     -16.9797 
         350         1.08  0.000392848  1.56179e-05     -16.9797 
         350      1.33333  0.000388202  2.37026e-05     -16.9797 
         350      1.61333   0.00036225  3.14463e-05     -16.9797 
         350         1.92   0.00032363  3.81341e-05     -16.9797 
         350      2.25333  0.000280364  4.35952e-05     -16.9797 
         350      2.61333  0.000236367  4.73679e-05     -16.9797 
         350            3  0.000195759  4.91744e-05     -16.9797 
         400            0           -0           -0     -15.7256 
         400     0.013333  0.000137156   8.0681e-08     -15.7256 
         400     0.053333  -8.3384e-05  1.09392e-06     -15.7256 
         400         0.12 -0.000377549  4.16207e-06     -15.7256 
         400     0.213332 -0.000651967  8.66114e-06     -15.7256 
         400     0.333332 -0.000820182  1.19939e-05     -15.7256 
         400         0.48 -0.000870163  1.16853e-05     -15.7256 
         400     0.653331 -0.000850464  7.27568e-06     -15.7256 
         400     0.853332  -0.00079975  3.58382e-07     -15.7256 
         400         1.08  -0.00071375 -6.65399e-06     -15.7256 
         400      1.33333 -0.000583615 -1.22611e-05     -15.7256 
         400      1.61333 -0.000429608 -1.67917e-05     -15.7256 
         400         1.92 -0.000266972 -2.08593e-05     -15.7256 
         400      2.25333 -9.51595e-05 -2.42506e-05     -15.7256 
         400      2.61333  7.66162e-05 -2.66695e-05     -15.7256 
         400            3  0.000229527 -2.79343e-05     -15.7256 
         450            0            0            0     -14.4678 
         450     0.013333   0.00027807 -3.81249e-08     -14.4678 
         450     0.053333  0.000453506 -4.81023e-07     -14.4678 
         450         0.12  0.000700367 -1.56692e-06     -14.4678 
         450     0.213332  0.000920256 -2.27188e-06     -14.4678 
         450     0.333332   0.00104176 -4.76266e-07     -14.4678 
         450         0.48   0.00106498  5.56957e-06     -14.4678 
         450     0.653331   0.00103801   1.6171e-05     -14.4678 
         450     0.853332   0.00100027  3.02419e-05     -14.4678 
         450         1.08  0.000950236  4.57339e-05     -14.4678 
         450      1.33333  0.000864106  6.03901e-05     -14.4678 
         450      1.61333  0.000742173  7.31038e-05     -14.4678 
         450         1.92  0.000606174  8.37106e-05     -14.4678 
         450      2.25333  0.000460983  9.20026e-05     -14.4678 
         450      2.61333  0.000313365  9.72172e-05     -14.4678 
         450            3  0.000176971  9.87865e-05     -14.4678 
         500            0           -0           -0      -13.208 
         500     0.013333  0.000116879  1.25093e-07      -13.208 
         500     0.053333 -0.000170131  1.74438e-06      -13.208 
         500         0.12 -0.000579028   6.9708e-06      -13.208 
         500     0.213332 -0.000988033  1.56593e-05      -13.208 
         500     0.333332  -0.00126038  2.44788e-05      -13.208 
         500         0.48  -0.00135322  2.95619e-05      -13.208 
         500     0.653331  -0.00132343  2.96391e-05      -13.208 
         500     0.853332  -0.00123476  2.64294e-05      -13.208 
         500         1.08  -0.00110175   2.2686e-05      -13.208 
         500      1.33333 -0.000925091  1.97809e-05      -13.208 
         500      1.61333 -0.000725008    1.721e-05      -13.208 
         500         1.92 -0.000512929  1.42844e-05      -13.208 
         500      2.25333 -0.000286177  1.10549e-05      -13.208 
         500      2.61333 -5.28983e-05  7.69214e-06      -13.208 
         500            3   0.00016608  4.35992e-06      -13.208 
         550            0            0            0     -11.9434 
         550     0.013333  0.000281626 -7.66741e-08     -11.9434 
         550     0.053333  0.000478267 -1.03575e-06     -11.9434 
         550         0.12  0.000778824 -3.94034e-06     -11.9434 
         550     0.213332   0.00108229 -8.32545e-06     -11.9434 
         550     0.333332   0.00129757 -1.21126e-05     -11.9434 
         550         0.48   0.00140567 -1.33311e-05     -11.9434 
         550     0.653331   0.00144573 -1.15035e-05     -11.9434 
         550     0.853332   0.00145128 -7.87281e-06     -11.9434 
         550         1.08   0.00140622 -5.20987e-06     -11.9434 
         550      1.33333   0.00127675 -6.19094e-06     -11.9434 
         550      1.61333   0.00108677 -1.07169e-05     -11.9434 
         550         1.92  0.000889793 -1.63665e-05     -11.9434 
         550      2.25333  0.000685172  -2.2179e-05     -11.9434 
         550      2.61333  0.000472166 -2.77519e-05     -11.9435 
         550            3  0.000265592 -3.27497e-05     -11.9435 
         600            0           -0           -0     -10.6761 
         600     0.013333  0.000301798  -3.7763e-09     -10.6761 
         600     0.053333  0.000527811  6.73269e-08     -10.6761 
         600         0.12  0.000802134  1.16015e-06     -10.6761 
         600     0.213332  0.000985297  5.92222e-06     -10.6761 
         600     0.333332   0.00100767   1.7679e-05     -10.6761 
         600         0.48  0.000912314  3.80666e-05     -10.6761 
         600     0.653331  0.000792509  6.59859e-05     -10.6761 
         600     0.853332  0.000703718  9.86622e-05     -10.6761 
         600         1.08  0.000639087  0.000133071     -10.6761 
         600      1.33333  0.000572048  0.000167081     -10.6761 
         600      1.61333   0.00049957  0.000199777     -10.6761 
         600         1.92    0.0004248  0.000230191     -10.6761 
         600      2.25333  0.000345187  0.000256445     -10.6761 
         600      2.61333   0.00026272    0.0002765     -10.6761 
         600            3   0.00018399  0.000288767     -10.6761 
         650            0            0            0     -9.40522 
         650     0.013333  6.71087e-05  3.78132e-08     -9.40522 
         650     0.053333 -0.000321775  3.76966e-07     -9.40522 
         650         0.12 -0.000786049  4.35909e-07     -9.40522 
         650     0.213332  -0.00114316 -2.84798e-06     -9.40522 
         650     0.333332  -0.00128717 -1.38643e-05     -9.40522 
         650         0.48  -0.00125723 -3.50766e-05     -9.40522 
         650     0.653331  -0.00116972 -6.54653e-05     -9.40522 
         650     0.853332   -0.0011004 -0.000101643     -9.40522 
         650         1.08   -0.0010345 -0.000139164     -9.40522 
         650      1.33333 -0.000914157 -0.000173908     -9.40522 
         650      1.61333  -0.00073189  -0.00020405     -9.40522 
         650         1.92 -0.000535573 -0.000229947     -9.40522 
         650      2.25333 -0.000333733 -0.000251349     -9.40521 
         650      2.61333 -0.000124941 -0.000266637      -9.4052 
         650            3  8.20114e-05 -0.000274211     -9.40518 
         700            0           -0           -0     -8.12829 
         700     0.013333  0.000327608 -4.68409e-08     -8.12829 
         700     0.053333  0.000635064 -5.44213e-07     -8.12829 
         700         0.12   0.00104219 -1.39703e-06     -8.12829 
         700     0.213332    0.0013809 -3.69358e-07     -8.12829 
         700     0.333332   0.00153995  6.22353e-06     -8.12829 
         700         0.48   0.00153678  2.07968e-05     -8.12829 
         700     0.653331   0.00146755  4.29272e-05     -8.12829 
         700     0.853332   0.00140424  7.00184e-05     -8.12829 
         700         1.08   0.00134166  9.83174e-05     -8.12829 
         700      1.33333    0.0012294  0.000124119     -8.12829 
         700      1.61333   0.00105808  0.000145778     -8.12829 
         700         1.92  0.000874621    0.0001642      -8.1283 
         700      2.25333  0.000688963  0.000179454     -8.12831 
         700      2.61333  0.000497801  0.000190634     -8.12832 
         700            3  0.000306348  0.000196672     -8.12834 
         750            0            0            0     -6.84765 
         750     0.013333  0.000190183    6.723e-08     -6.84765 
         750     0.053333  0.000107113   9.8378e-07     -6.84765 
         750         0.12 -3.48176e-05  4.30142e-06     -6.84765 
         750     0.213332 -0.000226744  1.11387e-05     -6.84765 
         750     0.333332 -0.000420027  2.13419e-05     -6.84765 
         750         0.48 -0.000565174  3.37199e-05     -6.84765 
         750     0.653331 -0.000647219  4.69505e-05     -6.84765 
         750     0.853332 -0.000679127  6.03926e-05     -6.84765 
         750         1.08 -0.000668608  7.45404e-05     -6.84765 
         750      1.33333 -0.000604829  9.05428e-05     -6.84765 
         750      1.61333 -0.000492509  0.000108567     -6.84765 
         750         1.92 -0.000370528   0.00012694     -6.84765 
         750      2.25333 -0.000246648  0.000143401     -6.84765 
         750      2.61333 -0.000116828  0.000157087     -6.84765 
         750            3   1.7515e-05  0.000167312     -6.84764 
         800            0           -0           -0     -5.56241 
         800     0.013333  6.41251e-05   8.7723e-08     -5.56241 
         800     0.053333 -0.000352214  1.16459e-06     -5.56241 
         800         0.12 -0.000903745  4.20111e-06     -5.56241 
         800     0.213332  -0.00140575  7.63984e-06     -5.56241 
         800     0.333332  -0.00169092  7.01268e-06     -5.56241 
         800         0.48  -0.00172801  -2.0404e-06     -5.56241 
         800     0.653331  -0.00161621 -2.05352e-05     -5.56241 
         800     0.853332  -0.00146482 -4.59089e-05     -5.56241 
         800         1.08  -0.00130749 -7.41507e-05     -5.56241 
         800      1.33333  -0.00113009 -0.000102341     -5.56241 
         800      1.61333 -0.000935428 -0.000129732     -5.56241 
         800         1.92 -0.000735287 -0.000156487     -5.56241 
         800      2.25333 -0.000522445 -0.000181188      -5.5624 
         800      2.61333 -0.000293331 -0.000202559     -5.56239 
         800            3 -5.69832e-05 -0.000219333     -5.56237 
         850            0           -0           -0     -4.27325 
         850     0.013333  0.000174429 -2.47176e-07     -4.27325 
         850     0.053333  0.000152013 -3.72361e-06     -4.27325 
         850         0.12  0.000340082 -1.69267e-05     -4.27325 
         850     0.213332  0.000782337 -4.56495e-05     -4.27325 
         850     0.333332   0.00132858 -9.07485e-05     -4.27325 
         850         0.48   0.00177199 -0.000148157     -4.27325 
         850     0.653331    0.0020095 -0.000213058     -4.27325 
         850     0.853332   0.00204734 -0.000283529     -4.27325 
         850         1.08   0.00191739 -0.000360207     -4.27325 
         850      1.33333   0.00166906 -0.000442376     -4.27325 
         850      1.61333   0.00140067 -0.000525113     -4.27325 
         850         1.92   0.00118291 -0.000602135     -4.27326 
         850      2.25333  0.000975824 -0.000669606     -4.27326 
         850      2.61333  0.000750791 -0.000724208     -4.27327 
         850            3  0.000514038 -0.000762436     -4.27329 
         900            0           -0           -0      -2.9824 
         900     0.013333  0.000306023 -4.99318e-08      -2.9824 
         900     0.053333  0.000570732 -6.88378e-07      -2.9824 
         900         0.12  0.000970851 -2.72374e-06      -2.9824 
         900     0.213332   0.00139619 -6.06015e-06      -2.9824 
         900     0.333332   0.00173283 -9.21744e-06      -2.9824 
         900         0.48   0.00192234  -9.9674e-06      -2.9824 
         900     0.653331   0.00198121 -6.38462e-06     -2.98239 
         900     0.853332   0.00197046  2.47761e-06     -2.98239 
         900         1.08   0.00194143  1.61914e-05      -2.9824 
         900      1.33333   0.00188802  3.24789e-05      -2.9824 
         900      1.61333   0.00176029  4.77198e-05      -2.9824 
         900         1.92   0.00154995  5.95795e-05      -2.9824 
         900      2.25333   0.00130315  6.91947e-05     -2.98241 
         900      2.61333   0.00103872  7.65446e-05     -2.98241 
         900            3  0.000756483   8.1249e-05     -2.98243 
         950            0           -0           -0     -1.68731 
         950     0.013333  0.000464161 -1.32272e-07     -1.68731 
         950     0.053333   0.00116618 -1.77383e-06     -1.68731 
         950         0.12   0.00214659 -6.37638e-06     -1.68731 
         950     0.213332   0.00306465  -1.1374e-05     -1.68731 
         950     0.333332   0.00360714 -9.43197e-06     -1.68731 
         950         0.48   0.00369863  6.89591e-06     -1.68731 
         950     0.653331   0.00350426   3.9812e-05     -1.68731 
         950     0.853332    0.0032294  8.55557e-05     -1.68731 
         950         1.08   0.00295526  0.000137388     -1.68731 
         950      1.33333   0.00265878  0.000189841     -1.68731 
         950      1.61333   0.00233008  0.000240949     -1.68731 
         950         1.92   0.00199349  0.000290899     -1.68732 
         950      2.25333   0.00163958  0.000338184     -1.68733 
         950      2.61333   0.00125688   0.00038043     -1.68735 
         950            3  0.000851218  0.000415038     -1.68738 
        1000            0           -0           -0    -0.389667 
        1000     0.013333  0.000485012   3.5427e-07    -0.389667 
        1000     0.053333   0.00109348  5.71226e-06    -0.389666 
        1000         0.12    0.0015777  2.76821e-05    -0.389666 
        1000     0.213332   0.00153386   8.0015e-05    -0.389666 
        1000     0.333332  0.000949093  0.000170435    -0.389666 
        1000         0.48  0.000166069  0.000296551    -0.389665 
        1000     0.653331 -0.000434347  0.000449291    -0.389665 
        1000     0.853332 -0.000670658  0.000619952    -0.389666 
        1000         1.08 -0.000569637  0.000803173    -0.389666 
        1000      1.33333 -0.000296391  0.000992615    -0.389667 
        1000      1.61333 -6.32208e-05   0.00117822    -0.389668 
        1000         1.92  3.45515e-05   0.00135066    -0.389669 
        1000      2.25333   9.0091e-05   0.00150404     -0.38967 
        1000      2.61333  0.000155572   0.00163241    -0.389671 
        1000            3  0.000225595   0.00172819    -0.389671 
