Variables = x, y, u, v, p

Zone, I=2080, F=POINT
         -50            0            0            0      22.4989 
         -50      0.00048  2.84588e-05  1.99443e-09      22.4989 
         -50     0.001922  0.000100274  7.73791e-09      22.4989 
         -50     0.004326  0.000181754  1.65502e-08      22.4989 
         -50      0.00769  0.000237545  2.74639e-08      22.4989 
         -50     0.012017  0.000250266  3.93731e-08      22.4989 
         -50     0.017304  0.000229564  5.09786e-08      22.4989 
         -50     0.023553  0.000204104   6.0598e-08      22.4989 
         -50     0.030763  0.000198956  6.58057e-08      22.4989 
         -50     0.038936  0.000213368  6.32264e-08      22.4989 
         -50     0.048069  0.000220986  4.87825e-08      22.4989 
         -50     0.058163  0.000205485  1.86154e-08      22.4989 
         -50     0.069219  0.000202099  -2.9689e-08      22.4989 
         -50     0.081236  0.000217202 -9.72222e-08      22.4989 
         -50     0.094215  0.000210633 -1.89721e-07      22.4989 
         -50     0.108155  0.000213954 -3.09359e-07      22.4989 
         -50     0.123056  0.000215013 -4.59737e-07      22.4989 
         -50     0.138918  0.000217115  -6.4381e-07      22.4989 
         -50     0.155744   0.00022082 -8.63928e-07      22.4989 
         -50     0.173529  0.000225025 -1.12262e-06      22.4989 
         -50     0.192276  0.000228744 -1.42365e-06      22.4989 
         -50     0.211984  0.000232583 -1.77162e-06      22.4989 
         -50     0.232655  0.000237978 -2.16918e-06      22.4989 
         -50     0.254285  0.000242294  -2.6127e-06      22.4989 
         -50     0.276877  0.000247516 -3.12606e-06      22.4989 
         -50     0.300431  0.000252524 -3.68483e-06      22.4989 
         -50     0.324946  0.000257361  -4.2671e-06      22.4989 
         -50     0.350424  0.000262027 -4.86213e-06      22.4989 
         -50     0.376861  0.000266484 -5.46664e-06      22.4988 
         -50      0.40426  0.000270668 -6.08028e-06      22.4988 
         -50     0.432621  0.000274507 -6.70054e-06      22.4988 
         -50     0.461945   0.00027794 -7.31983e-06      22.4988 
         -50     0.492228  0.000280931 -7.92724e-06      22.4988 
         -50     0.523472  0.000283475 -8.51963e-06      22.4988 
         -50     0.555678  0.000285585 -9.12699e-06      22.4988 
         -50     0.588845  0.000287243  -9.8599e-06      22.4988 
         -50     0.622976  0.000288373 -1.06839e-05      22.4988 
         -50     0.658066  0.000289051 -1.12279e-05      22.4987 
         -50     0.694117  0.000289315 -1.17811e-05      22.4987 
         -50      0.73113  0.000289235 -1.23749e-05      22.4987 
         -50     0.769107  0.000288874  -1.3024e-05      22.4987 
         -50     0.808042  0.000288288 -1.37274e-05      22.4987 
         -50     0.847939  0.000287523  -1.4471e-05      22.4986 
         -50     0.888797  0.000286614 -1.52309e-05      22.4986 
         -50      0.93062  0.000285586 -1.59777e-05      22.4986 
         -50       0.9734  0.000284456 -1.66809e-05      22.4986 
         -50      1.01714  0.000283229 -1.73148e-05      22.4985 
         -50      1.06185  0.000281904 -1.78622e-05      22.4985 
         -50      1.10751  0.000280474  -1.8319e-05      22.4985 
         -50      1.15414  0.000278929 -1.86957e-05      22.4984 
         -50      1.20173  0.000277258 -1.90168e-05      22.4984 
         -50      1.25028  0.000275453 -1.93159e-05      22.4983 
         -50      1.29979  0.000273509 -1.96249e-05      22.4983 
         -50      1.35026  0.000271432 -1.99562e-05      22.4982 
         -50       1.4017  0.000269235 -2.02746e-05      22.4982 
         -50      1.45409  0.000266943 -2.04574e-05      22.4981 
         -50      1.50745   0.00026456 -2.02637e-05      22.4981 
         -50      1.56176  0.000260992 -2.07109e-05       22.498 
         -50      1.61705   0.00025808  -2.0708e-05      22.4979 
         -50      1.67329  0.000255708 -2.03907e-05      22.4979 
         -50      1.73049  0.000253769 -1.98744e-05      22.4978 
         -50      1.78865  0.000252164 -1.92538e-05      22.4977 
         -50      1.84778  0.000250807 -1.86028e-05      22.4977 
         -50      1.90786  0.000249622 -1.79747e-05      22.4976 
         -50      1.96891  0.000248542 -1.74028e-05      22.4975 
         -50      2.03092  0.000247516 -1.69021e-05      22.4974 
         -50      2.09389    0.0002465 -1.64707e-05      22.4973 
         -50      2.15782  0.000245462 -1.60928e-05      22.4972 
         -50      2.22272  0.000244383 -1.57406e-05      22.4971 
         -50      2.28857  0.000243249 -1.53783e-05       22.497 
         -50      2.35539  0.000242057 -1.49652e-05      22.4969 
         -50      2.42317   0.00024081 -1.44595e-05      22.4967 
         -50      2.49191  0.000239516 -1.38224e-05      22.4966 
         -50      2.56161  0.000238188 -1.30219e-05      22.4965 
         -50      2.63226  0.000236839 -1.20367e-05      22.4964 
         -50      2.70389  0.000235483 -1.08591e-05      22.4962 
         -50      2.77648  0.000234131 -9.49862e-06      22.4961 
         -50      2.85002  0.000232793 -7.98324e-06      22.4959 
         -50      2.92453  0.000231472 -6.36044e-06      22.4958 
         -50            3  0.000230164  -4.6964e-06      22.4956 
         -25            0  2.11182e-19  6.31841e-24      21.5873 
         -25      0.00048  2.10146e-05  6.41385e-10      21.5873 
         -25     0.001922  7.41259e-05  2.40151e-09      21.5873 
         -25     0.004326  0.000134651  4.81084e-09      21.5873 
         -25      0.00769  0.000176683  7.17329e-09      21.5873 
         -25     0.012017  0.000187458  8.65465e-09      21.5873 
         -25     0.017304  0.000173992  8.31972e-09      21.5873 
         -25     0.023553  0.000157215  5.11748e-09      21.5873 
         -25     0.030763  0.000155416 -2.18098e-09      21.5873 
         -25     0.038936  0.000167974 -1.50091e-08      21.5873 
         -25     0.048069  0.000175518  -3.4865e-08      21.5873 
         -25     0.058163  0.000166016 -6.29612e-08      21.5873 
         -25     0.069219  0.000165182  -9.9723e-08      21.5873 
         -25     0.081236  0.000177604 -1.44661e-07      21.5873 
         -25     0.094215  0.000173812 -1.98936e-07      21.5873 
         -25     0.108155  0.000176851 -2.62248e-07      21.5873 
         -25     0.123056  0.000177777 -3.33791e-07      21.5873 
         -25     0.138918  0.000178978 -4.12738e-07      21.5873 
         -25     0.155744  0.000180846 -4.98049e-07      21.5873 
         -25     0.173529  0.000182574 -5.88382e-07      21.5873 
         -25     0.192276  0.000183456 -6.82153e-07      21.5873 
         -25     0.211984  0.000183965 -7.77547e-07      21.5873 
         -25     0.232655  0.000185197 -8.72847e-07      21.5873 
         -25     0.254285  0.000185278 -9.67074e-07      21.5873 
         -25     0.276877  0.000185721 -1.05784e-06      21.5873 
         -25     0.300431   0.00018578 -1.14384e-06      21.5873 
         -25     0.324946  0.000185562 -1.22574e-06      21.5873 
         -25     0.350424  0.000185144 -1.30464e-06      21.5873 
         -25     0.376861  0.000184569 -1.38177e-06      21.5873 
         -25      0.40426  0.000183857 -1.45823e-06      21.5873 
         -25     0.432621  0.000183015 -1.53458e-06      21.5873 
         -25     0.461945  0.000182052  -1.6105e-06      21.5873 
         -25     0.492228  0.000180989 -1.68447e-06      21.5873 
         -25     0.523472  0.000179864 -1.75376e-06      21.5872 
         -25     0.555678  0.000178714 -1.81469e-06      21.5872 
         -25     0.588845  0.000177543 -1.86355e-06      21.5872 
         -25     0.622976  0.000176309 -1.89503e-06      21.5872 
         -25     0.658066  0.000175101 -1.91964e-06      21.5872 
         -25     0.694117  0.000173888 -1.94445e-06      21.5872 
         -25      0.73113  0.000172681  -1.9671e-06      21.5872 
         -25     0.769107  0.000171491 -1.98638e-06      21.5872 
         -25     0.808042  0.000170331 -2.00205e-06      21.5872 
         -25     0.847939  0.000169215 -2.01462e-06      21.5872 
         -25     0.888797  0.000168157 -2.02505e-06      21.5872 
         -25      0.93062   0.00016717  -2.0344e-06      21.5872 
         -25       0.9734  0.000166264 -2.04345e-06      21.5872 
         -25      1.01714  0.000165448 -2.05237e-06      21.5871 
         -25      1.06185  0.000164726 -2.06039e-06      21.5871 
         -25      1.10751  0.000164097 -2.06567e-06      21.5871 
         -25      1.15414  0.000163554 -2.06532e-06      21.5871 
         -25      1.20173  0.000163083 -2.05574e-06      21.5871 
         -25      1.25028  0.000162668 -2.03342e-06      21.5871 
         -25      1.29979  0.000162282 -1.99629e-06      21.5871 
         -25      1.35026  0.000161899 -1.94578e-06       21.587 
         -25       1.4017  0.000161493 -1.88991e-06       21.587 
         -25      1.45409  0.000161038 -1.84745e-06       21.587 
         -25      1.50745  0.000160522 -1.85021e-06       21.587 
         -25      1.56176  0.000159943 -1.73481e-06       21.587 
         -25      1.61705  0.000159434 -1.64305e-06      21.5869 
         -25      1.67329  0.000158959 -1.56627e-06      21.5869 
         -25      1.73049   0.00015849 -1.49656e-06      21.5869 
         -25      1.78865  0.000158009  -1.4268e-06      21.5868 
         -25      1.84778  0.000157507 -1.35069e-06      21.5868 
         -25      1.90786  0.000156981 -1.26271e-06      21.5868 
         -25      1.96891   0.00015644  -1.1581e-06      21.5868 
         -25      2.03092  0.000155898 -1.03276e-06      21.5867 
         -25      2.09389  0.000155373 -8.83232e-07      21.5867 
         -25      2.15782  0.000154891 -7.06593e-07      21.5866 
         -25      2.22272  0.000154478 -5.00299e-07      21.5866 
         -25      2.28857  0.000154163 -2.62137e-07      21.5866 
         -25      2.35539  0.000153975  9.94145e-09      21.5865 
         -25      2.42317  0.000153938  3.17931e-07      21.5865 
         -25      2.49191  0.000154074  6.63788e-07      21.5864 
         -25      2.56161  0.000154399  1.04966e-06      21.5864 
         -25      2.63226  0.000154919  1.47782e-06      21.5863 
         -25      2.70389  0.000155632  1.95078e-06      21.5863 
         -25      2.77648  0.000156526  2.47103e-06      21.5862 
         -25      2.85002  0.000157577  3.04116e-06      21.5862 
         -25      2.92453  0.000158751  3.66346e-06      21.5861 
         -25            3  0.000160001  4.33971e-06       21.586 
           0            0  2.75318e-15 -1.73487e-15      20.8294 
           0      0.00048  8.82743e-05  -5.5562e-05      20.8295 
           0     0.001922   0.00030571 -0.000191701      20.8297 
           0     0.004326  0.000536018 -0.000333545      20.8301 
           0      0.00769  0.000661383 -0.000405523      20.8304 
           0     0.012017  0.000632569 -0.000376785      20.8308 
           0     0.017304  0.000498585 -0.000280515      20.8311 
           0     0.023553  0.000371699 -0.000191166      20.8313 
           0     0.030763  0.000340135  -0.00016744      20.8315 
           0     0.038936   0.00038711 -0.000198644      20.8318 
           0     0.048069  0.000401018 -0.000209653      20.8322 
           0     0.058163  0.000322241  -0.00015568      20.8326 
           0     0.069219  0.000301294 -0.000130617      20.8329 
           0     0.081236  0.000351835 -0.000165069      20.8332 
           0     0.094215  0.000310911 -0.000135541      20.8336 
           0     0.108155  0.000310412 -0.000131543      20.8339 
           0     0.123056  0.000298568  -0.00012348      20.8343 
           0     0.138918  0.000289185 -0.000116944      20.8346 
           0     0.155744  0.000284607 -0.000112797       20.835 
           0     0.173529  0.000280353 -0.000109083      20.8354 
           0     0.192276  0.000272584 -0.000104114      20.8358 
           0     0.211984  0.000264173 -9.90101e-05      20.8361 
           0     0.232655  0.000261056 -9.62822e-05      20.8365 
           0     0.254285  0.000253656 -9.20922e-05      20.8369 
           0     0.276877  0.000248543 -8.86816e-05      20.8373 
           0     0.300431  0.000243316 -8.52702e-05      20.8377 
           0     0.324946  0.000238422 -8.20533e-05       20.838 
           0     0.350424  0.000233895 -7.89599e-05      20.8384 
           0     0.376861  0.000229686 -7.59684e-05      20.8388 
           0      0.40426  0.000225845 -7.30688e-05      20.8392 
           0     0.432621  0.000222348 -7.02601e-05      20.8396 
           0     0.461945  0.000219183 -6.75281e-05        20.84 
           0     0.492228  0.000216324 -6.48712e-05      20.8404 
           0     0.523472  0.000213743  -6.2284e-05      20.8408 
           0     0.555678  0.000211401 -5.97628e-05      20.8412 
           0     0.588845   0.00020925  -5.7301e-05      20.8416 
           0     0.622976  0.000207245 -5.48976e-05       20.842 
           0     0.658066   0.00020533 -5.25509e-05      20.8423 
           0     0.694117   0.00020345 -5.02592e-05      20.8427 
           0      0.73113  0.000201549 -4.80234e-05      20.8431 
           0     0.769107  0.000199572 -4.58399e-05      20.8435 
           0     0.808042   0.00019747  -4.3716e-05      20.8439 
           0     0.847939  0.000195202 -4.16359e-05      20.8443 
           0     0.888797  0.000192747 -3.96183e-05      20.8447 
           0      0.93062  0.000190094 -3.76545e-05       20.845 
           0       0.9734  0.000187227  -3.5741e-05      20.8454 
           0      1.01714  0.000184177 -3.38858e-05      20.8458 
           0      1.06185  0.000180975 -3.20834e-05      20.8462 
           0      1.10751  0.000177656  -3.0332e-05      20.8466 
           0      1.15414   0.00017426 -2.86346e-05      20.8469 
           0      1.20173  0.000170837  -2.6993e-05      20.8473 
           0      1.25028  0.000167465 -2.53919e-05      20.8477 
           0      1.29979  0.000164148 -2.38517e-05       20.848 
           0      1.35026  0.000160984 -2.23584e-05      20.8484 
           0       1.4017  0.000157988 -2.09129e-05      20.8488 
           0      1.45409  0.000155178 -1.95169e-05      20.8491 
           0      1.50745  0.000152597 -1.81683e-05      20.8495 
           0      1.56176  0.000150283 -1.68658e-05      20.8498 
           0      1.61705  0.000148256 -1.56116e-05      20.8502 
           0      1.67329  0.000146502 -1.44113e-05      20.8505 
           0      1.73049  0.000144958 -1.32667e-05      20.8509 
           0      1.78865    0.0001436  -1.2175e-05      20.8512 
           0      1.84778  0.000142477 -1.11399e-05      20.8516 
           0      1.90786  0.000141369 -1.01626e-05      20.8519 
           0      1.96891  0.000140258 -9.23371e-06      20.8522 
           0      2.03092  0.000139113 -8.36852e-06      20.8526 
           0      2.09389  0.000137925 -7.56569e-06      20.8529 
           0      2.15782  0.000136732 -6.80775e-06      20.8532 
           0      2.22272  0.000135601 -6.06927e-06      20.8535 
           0      2.28857  0.000134618 -5.32495e-06      20.8539 
           0      2.35539  0.000133871 -4.55551e-06      20.8542 
           0      2.42317  0.000133435 -3.75139e-06      20.8545 
           0      2.49191  0.000133356  -2.9129e-06      20.8548 
           0      2.56161  0.000133629 -2.04517e-06      20.8551 
           0      2.63226  0.000134233  -1.1598e-06      20.8554 
           0      2.70389  0.000135179 -2.40173e-07      20.8557 
           0      2.77648  0.000136435  6.64454e-07       20.856 
           0      2.85002  0.000137897  1.45701e-06      20.8563 
           0      2.92453  0.000139342  2.39691e-06      20.8566 
           0            3  0.000140957  3.16283e-06      20.8568 
          20            0  1.79566e-19  1.03947e-23      20.3942 
          20      0.00048  1.78974e-05  9.94593e-10      20.3942 
          20     0.001922  6.34663e-05  2.98409e-09      20.3942 
          20     0.004326  0.000116516  3.05453e-09      20.3942 
          20      0.00769   0.00015586 -3.39167e-09      20.3942 
          20     0.012017  0.000171087 -2.23507e-08      20.3942 
          20     0.017304   0.00016797 -6.09013e-08      20.3942 
          20     0.023553  0.000163669 -1.27016e-07      20.3942 
          20     0.030763  0.000173153 -2.29315e-07      20.3942 
          20     0.038936  0.000195873 -3.76852e-07      20.3942 
          20     0.048069  0.000215879 -5.78433e-07      20.3942 
          20     0.058163  0.000223187 -8.41855e-07      20.3942 
          20     0.069219  0.000238681 -1.17275e-06      20.3942 
          20     0.081236  0.000265892 -1.57411e-06      20.3942 
          20     0.094215  0.000280419  -2.0504e-06      20.3942 
          20     0.108155  0.000300846 -2.60278e-06      20.3942 
          20     0.123056  0.000319527 -3.22971e-06      20.3942 
          20     0.138918  0.000338093 -3.92877e-06      20.3942 
          20     0.155744  0.000356554 -4.69667e-06      20.3942 
          20     0.173529  0.000373953 -5.52863e-06      20.3942 
          20     0.192276  0.000389451 -6.41907e-06      20.3942 
          20     0.211984  0.000403216 -7.36106e-06      20.3942 
          20     0.232655  0.000415993 -8.34737e-06      20.3942 
          20     0.254285  0.000426182 -9.37254e-06      20.3942 
          20     0.276877  0.000434923 -1.04296e-05      20.3942 
          20     0.300431  0.000441783 -1.15076e-05      20.3941 
          20     0.324946  0.000446961 -1.25985e-05      20.3941 
          20     0.350424  0.000450735 -1.36908e-05      20.3941 
          20     0.376861  0.000453446 -1.47659e-05      20.3941 
          20      0.40426  0.000455466 -1.58078e-05      20.3941 
          20     0.432621   0.00045718 -1.67957e-05      20.3941 
          20     0.461945  0.000458934 -1.77077e-05      20.3941 
          20     0.492228  0.000461002 -1.85226e-05      20.3941 
          20     0.523472  0.000463541 -1.92228e-05      20.3941 
          20     0.555678  0.000466558 -1.97963e-05      20.3941 
          20     0.588845  0.000469892 -2.02393e-05      20.3941 
          20     0.622976  0.000473209 -2.05572e-05      20.3941 
          20     0.658066  0.000476046 -2.07653e-05      20.3941 
          20     0.694117  0.000477893 -2.08868e-05      20.3941 
          20      0.73113   0.00047835 -2.09478e-05       20.394 
          20     0.769107   0.00047709 -2.09749e-05       20.394 
          20     0.808042  0.000473854 -2.09905e-05       20.394 
          20     0.847939   0.00046859  -2.1008e-05       20.394 
          20     0.888797  0.000461357 -2.10378e-05       20.394 
          20      0.93062  0.000452303 -2.10853e-05       20.394 
          20       0.9734  0.000441639   -2.115e-05       20.394 
          20      1.01714    0.0004296 -2.12265e-05      20.3939 
          20      1.06185  0.000416422   -2.131e-05      20.3939 
          20      1.10751  0.000402305 -2.13926e-05      20.3939 
          20      1.15414  0.000387425 -2.14683e-05      20.3939 
          20      1.20173  0.000371916 -2.15315e-05      20.3938 
          20      1.25028  0.000355873 -2.15801e-05      20.3938 
          20      1.29979  0.000339409 -2.16094e-05      20.3938 
          20      1.35026  0.000322571 -2.16137e-05      20.3938 
          20       1.4017  0.000305428 -2.15902e-05      20.3937 
          20      1.45409  0.000288052 -2.15379e-05      20.3937 
          20      1.50745  0.000270522  -2.1456e-05      20.3937 
          20      1.56176  0.000252912 -2.13435e-05      20.3936 
          20      1.61705  0.000235295 -2.11983e-05      20.3936 
          20      1.67329  0.000217769 -2.10207e-05      20.3935 
          20      1.73049  0.000200466 -2.08134e-05      20.3935 
          20      1.78865  0.000183493 -2.05673e-05      20.3935 
          20      1.84778   0.00016702 -2.02809e-05      20.3934 
          20      1.90786  0.000151144 -1.99606e-05      20.3934 
          20      1.96891     0.000136 -1.96063e-05      20.3933 
          20      2.03092   0.00012171 -1.92166e-05      20.3933 
          20      2.09389   0.00010838 -1.87898e-05      20.3932 
          20      2.15782  9.61397e-05 -1.83221e-05      20.3932 
          20      2.22272  8.50454e-05   -1.781e-05      20.3931 
          20      2.28857   7.5123e-05 -1.72516e-05       20.393 
          20      2.35539  6.64155e-05   -1.665e-05       20.393 
          20      2.42317  5.89044e-05 -1.60169e-05      20.3929 
          20      2.49191   5.2487e-05 -1.53633e-05      20.3928 
          20      2.56161  4.70422e-05 -1.47092e-05      20.3928 
          20      2.63226  4.25651e-05 -1.40778e-05      20.3927 
          20      2.70389  3.88742e-05 -1.34289e-05      20.3926 
          20      2.77648  3.59644e-05 -1.27692e-05      20.3925 
          20      2.85002  3.38779e-05 -1.20887e-05      20.3925 
          20      2.92453  3.25162e-05 -1.13512e-05      20.3924 
          20            3  3.17645e-05 -1.05533e-05      20.3923 
          40            0           -0           -0      19.9142 
          40      0.00048  1.60551e-05 -1.06803e-12      19.9142 
          40     0.001922  5.70065e-05 -1.76455e-09      19.9142 
          40     0.004326  0.000104929 -1.04804e-08      19.9142 
          40      0.00769   0.00014104 -3.44668e-08      19.9142 
          40     0.012017   0.00015617 -8.47652e-08      19.9142 
          40     0.017304  0.000155566 -1.74448e-07      19.9142 
          40     0.023553  0.000154615 -3.18019e-07      19.9142 
          40     0.030763  0.000166737 -5.30492e-07      19.9142 
          40     0.038936  0.000191516 -8.26653e-07      19.9142 
          40     0.048069  0.000214787 -1.21987e-06      19.9142 
          40     0.058163  0.000227659 -1.72149e-06      19.9142 
          40     0.069219  0.000248678 -2.33984e-06      19.9142 
          40     0.081236  0.000280893 -3.07938e-06      19.9142 
          40     0.094215  0.000302454 -3.94127e-06      19.9142 
          40     0.108155  0.000329734 -4.92229e-06      19.9142 
          40     0.123056  0.000355743 -6.01477e-06      19.9142 
          40     0.138918  0.000381743 -7.20771e-06      19.9142 
          40     0.155744  0.000407554 -8.48739e-06      19.9142 
          40     0.173529  0.000432145 -9.83715e-06      19.9141 
          40     0.192276  0.000454634 -1.12392e-05      19.9141 
          40     0.211984  0.000475065  -1.2675e-05      19.9141 
          40     0.232655  0.000494025 -1.41269e-05      19.9141 
          40     0.254285  0.000510023 -1.55809e-05      19.9141 
          40     0.276877  0.000524123 -1.70195e-05      19.9141 
          40     0.300431  0.000535814 -1.84331e-05      19.9141 
          40     0.324946   0.00054528  -1.9818e-05      19.9141 
          40     0.350424  0.000552707 -2.11719e-05      19.9141 
          40     0.376861  0.000558275 -2.24945e-05      19.9141 
          40      0.40426  0.000562149 -2.37893e-05      19.9141 
          40     0.432621  0.000564471 -2.50641e-05      19.9141 
          40     0.461945  0.000565356 -2.63317e-05      19.9141 
          40     0.492228   0.00056489 -2.76088e-05      19.9141 
          40     0.523472  0.000563129 -2.89149e-05      19.9141 
          40     0.555678  0.000560092 -3.02663e-05      19.9141 
          40     0.588845  0.000555751 -3.16681e-05      19.9141 
          40     0.622976    0.0005501   -3.311e-05      19.9141 
          40     0.658066  0.000543116 -3.46674e-05      19.9141 
          40     0.694117  0.000534731   -3.634e-05      19.9141 
          40      0.73113  0.000525035 -3.81019e-05      19.9141 
          40     0.769107  0.000514128 -3.99328e-05      19.9141 
          40     0.808042  0.000502131 -4.18174e-05      19.9141 
          40     0.847939  0.000489167 -4.37448e-05      19.9141 
          40     0.888797  0.000475363 -4.57067e-05      19.9141 
          40      0.93062  0.000460843 -4.76956e-05      19.9141 
          40       0.9734  0.000445725 -4.97026e-05      19.9141 
          40      1.01714  0.000430107 -5.17162e-05      19.9141 
          40      1.06185  0.000414073   -5.372e-05      19.9141 
          40      1.10751  0.000397679 -5.56925e-05      19.9141 
          40      1.15414  0.000380961 -5.76066e-05      19.9141 
          40      1.20173  0.000363932 -5.94321e-05      19.9141 
          40      1.25028   0.00034659 -6.11399e-05      19.9141 
          40      1.29979  0.000328929 -6.27093e-05      19.9141 
          40      1.35026   0.00031096 -6.41401e-05      19.9141 
          40       1.4017  0.000292742 -6.54685e-05      19.9141 
          40      1.45409   0.00027442 -6.67919e-05      19.9141 
          40      1.50745  0.000256275 -6.82846e-05      19.9141 
          40      1.56176  0.000238017  -6.9158e-05      19.9141 
          40      1.61705  0.000219543 -6.99493e-05      19.9141 
          40      1.67329  0.000200999 -7.06476e-05      19.9141 
          40      1.73049  0.000182526 -7.12437e-05       19.914 
          40      1.78865  0.000164265 -7.17293e-05       19.914 
          40      1.84778  0.000146348 -7.20972e-05       19.914 
          40      1.90786   0.00012891 -7.23413e-05       19.914 
          40      1.96891   0.00011207 -7.24568e-05       19.914 
          40      2.03092  9.59462e-05 -7.24399e-05       19.914 
          40      2.09389  8.06428e-05 -7.22873e-05       19.914 
          40      2.15782  6.62599e-05 -7.19971e-05       19.914 
          40      2.22272  5.28819e-05 -7.15676e-05       19.914 
          40      2.28857  4.05838e-05 -7.09979e-05       19.914 
          40      2.35539  2.94273e-05 -7.02874e-05       19.914 
          40      2.42317  1.94605e-05 -6.94357e-05      19.9139 
          40      2.49191  1.07197e-05 -6.84431e-05      19.9139 
          40      2.56161  3.22437e-06 -6.73095e-05      19.9139 
          40      2.63226 -3.02029e-06 -6.60351e-05      19.9139 
          40      2.70389 -8.02496e-06 -6.46202e-05      19.9139 
          40      2.77648 -1.18147e-05 -6.30656e-05      19.9139 
          40      2.85002 -1.44322e-05 -6.13726e-05      19.9139 
          40      2.92453 -1.59357e-05 -5.95432e-05      19.9138 
          40            3    -1.64e-05 -5.75806e-05      19.9138 
          60            0           -0           -0      19.4637 
          60      0.00048  1.53926e-05  5.88122e-11      19.4637 
          60     0.001922  5.46154e-05 -2.02982e-11      19.4637 
          60     0.004326  0.000100371 -9.52253e-10      19.4637 
          60      0.00769  0.000134476 -3.75553e-09      19.4637 
          60     0.012017  0.000147914 -9.52258e-09      19.4637 
          60     0.017304  0.000145462 -1.91197e-08      19.4637 
          60     0.023553  0.000141599  -3.2889e-08      19.4637 
          60     0.030763  0.000148927 -5.03358e-08      19.4637 
          60     0.038936  0.000166802 -6.98804e-08      19.4637 
          60     0.048069  0.000181445 -8.86405e-08      19.4637 
          60     0.058163  0.000184198  -1.0233e-07      19.4637 
          60     0.069219  0.000192795 -1.05209e-07      19.4637 
          60     0.081236  0.000210204 -9.01411e-08      19.4637 
          60     0.094215  0.000215602 -4.93551e-08      19.4637 
          60     0.108155  0.000224916  2.55596e-08      19.4637 
          60     0.123056  0.000231751  1.43612e-07      19.4637 
          60     0.138918  0.000237683  3.13181e-07      19.4637 
          60     0.155744  0.000242949  5.41721e-07      19.4637 
          60     0.173529  0.000247004  8.35425e-07      19.4637 
          60     0.192276  0.000249426  1.19933e-06      19.4637 
          60     0.211984  0.000250667  1.63691e-06      19.4637 
          60     0.232655   0.00025165  2.14944e-06      19.4637 
          60     0.254285  0.000251249  2.73403e-06      19.4637 
          60     0.276877  0.000250726  3.39265e-06      19.4637 
          60     0.300431  0.000249763  4.12057e-06      19.4637 
          60     0.324946  0.000248631  4.90921e-06      19.4637 
          60     0.350424  0.000247562  5.75178e-06      19.4637 
          60     0.376861   0.00024674  6.64214e-06      19.4637 
          60      0.40426  0.000246296  7.57402e-06      19.4637 
          60     0.432621  0.000246312  8.53935e-06      19.4637 
          60     0.461945   0.00024682   9.5271e-06      19.4637 
          60     0.492228  0.000247808  1.05227e-05      19.4637 
          60     0.523472   0.00024922  1.15096e-05      19.4637 
          60     0.555678  0.000250942  1.24725e-05      19.4637 
          60     0.588845  0.000252775  1.34055e-05      19.4637 
          60     0.622976  0.000254351  1.43048e-05      19.4637 
          60     0.658066  0.000255621  1.51023e-05      19.4637 
          60     0.694117   0.00025625  1.57902e-05      19.4637 
          60      0.73113   0.00025578  1.63599e-05      19.4636 
          60     0.769107  0.000253882  1.68014e-05      19.4636 
          60     0.808042  0.000250364  1.71038e-05      19.4636 
          60     0.847939  0.000245167  1.72575e-05      19.4636 
          60     0.888797  0.000238363  1.72552e-05      19.4636 
          60      0.93062  0.000230136  1.70936e-05      19.4636 
          60       0.9734  0.000220768   1.6775e-05      19.4636 
          60      1.01714  0.000210606  1.63086e-05      19.4636 
          60      1.06185  0.000200036  1.57113e-05      19.4636 
          60      1.10751  0.000189443  1.50075e-05      19.4636 
          60      1.15414   0.00017918  1.42283e-05      19.4636 
          60      1.20173  0.000169533  1.34091e-05      19.4636 
          60      1.25028  0.000160689  1.25841e-05      19.4636 
          60      1.29979  0.000152719  1.17798e-05      19.4636 