Variables = x, y, u, v, p

Zone, I=800, F=POINT
          50            0  2.53438e-18  2.32722e-29 -0.000185442 
          50     0.000234    0.0001282  4.00714e-11 -0.000185442 
          50     0.000939  0.000514443  6.45176e-10 -0.000185441 
          50     0.002113   0.00115763  3.26639e-09 -0.000185439 
          50     0.003759    0.0020594  1.03349e-08 -0.000185436 
          50     0.005872   0.00321699  2.52114e-08 -0.000185433 
          50     0.008457   0.00463316  5.22745e-08  -0.00018543 
          50      0.01151   0.00630567  9.67852e-08 -0.000185425 
          50     0.015036   0.00823727   1.6508e-07  -0.00018542 
          50     0.019031    0.0104257  2.64297e-07 -0.000185414 
          50     0.023493      0.01287  4.02489e-07 -0.000185408 
          50     0.028429    0.0155737  5.88948e-07 -0.000185401 
          50     0.033831    0.0185327  8.33352e-07 -0.000185393 
          50     0.039706    0.0217505   1.1469e-06 -0.000185384 
          50     0.046047    0.0252235  1.54097e-06 -0.000185375 
          50     0.052863    0.0289564  2.02881e-06 -0.000185365 
          50      0.06015     0.032947  2.62374e-06 -0.000185355 
          50       0.0679    0.0371909  3.33938e-06 -0.000185344 
          50     0.076126     0.041695  4.19211e-06 -0.000185332 
          50     0.084816    0.0464528  5.19666e-06  -0.00018532 
          50     0.093982    0.0514707  6.37119e-06 -0.000185307 
          50     0.103611    0.0567414   7.7315e-06 -0.000185294 
          50     0.113718     0.062273  9.29795e-06 -0.000185279 
          50     0.124286    0.0680559  1.10867e-05 -0.000185265 
          50     0.135333    0.0740998  1.31205e-05 -0.000185249 
          50      0.14685    0.0803995  1.54177e-05 -0.000185233 
          50     0.158827     0.086949  1.79968e-05 -0.000185216 
          50     0.171284    0.0937591  2.08831e-05 -0.000185199 
          50     0.184201     0.100818  2.40933e-05 -0.000185181 
          50     0.197599     0.108137  2.76544e-05 -0.000185162 
          50     0.211455     0.115703  3.15822e-05 -0.000185143 
          50     0.225792     0.123527   3.5905e-05 -0.000185123 
          50       0.2406     0.131604   4.0642e-05 -0.000185102 
          50     0.255865     0.139924  4.58103e-05  -0.00018508 
          50     0.271613     0.148501  5.14399e-05 -0.000185057 
          50     0.287818     0.157319  5.75427e-05 -0.000185034 
          50     0.304506      0.16639  6.41487e-05 -0.000185009 
          50      0.32165     0.175699  7.12667e-05 -0.000184984 
          50     0.339278     0.185258  7.89269e-05 -0.000184957 
          50     0.357377     0.195059  8.71413e-05 -0.000184928 
          50      0.37593      0.20509  9.59179e-05 -0.000184899 
          50     0.394968     0.215365  0.000105285 -0.000184868 
          50     0.414461     0.225864  0.000115242 -0.000184835 
          50      0.43444     0.236603  0.000125814   -0.0001848 
          50     0.454872     0.247558  0.000136992 -0.000184763 
          50     0.475791     0.258745  0.000148802 -0.000184723 
          50     0.497163     0.270142  0.000161229 -0.000184681 
          50     0.519021     0.281761  0.000174292 -0.000184637 
          50      0.54135     0.293591  0.000187983 -0.000184589 
          50     0.564131     0.305615  0.000202287 -0.000184538 
          50       0.5874     0.317848  0.000217221 -0.000184484 
          50     0.611121     0.330266  0.000232754 -0.000184425 
          50      0.63533      0.34288  0.000248902 -0.000184362 
          50      0.65999     0.355666  0.000265629 -0.000184295 
          50     0.685139     0.368638   0.00028295 -0.000184222 
          50     0.710759     0.381778  0.000300841 -0.000184145 
          50     0.736828     0.395068  0.000319275 -0.000184061 
          50     0.763387     0.408523  0.000338269 -0.000183972 
          50     0.790396     0.422115  0.000357785 -0.000183876 
          50     0.817896     0.435855  0.000377844 -0.000183773 
          50     0.845843     0.449714  0.000398407 -0.000183663 
          50     0.874283     0.463706  0.000419505 -0.000183545 
          50      0.90317     0.477799  0.000441101 -0.000183419 
          50     0.932551     0.492007  0.000463233 -0.000183284 
          50     0.962401     0.506306  0.000485887 -0.000183141 
          50     0.992697     0.520674  0.000509049 -0.000182988 
          50      1.02349     0.535125  0.000532764 -0.000182825 
          50      1.05472      0.54962  0.000557001 -0.000182653 
          50      1.08645      0.56417  0.000581808 -0.000182469 
          50      1.11863     0.578738  0.000607149 -0.000182275 
          50       1.1513      0.59333  0.000633069 -0.000182069 
          50      1.18444      0.60792  0.000659547 -0.000181851 
          50      1.21802     0.622477  0.000686556 -0.000181621 
          50      1.25211     0.637006  0.000714128 -0.000181378 
          50      1.28663     0.651465  0.000742201 -0.000181122 
          50      1.32165     0.665856  0.000770796 -0.000180852 
          50      1.35712     0.680135  0.000799834 -0.000180569 
          50      1.39308     0.694303   0.00082932 -0.000180271 
          50      1.42951     0.708327  0.000859186 -0.000179958 
          50      1.46638     0.722172  0.000889352 -0.000179631 
          50      1.50375     0.735838  0.000919808 -0.000179288 
          50      1.54156     0.749281  0.000950447 -0.000178929 
          50      1.57987     0.762499   0.00098124 -0.000178554 
          50      1.61863      0.77545   0.00101207 -0.000178163 
          50      1.65788     0.788133   0.00104291 -0.000177756 
          50      1.69757     0.800506   0.00107363 -0.000177332 
          50      1.73776     0.812571   0.00110421 -0.000176891 
          50      1.77842     0.824297   0.00113455 -0.000176434 
          50      1.81952     0.835659   0.00116454 -0.000175959 
          50      1.86113     0.846659   0.00119416 -0.000175468 
          50      1.90316     0.857264   0.00122327  -0.00017496 
          50      1.94571     0.867477   0.00125186 -0.000174435 
          50      1.98869     0.877271   0.00127981 -0.000173894 
          50      2.03217     0.886653   0.00130709 -0.000173336 
          50      2.07612     0.895605   0.00133362 -0.000172762 
          50      2.12051     0.904117    0.0013593 -0.000172172 
          50       2.1654     0.912197   0.00138414 -0.000171566 
          50      2.21073     0.919832   0.00140804 -0.000170945 
          50      2.25656     0.927035   0.00143099 -0.000170309 
          50      2.30283     0.933795   0.00145292 -0.000169658 
          50       2.3496      0.94013   0.00147383 -0.000168993 
          50      2.39685      0.94604   0.00149367 -0.000168314 
          50      2.44452     0.951529   0.00151242 -0.000167622 
          50      2.49271     0.956616    0.0015301 -0.000166916 
          50      2.54132     0.961306   0.00154666 -0.000166199 
          50      2.59044     0.965619   0.00156214 -0.000165469 
          50         2.64     0.969564   0.00157653 -0.000164728 
          50      2.69006     0.973162   0.00158987 -0.000163975 
          50      2.74056     0.976427   0.00160214 -0.000163213 
          50      2.79156     0.979379   0.00161342  -0.00016244 
          50      2.84304     0.982035    0.0016237 -0.000161657 
          50      2.89494     0.984413   0.00163304 -0.000160865 
          50      2.94735     0.986535   0.00164149 -0.000160064 
          50       3.0002     0.988417   0.00164907 -0.000159255 
          50      3.05355     0.990081   0.00165585 -0.000158437 
          50      3.10733     0.991542   0.00166187 -0.000157612 
          50      3.16163     0.992821   0.00166719  -0.00015678 
          50      3.21639     0.993934   0.00167186  -0.00015594 
          50      3.27158     0.994897   0.00167593 -0.000155094 
          50      3.32729     0.995726   0.00167945 -0.000154241 
          50      3.38342     0.996436   0.00168248 -0.000153383 
          50      3.44007     0.997041   0.00168505 -0.000152517 
          50      3.49714     0.997552   0.00168721 -0.000151647 
          50      3.55472     0.997983   0.00168901  -0.00015077 
          50      3.61273     0.998344   0.00169049 -0.000149889 
          50      3.67125     0.998644   0.00169169 -0.000149002 
          50      3.73025     0.998892   0.00169265  -0.00014811 
          50      3.78967     0.999096   0.00169339 -0.000147213 
          50      3.84961     0.999263   0.00169394 -0.000146312 
          50      3.90996     0.999398   0.00169433 -0.000145406 
          50      3.97084     0.999507   0.00169459 -0.000144495 
          50      4.03214     0.999594   0.00169473  -0.00014358 
          50      4.09395     0.999663   0.00169478  -0.00014266 
          50      4.15624     0.999718   0.00169474 -0.000141736 
          50      4.21895      0.99976   0.00169464 -0.000140809 
          50      4.28217     0.999793   0.00169447 -0.000139877 
          50      4.34582     0.999819   0.00169426 -0.000138941 
          50      4.40998     0.999838   0.00169401 -0.000138001 
          50      4.47457     0.999853   0.00169373 -0.000137057 
          50      4.53968     0.999864   0.00169343  -0.00013611 
          50      4.60525     0.999872   0.00169309 -0.000135162 
          50      4.67125     0.999878   0.00169275 -0.000134203 
          50      4.73777     0.999882   0.00169239 -0.000133246 
          50       4.8047     0.999885   0.00169201 -0.000132287 
          50      4.87216     0.999886   0.00169162 -0.000131323 
          50      4.94003     0.999888   0.00169122 -0.000130356 
          50      5.00843     0.999888   0.00169082 -0.000129385 
          50      5.07724     0.999888    0.0016904 -0.000128411 
          50      5.14658     0.999888   0.00168998 -0.000127434 
          50      5.21639     0.999888   0.00168955 -0.000126454 
          50      5.28661     0.999888   0.00168912 -0.000125472 
          50      5.35736     0.999887   0.00168868 -0.000124488 
          50      5.42852     0.999887   0.00168823   -0.0001235 
          50      5.50021     0.999886   0.00168778  -0.00012251 
          50      5.57231     0.999885   0.00168732 -0.000121517 
          50      5.64493     0.999885   0.00168686 -0.000120522 
          50      5.71803     0.999884   0.00168639 -0.000119524 
          50      5.79154     0.999883   0.00168591 -0.000118525 
          50      5.86558     0.999882   0.00168543 -0.000117522 
          50      5.94003     0.999882   0.00168495 -0.000116519 
          50      6.01501     0.999881   0.00168445 -0.000115512 
          50       6.0904      0.99988   0.00168395 -0.000114503 
          50      6.16632     0.999879   0.00168345 -0.000113495 
          50      6.24271     0.999879   0.00168295 -0.000112485 
          50       6.3195     0.999878   0.00168243 -0.000111474 
          50      6.39683     0.999877   0.00168191  -0.00011046 
          50      6.47457     0.999877   0.00168138 -0.000109444 
          50      6.55284     0.999876   0.00168085 -0.000108425 
          50      6.63152     0.999875   0.00168032 -0.000107404 
          50      6.71073     0.999874   0.00167978 -0.000106382 
          50      6.79034     0.999874   0.00167923  -0.00010536 
          50      6.87049     0.999873   0.00167867 -0.000104337 
          50      6.95111     0.999872   0.00167811 -0.000103315 
          50      7.03214     0.999871   0.00167755 -0.000102288 
          50       7.1137     0.999871   0.00167697 -0.000101262 
          50      7.19566      0.99987    0.0016764 -0.000100237 
          50      7.27816     0.999869   0.00167582  -9.9211e-05 
          50      7.36106     0.999868   0.00167523  -9.8185e-05 
          50      7.44451     0.999868   0.00167464 -9.71573e-05 
          50      7.52842     0.999867   0.00167404 -9.61286e-05 
          50      7.61273     0.999866   0.00167343    -9.51e-05 
          50      7.69758     0.999866   0.00167282 -9.40701e-05 
          50      7.78283     0.999865    0.0016722 -9.30409e-05 
          50      7.86862     0.999864   0.00167158 -9.20107e-05 
          50      7.95481     0.999863   0.00167095  -9.0981e-05 
          50      8.04155     0.999863   0.00167032 -8.99522e-05 
          50      8.12868     0.999862   0.00166969 -8.89272e-05 
          50      8.21635     0.999861   0.00166904 -8.79013e-05 
          50      8.30449     0.999861   0.00166838 -8.68747e-05 
          50      8.39303      0.99986   0.00166773 -8.58484e-05 
          50      8.48211     0.999859   0.00166707 -8.48214e-05 
          50      8.57159     0.999858    0.0016664 -8.37959e-05 
          50      8.66161     0.999858   0.00166573 -8.27708e-05 
          50      8.75203     0.999857   0.00166505 -8.17482e-05 
          50      8.84299     0.999856   0.00166436 -8.07264e-05 
          50      8.93443     0.999856   0.00166367 -7.97062e-05 
          50      9.02626     0.999855   0.00166297 -7.86879e-05 
          50      9.11863     0.999854   0.00166227 -7.76695e-05 
          50      9.21139     0.999854   0.00166156 -7.66522e-05 
          50      9.30471     0.999853   0.00166085 -7.56343e-05 
          50      9.39841     0.999852   0.00166014 -7.46177e-05 
          50      9.49267     0.999851   0.00165942 -7.36016e-05 
          50      9.58739     0.999851   0.00165869 -7.25887e-05 
          50      9.68251      0.99985   0.00165796 -7.15822e-05 
          50      9.77817     0.999849   0.00165722 -7.05844e-05 
          50      9.87422     0.999849   0.00165647 -6.95692e-05 
          50      9.97083     0.999848   0.00165576 -6.85605e-05 
          50      10.0678     0.999848   0.00165494 -6.75476e-05 
          50      10.1654     0.999847    0.0016542   -6.655e-05 
          50      10.2633     0.999846   0.00165345 -6.55501e-05 
          50      10.3618     0.999846   0.00165268  -6.4552e-05 
          50      10.4607     0.999845    0.0016519 -6.35589e-05 
          50      10.5601     0.999844   0.00165111 -6.25715e-05 
          50        10.66     0.999844   0.00165033 -6.15873e-05 
          50      10.7603     0.999843   0.00164954 -6.06068e-05 
          50      10.8611     0.999842   0.00164876  -5.9627e-05 
          50      10.9623     0.999842   0.00164797 -5.86491e-05 
          50      11.0641     0.999841   0.00164717 -5.76713e-05 
          50      11.1663     0.999841   0.00164636 -5.66948e-05 
          50       11.269      0.99984   0.00164553 -5.57214e-05 
          50      11.3721     0.999839    0.0016447 -5.47504e-05 
          50      11.4757     0.999839   0.00164387  -5.3784e-05 
          50      11.5798     0.999838   0.00164303 -5.28213e-05 
          50      11.6844     0.999838   0.00164221 -5.18633e-05 
          50      11.7894     0.999837   0.00164139 -5.09079e-05 
          50       11.895     0.999836   0.00164057 -4.99546e-05 
          50      12.0009     0.999836   0.00163973 -4.90034e-05 
          50      12.1073     0.999835   0.00163887 -4.80529e-05 
          50      12.2142     0.999835   0.00163799 -4.71078e-05 
          50      12.3216     0.999834   0.00163713 -4.61748e-05 
          50      12.4294     0.999834   0.00163631 -4.52535e-05 
          50      12.5378     0.999833   0.00163539 -4.43158e-05 
          50      12.6465     0.999833   0.00163451 -4.33916e-05 
          50      12.7558     0.999832   0.00163365 -4.24741e-05 
          50      12.8656     0.999832   0.00163279 -4.15609e-05 
          50      12.9757     0.999831   0.00163192 -4.06508e-05 
          50      13.0864     0.999831   0.00163104 -3.97416e-05 
          50      13.1975      0.99983   0.00163014 -3.88351e-05 
          50      13.3092      0.99983   0.00162923 -3.79304e-05 
          50      13.4212     0.999829   0.00162832 -3.70299e-05 
          50      13.5338     0.999829    0.0016274 -3.61329e-05 
          50      13.6468     0.999828   0.00162649 -3.52404e-05 
          50      13.7603     0.999828   0.00162559 -3.43528e-05 
          50      13.8743     0.999827   0.00162468 -3.34745e-05 
          50      13.9886     0.999827   0.00162376 -3.26047e-05 
          50      14.1036     0.999826   0.00162285 -3.17386e-05 
          50      14.2189     0.999826   0.00162194 -3.08773e-05 
          50      14.3348     0.999825   0.00162102 -3.00192e-05 
          50       14.451     0.999825    0.0016201 -2.91657e-05 
          50      14.5678     0.999824   0.00161916 -2.83153e-05 
          50      14.6851     0.999824   0.00161822  -2.7469e-05 
          50      14.8028     0.999824   0.00161727 -2.66276e-05 
          50       14.921     0.999823   0.00161632 -2.57903e-05 
          50      15.0396     0.999823   0.00161538  -2.4959e-05 
          50      15.1588     0.999822   0.00161443 -2.41327e-05 
          50      15.2783     0.999822   0.00161349 -2.33132e-05 
          50      15.3984     0.999822   0.00161254 -2.24991e-05 
          50       15.519     0.999821   0.00161159 -2.16903e-05 
          50        15.64     0.999821   0.00161065 -2.08852e-05 
          50      15.7615     0.999821   0.00160968 -2.00876e-05 
          50      15.8834      0.99982   0.00160873 -1.92958e-05 
          50      16.0058      0.99982   0.00160778 -1.85073e-05 
          50      16.1286      0.99982   0.00160682 -1.77237e-05 
          50       16.252     0.999819   0.00160584 -1.69442e-05 
          50      16.3759     0.999819   0.00160487   -1.617e-05 
          50      16.5002     0.999819   0.00160389 -1.54024e-05 
          50       16.625     0.999818   0.00160291 -1.46409e-05 
          50      16.7501     0.999818   0.00160194  -1.3887e-05 
          50      16.8759     0.999818   0.00160097 -1.31396e-05 
          50       17.002     0.999817       0.0016    -1.24e-05 
          50      17.1287     0.999817   0.00159903 -1.16665e-05 
          50      17.2557     0.999817   0.00159805 -1.09399e-05 
          50      17.3834     0.999817   0.00159707 -1.02183e-05 
          50      17.5115     0.999816   0.00159608 -9.50157e-06 
          50      17.6399     0.999816   0.00159508 -8.78953e-06 
          50       17.769     0.999816   0.00159408 -8.08062e-06 
          50      17.8984     0.999816   0.00159308 -7.37593e-06 
          50      18.0284     0.999815   0.00159207 -6.67488e-06 
          50      18.1587     0.999815   0.00159108 -5.98002e-06 
          50      18.2896     0.999815   0.00159011 -5.29272e-06 
          50       18.421     0.999815   0.00158916 -4.61745e-06 
          50      18.5528     0.999815   0.00158819 -3.93203e-06 
          50      18.6851     0.999814    0.0015872  -3.2449e-06 
          50      18.8178     0.999814   0.00158622 -2.56957e-06 
          50      18.9511     0.999814   0.00158524 -1.90583e-06 
          50      19.0847     0.999814   0.00158424 -1.25525e-06 
          50      19.2189     0.999814   0.00158322 -6.16684e-07 
          50      19.3535     0.999814   0.00158219  9.70128e-09 
          50      19.4886     0.999813   0.00158118  6.26771e-07 
          50      19.6242     0.999813   0.00158025  1.23718e-06 
          50      19.7602     0.999813   0.00157932  1.86094e-06 
          50      19.8968     0.999813   0.00157822  2.49748e-06 
          50      20.0337     0.999813   0.00157722  3.11577e-06 
          50      20.1712     0.999813   0.00157626  3.72076e-06 
          50      20.3091     0.999813    0.0015753  4.31452e-06 
          50      20.4475     0.999813   0.00157433  4.90004e-06 
          50      20.5864     0.999813   0.00157334  5.47778e-06 
          50      20.7257     0.999812    0.0015723  6.04707e-06 
          50      20.8655     0.999812   0.00157131  6.62183e-06 
          50      21.0058     0.999812   0.00157036  7.20168e-06 
          50      21.1465     0.999812   0.00156937  7.77454e-06 
          50      21.2877     0.999812   0.00156837  8.33849e-06 
          50      21.4294     0.999812   0.00156737  8.89414e-06 
          50      21.5716     0.999812   0.00156636  9.44121e-06 
          50      21.7142     0.999812   0.00156537  9.97978e-06 
          50      21.8573     0.999812   0.00156439  1.05114e-05 
          50      22.0008     0.999812   0.00156341   1.1036e-05 
          50      22.1449     0.999812   0.00156244   1.1555e-05 
          50      22.2893     0.999812   0.00156147  1.20684e-05 
          50      22.4344     0.999812    0.0015605  1.25773e-05 
          50      22.5797     0.999812   0.00155953  1.30814e-05 
          50      22.7257     0.999812   0.00155855  1.35815e-05 
          50      22.8721     0.999812   0.00155758  1.40774e-05 
          50      23.0189     0.999812    0.0015566  1.45685e-05 
          50      23.1663     0.999812   0.00155563  1.50555e-05 
          50       23.314     0.999813   0.00155466  1.55373e-05 
          50      23.4623     0.999813    0.0015537  1.60146e-05 
          50       23.611     0.999813   0.00155275  1.64864e-05 
          50      23.7602     0.999813   0.00155179  1.69533e-05 
          50        23.91     0.999812   0.00155082  1.74151e-05 
          50        24.06     0.999812   0.00154985  1.78713e-05 
          50      24.2107     0.999813   0.00154889  1.83229e-05 
          50      24.3617     0.999813   0.00154795  1.87572e-05 
          50      24.5133     0.999813   0.00154702   1.9179e-05 
          50      24.6653     0.999813   0.00154608  1.95978e-05 
          50      24.8178     0.999813   0.00154513  2.00167e-05 
          50      24.9708     0.999813   0.00154418  2.04362e-05 
          50      25.1242     0.999813   0.00154322  2.08554e-05 
          50      25.2781     0.999814   0.00154227  2.12738e-05 
          50      25.4324     0.999814   0.00154132  2.16888e-05 
          50      25.5873     0.999814   0.00154038  2.20996e-05 
          50      25.7426     0.999814   0.00153946  2.25038e-05 
          50      25.8984     0.999814   0.00153854  2.29011e-05 
          50      26.0546     0.999815   0.00153763    2.329e-05 
          50      26.2114     0.999815   0.00153672   2.3671e-05 
          50      26.3686     0.999815   0.00153581  2.40441e-05 
          50      26.5262     0.999815    0.0015349  2.44097e-05 
          50      26.6844     0.999815   0.00153397  2.47693e-05 
          50      26.8429     0.999815   0.00153305  2.51235e-05 
          50       27.002     0.999815   0.00153212   2.5474e-05 
          50      27.1615     0.999816   0.00153119  2.58211e-05 
          50      27.3216     0.999816   0.00153026   2.6166e-05 
          50      27.4821     0.999816   0.00152935  2.65088e-05 
          50       27.643     0.999817   0.00152846  2.68489e-05 
          50      27.8044     0.999817   0.00152759   2.7186e-05 
          50      27.9663     0.999817   0.00152674  2.75185e-05 
          50      28.1287     0.999818   0.00152592  2.78454e-05 
          50      28.2914     0.999818   0.00152511  2.81648e-05 
          50      28.4548     0.999818    0.0015243  2.84761e-05 
          50      28.6185     0.999818   0.00152347   2.8779e-05 
          50      28.7828     0.999818   0.00152257  2.90758e-05 
          50      28.9475     0.999819   0.00152156   2.9371e-05 
          50      29.1126     0.999819    0.0015204  2.96734e-05 
          50      29.2784     0.999819    0.0015194  2.99499e-05 
          50      29.4444      0.99982   0.00151861  3.02089e-05 
          50       29.611      0.99982   0.00151801   3.0474e-05 
          50       29.778     0.999821   0.00151762  3.07618e-05 
          50      29.9456     0.999821   0.00151648  3.11812e-05 
          50      30.1137     0.999821   0.00151564  3.16353e-05 
          50      30.2821     0.999821   0.00151483  3.19333e-05 
          50      30.4511     0.999822   0.00151385  3.20148e-05 
          50      30.6204     0.999822   0.00151296  3.21881e-05 
          50      30.7903     0.999822   0.00151213  3.24202e-05 
          50      30.9606     0.999823   0.00151135  3.26858e-05 
          50      31.1315     0.999823   0.00151059  3.29672e-05 
          50      31.3028     0.999823   0.00150983  3.32518e-05 
          50      31.4745     0.999823   0.00150906  3.35314e-05 
          50      31.6468     0.999824   0.00150827  3.38017e-05 
          50      31.8194     0.999824   0.00150745  3.40606e-05 
          50      31.9926     0.999824   0.00150661  3.43082e-05 
          50      32.1662     0.999825   0.00150576  3.45453e-05 
          50      32.3404     0.999825   0.00150492   3.4774e-05 
          50      32.5149     0.999826   0.00150408   3.4996e-05 
          50        32.69     0.999826   0.00150327  3.52137e-05 
          50      32.8655     0.999827   0.00150248  3.54286e-05 
          50      33.0414     0.999827   0.00150172  3.56421e-05 
          50       33.218     0.999828   0.00150097  3.58553e-05 
          50      33.3948     0.999829   0.00150024  3.60684e-05 
          50      33.5723     0.999829    0.0014995  3.62818e-05 
          50        33.75      0.99983   0.00149876   3.6495e-05 
          50      33.9284      0.99983   0.00149801   3.6708e-05 
          50      34.1073      0.99983   0.00149724    3.692e-05 
          50      34.2865      0.99983   0.00149647  3.71303e-05 
          50      34.4663      0.99983   0.00149572  3.73389e-05 
          50      34.6465      0.99983   0.00149499  3.75449e-05 
          50      34.8272     0.999831   0.00149431  3.77484e-05 
          50      35.0083     0.999832   0.00149367  3.79486e-05 
          50        35.19     0.999833   0.00149302  3.81448e-05 
          50      35.3721     0.999834   0.00149225  3.83353e-05 
          50      35.5546     0.999835   0.00149149  3.85271e-05 
          50      35.7377     0.999835   0.00149084  3.87112e-05 
          50      35.9211     0.999835   0.00149012  3.88843e-05 
          50      36.1052     0.999835   0.00148937  3.90557e-05 
          50      36.2895     0.999835   0.00148862  3.92299e-05 
          50      36.4745     0.999836    0.0014879  3.94089e-05 
          50      36.6598     0.999837   0.00148721  3.95922e-05 
          50      36.8457     0.999837   0.00148655   3.9778e-05 
          50      37.0321     0.999838   0.00148591  3.99638e-05 
          50      37.2188     0.999839   0.00148529  4.01465e-05 
          50      37.4062     0.999839   0.00148467  4.03242e-05 
          50      37.5938      0.99984   0.00148404   4.0495e-05 
          50      37.7821      0.99984    0.0014834  4.06583e-05 
          50      37.9707      0.99984   0.00148273  4.08143e-05 
          50      38.1599      0.99984   0.00148204  4.09648e-05 
          50      38.3496     0.999841   0.00148135  4.11116e-05 
          50      38.5396     0.999841   0.00148067  4.12573e-05 
          50      38.7302     0.999842      0.00148  4.14044e-05 
          50      38.9211     0.999842   0.00147936  4.15537e-05 
          50      39.1127     0.999843   0.00147875  4.17046e-05 
          50      39.3046     0.999844   0.00147812  4.18524e-05 
          50      39.4971     0.999844   0.00147742  4.19879e-05 
          50      39.6899     0.999845   0.00147651  4.20948e-05 
          50      39.8833     0.999846   0.00147591  4.22754e-05 
          50      40.0772     0.999846   0.00147539  4.24766e-05 
          50      40.2714     0.999847   0.00147486   4.2667e-05 
          50      40.4663     0.999847   0.00147437  4.28479e-05 
          50      40.6615     0.999847   0.00147391  4.30194e-05 
          50      40.8573     0.999848   0.00147347  4.31819e-05 
          50      41.0534     0.999848   0.00147298   4.3335e-05 
          50      41.2501     0.999849   0.00147239   4.3479e-05 
          50      41.4473      0.99985   0.00147163  4.36144e-05 
          50      41.6448     0.999851   0.00147074  4.37426e-05 
          50      41.8429     0.999852   0.00146982  4.38664e-05 
          50      42.0414     0.999853   0.00146923  4.39899e-05 
          50      42.2405     0.999852   0.00146961  4.41195e-05 
          50      42.4399     0.999853   0.00146873  4.42744e-05 
          50      42.6399     0.999854   0.00146749  4.44362e-05 
          50      42.8404     0.999855   0.00146705  4.45927e-05 
          50      43.0412     0.999855   0.00146688  4.47427e-05 
          50      43.2426     0.999855   0.00146669  4.48858e-05 
          50      43.4444     0.999855   0.00146635  4.50212e-05 
          50      43.6467     0.999855   0.00146583  4.51492e-05 
          50      43.8494     0.999856   0.00146517  4.52711e-05 
          50      44.0527     0.999857   0.00146443  4.53897e-05 
          50      44.2563     0.999858   0.00146368  4.55096e-05 
          50      44.4606     0.999859   0.00146297  4.56381e-05 
          50      44.6653      0.99986   0.00146236  4.57848e-05 
          50      44.8704     0.999861   0.00146187  4.59624e-05 
          50       45.076     0.999861   0.00146152  4.61869e-05 
          50       45.282      0.99986    0.0014613  4.64775e-05 
          50      45.4886     0.999861   0.00146092  4.65154e-05 
          50      45.6955     0.999862   0.00146044  4.65162e-05 
          50       45.903     0.999862   0.00145993  4.65759e-05 
          50      46.1111     0.999862   0.00145941  4.66827e-05 
          50      46.3194     0.999862   0.00145886  4.68246e-05 
          50      46.5283     0.999862   0.00145831  4.69903e-05 
          50      46.7376     0.999863   0.00145775  4.71689e-05 
          50      46.9475     0.999864   0.00145719  4.73512e-05 
          50      47.1577     0.999865   0.00145665  4.75294e-05 
          50      47.3685     0.999866   0.00145613  4.76982e-05 
          50      47.5798     0.999867   0.00145566  4.78539e-05 
          50      47.7914     0.999869   0.00145524  4.79956e-05 
          50      48.0037      0.99987   0.00145488  4.81249e-05 