Variables = x, y, u, v, p

Zone, I=800, F=POINT
        1000            0           -0           -0 -4.75705e-06 
        1000     0.000234  6.71048e-05  3.05082e-12 -4.75702e-06 
        1000     0.000939   0.00026928  4.90922e-11 -4.75694e-06 
        1000     0.002113  0.000605951  2.48544e-10 -4.75681e-06 
        1000     0.003759   0.00107798  7.86501e-10 -4.75663e-06 
        1000     0.005872   0.00168393  1.91903e-09 -4.75639e-06 
        1000     0.008457   0.00242525  3.98013e-09  -4.7561e-06 
        1000      0.01151   0.00330077  7.37172e-09 -4.75576e-06 
        1000     0.015036   0.00431194  1.25787e-08 -4.75537e-06 
        1000     0.019031   0.00545762  2.01486e-08 -4.75493e-06 
        1000     0.023493   0.00673722  3.07007e-08 -4.75443e-06 
        1000     0.028429   0.00815276   4.4951e-08 -4.75388e-06 
        1000     0.033831   0.00970195  6.36483e-08 -4.75328e-06 
        1000     0.039706    0.0113868   8.7661e-08 -4.75263e-06 
        1000     0.046047    0.0132053  1.17877e-07 -4.75193e-06 
        1000     0.052863      0.01516  1.55332e-07 -4.75117e-06 
        1000      0.06015    0.0172498  2.01073e-07 -4.75036e-06 
        1000       0.0679    0.0194724   2.5618e-07 -4.74951e-06 
        1000     0.076126    0.0218316  3.21952e-07 -4.74859e-06 
        1000     0.084816    0.0243238  3.99575e-07 -4.74763e-06 
        1000     0.093982    0.0269525  4.90506e-07 -4.74662e-06 
        1000     0.103611    0.0297141  5.96042e-07 -4.74556e-06 
        1000     0.113718    0.0326127  7.17848e-07 -4.74444e-06 
        1000     0.124286    0.0356436  8.57282e-07 -4.74327e-06 
        1000     0.135333    0.0388118  1.01622e-06 -4.74206e-06 
        1000      0.14685    0.0421148  1.19626e-06 -4.74079e-06 
        1000     0.158827    0.0455498  1.39902e-06 -4.73947e-06 
        1000     0.171284    0.0491223  1.62669e-06  -4.7381e-06 
        1000     0.184201    0.0528268  1.88081e-06 -4.73668e-06 
        1000     0.197599    0.0566692  2.16381e-06 -4.73521e-06 
        1000     0.211455    0.0606428  2.47726e-06 -4.73369e-06 
        1000     0.225792    0.0647543  2.82381e-06 -4.73212e-06 
        1000       0.2406    0.0690008  3.20546e-06  -4.7305e-06 
        1000     0.255865    0.0733782  3.62404e-06 -4.72883e-06 
        1000     0.271613    0.0778939  4.08274e-06 -4.72711e-06 
        1000     0.287818    0.0825403  4.58311e-06 -4.72535e-06 
        1000     0.304506     0.087325   5.1284e-06 -4.72353e-06 
        1000      0.32165    0.0922401  5.72028e-06 -4.72167e-06 
        1000     0.339278    0.0972936   6.3624e-06 -4.71975e-06 
        1000     0.357377     0.102482  7.05701e-06 -4.71778e-06 
        1000      0.37593     0.107799  7.80616e-06 -4.71577e-06 
        1000     0.394968     0.113255  8.61387e-06 -4.71371e-06 
        1000     0.414461      0.11884  9.48171e-06 -4.71161e-06 
        1000      0.43444     0.124564   1.0414e-05 -4.70945e-06 
        1000     0.454872     0.130416  1.14121e-05 -4.70725e-06 
        1000     0.475791     0.136407   1.2481e-05   -4.705e-06 
        1000     0.497163     0.142526  1.36219e-05  -4.7027e-06 
        1000     0.519021     0.148782  1.48398e-05 -4.70035e-06 
        1000      0.54135     0.155171  1.61372e-05 -4.69796e-06 
        1000     0.564131     0.161687  1.75159e-05 -4.69553e-06 
        1000       0.5874      0.16834  1.89815e-05 -4.69304e-06 
        1000     0.611121      0.17512  2.05361e-05 -4.69046e-06 
        1000      0.63533     0.182036  2.21841e-05 -4.68796e-06 
        1000      0.65999     0.189077  2.39261e-05 -4.68536e-06 
        1000     0.685139     0.196253  2.57693e-05 -4.68269e-06 
        1000     0.710759      0.20356  2.77163e-05 -4.67996e-06 
        1000     0.736828     0.210989  2.97691e-05 -4.67719e-06 
        1000     0.763387     0.218553  3.19344e-05 -4.67439e-06 
        1000     0.790396     0.226238  3.42122e-05 -4.67154e-06 
        1000     0.817896     0.234055  3.66095e-05 -4.66867e-06 
        1000     0.845843     0.241993  3.91258e-05 -4.66576e-06 
        1000     0.874283     0.250061   4.1769e-05  -4.6628e-06 
        1000      0.90317     0.258247  4.45385e-05 -4.65982e-06 
        1000     0.932551     0.266562  4.74428e-05 -4.65678e-06 
        1000     0.962401     0.274998  5.04833e-05  -4.6537e-06 
        1000     0.992697     0.283548  5.36617e-05 -4.65058e-06 
        1000      1.02349     0.292224  5.69869e-05 -4.64742e-06 
        1000      1.05472     0.301009   6.0457e-05 -4.64421e-06 
        1000      1.08645     0.309918  6.40815e-05 -4.64097e-06 
        1000      1.11863     0.318932  6.78576e-05 -4.63769e-06 
        1000       1.1513     0.328066  7.17946e-05 -4.63438e-06 
        1000      1.18444      0.33731  7.58927e-05 -4.63103e-06 
        1000      1.21802     0.346654  8.01512e-05 -4.62766e-06 
        1000      1.25211     0.356112  8.45806e-05 -4.62425e-06 
        1000      1.28663     0.365664  8.91768e-05  -4.6208e-06 
        1000      1.32165     0.375325  9.39513e-05  -4.6173e-06 
        1000      1.35712     0.385075  9.89002e-05 -4.61376e-06 
        1000      1.39308     0.394928  0.000104035 -4.61019e-06 
        1000      1.42951     0.404872  0.000109353 -4.60662e-06 
        1000      1.46638     0.414896   0.00011485 -4.60311e-06 
        1000      1.50375     0.425014  0.000120526 -4.59978e-06 
        1000      1.54156     0.435204  0.000126392 -4.59514e-06 
        1000      1.57987     0.445479  0.000132465 -4.59106e-06 
        1000      1.61863     0.455818  0.000138729 -4.58741e-06 
        1000      1.65788     0.466236  0.000145193   -4.584e-06 
        1000      1.69757     0.476708  0.000151843 -4.58065e-06 
        1000      1.73776     0.487248  0.000158689 -4.57725e-06 
        1000      1.77842     0.497843  0.000165727 -4.57371e-06 
        1000      1.81952     0.508479  0.000172951 -4.56999e-06 
        1000      1.86113     0.519166  0.000180373 -4.56606e-06 
        1000      1.90316     0.529884  0.000187982 -4.56193e-06 
        1000      1.94571     0.540642   0.00019579 -4.55762e-06 
        1000      1.98869     0.551417  0.000203784 -4.55316e-06 
        1000      2.03217     0.562221  0.000211977  -4.5486e-06 
        1000      2.07612     0.573038   0.00022036 -4.54397e-06 
        1000      2.12051     0.583853  0.000228923 -4.53934e-06 
        1000       2.1654     0.594675  0.000237677 -4.53473e-06 
        1000      2.21073     0.605482  0.000246602 -4.53018e-06 
        1000      2.25656     0.616281  0.000255709 -4.52572e-06 
        1000      2.30283      0.62705  0.000264976 -4.52135e-06 
        1000       2.3496     0.637795  0.000274411 -4.51707e-06 
        1000      2.39685     0.648503     0.000284 -4.51286e-06 
        1000      2.44452     0.659155  0.000293726  -4.5087e-06 
        1000      2.49271     0.669761  0.000303597 -4.50454e-06 
        1000      2.54132     0.680295  0.000313588 -4.50032e-06 
        1000      2.59044     0.690765  0.000323706 -4.49599e-06 
        1000         2.64     0.701147  0.000333927 -4.49148e-06 
        1000      2.69006     0.711448  0.000344257 -4.48674e-06 
        1000      2.74056     0.721643   0.00035467  -4.4817e-06 
        1000      2.79156      0.73174  0.000365175 -4.47632e-06 
        1000      2.84304     0.741722  0.000375753 -4.47056e-06 
        1000      2.89494     0.751572  0.000386386 -4.46443e-06 
        1000      2.94735     0.761299  0.000397079 -4.45791e-06 
        1000       3.0002     0.770877  0.000407804 -4.45104e-06 
        1000      3.05355     0.780313  0.000418566 -4.44386e-06 
        1000      3.10733     0.789586  0.000429332 -4.43643e-06 
        1000      3.16163     0.798701  0.000440105  -4.4288e-06 
        1000      3.21639     0.807643  0.000450857 -4.42101e-06 
        1000      3.27158     0.816399  0.000461564 -4.41309e-06 
        1000      3.32729     0.824974  0.000472221 -4.40496e-06 
        1000      3.38342     0.833349  0.000482794 -4.39646e-06 
        1000      3.44007     0.841531   0.00049328 -4.38724e-06 
        1000      3.49714       0.8495  0.000503651 -4.37676e-06 
        1000      3.55472     0.857263  0.000513914 -4.36411e-06 
        1000      3.61273     0.864805   0.00052406 -4.34801e-06 
        1000      3.67125      0.87213  0.000534125 -4.32661e-06 
        1000      3.73025      0.87923  0.000544151 -4.29738e-06 
        1000      3.78967     0.886094  0.000553821 -4.28232e-06 
        1000      3.84961     0.892732  0.000563235 -4.27858e-06 
        1000      3.90996     0.899133  0.000572511 -4.27546e-06 
        1000      3.97084     0.905303  0.000581635 -4.27266e-06 
        1000      4.03214     0.911233  0.000590565 -4.26993e-06 
        1000      4.09395     0.916929  0.000599293 -4.26708e-06 
        1000      4.15624     0.922387  0.000607794   -4.264e-06 
        1000      4.21895     0.927604  0.000616045  -4.2606e-06 
        1000      4.28217     0.932588  0.000624045 -4.25684e-06 
        1000      4.34582     0.937334  0.000631773 -4.25273e-06 
        1000      4.40998     0.941852  0.000639232 -4.24828e-06 
        1000      4.47457     0.946138  0.000646403 -4.24356e-06 
        1000      4.53968     0.950202  0.000653296 -4.23862e-06 
        1000      4.60525     0.954045  0.000659901 -4.23355e-06 
        1000      4.67125     0.957668  0.000666214 -4.22844e-06 
        1000      4.73777     0.961084  0.000672244 -4.22338e-06 
        1000       4.8047     0.964291  0.000677984 -4.21844e-06 
        1000      4.87216     0.967302  0.000683446  -4.2137e-06 
        1000      4.94003     0.970117  0.000688625 -4.20923e-06 
        1000      5.00843     0.972748  0.000693534 -4.20505e-06 
        1000      5.07724     0.975196   0.00069817 -4.20121e-06 
        1000      5.14658     0.977474  0.000702546 -4.19769e-06 
        1000      5.21639     0.979587  0.000706665 -4.19447e-06 
        1000      5.28661     0.981539  0.000710529 -4.19152e-06 
        1000      5.35736     0.983342  0.000714153 -4.18874e-06 
        1000      5.42852     0.985001  0.000717537 -4.18604e-06 
        1000      5.50021     0.986526  0.000720695 -4.18331e-06 
        1000      5.57231     0.987921  0.000723628  -4.1804e-06 
        1000      5.64493     0.989196  0.000726349 -4.17714e-06 
        1000      5.71803     0.990358  0.000728865 -4.17338e-06 
        1000      5.79154     0.991412   0.00073118 -4.16893e-06 
        1000      5.86558     0.992369  0.000733308 -4.16361e-06 
        1000      5.94003     0.993232  0.000735253 -4.15726e-06 
        1000      6.01501     0.994011  0.000737028 -4.14972e-06 
        1000       6.0904      0.99471  0.000738639 -4.14087e-06 
        1000      6.16632     0.995337  0.000740098  -4.1306e-06 
        1000      6.24271     0.995896  0.000741413 -4.11888e-06 
        1000       6.3195     0.996395  0.000742593 -4.10573e-06 
        1000      6.39683     0.996837  0.000743649 -4.09121e-06 
        1000      6.47457     0.997229   0.00074459 -4.07552e-06 
        1000      6.55284     0.997575  0.000745428  -4.0589e-06 
        1000      6.63152     0.997879   0.00074617 -4.04176e-06 
        1000      6.71073     0.998146  0.000746829 -4.02457e-06 
        1000      6.79034      0.99838  0.000747411 -4.00801e-06 
        1000      6.87049     0.998584  0.000747929 -3.99285e-06 
        1000      6.95111     0.998762   0.00074839 -3.98006e-06 
        1000      7.03214     0.998915  0.000748801 -3.97078e-06 
        1000       7.1137     0.999048  0.000749172 -3.96631e-06 
        1000      7.19566     0.999163  0.000749507 -3.96817e-06 
        1000      7.27816     0.999261  0.000749814 -3.97806e-06 
        1000      7.36106     0.999345  0.000750097 -3.99787e-06 
        1000      7.44451     0.999417  0.000750321 -3.96798e-06 
        1000      7.52842     0.999478  0.000750526 -3.93207e-06 
        1000      7.61273      0.99953  0.000750717 -3.90068e-06 
        1000      7.69758     0.999573  0.000750894 -3.87348e-06 
        1000      7.78283      0.99961  0.000751056 -3.85031e-06 
        1000      7.86862      0.99964  0.000751198 -3.83098e-06 
        1000      7.95481     0.999665  0.000751318 -3.81545e-06 
        1000      8.04155     0.999686  0.000751414 -3.80361e-06 
        1000      8.12868     0.999703  0.000751481  -3.7954e-06 
        1000      8.21635     0.999717   0.00075152 -3.79063e-06 
        1000      8.30449     0.999729  0.000751533 -3.78903e-06 
        1000      8.39303     0.999738  0.000751527 -3.79011e-06 
        1000      8.48211     0.999746  0.000751515 -3.79304e-06 
        1000      8.57159     0.999752  0.000751519 -3.79661e-06 
        1000      8.66161     0.999757   0.00075157 -3.79902e-06 
        1000      8.75203     0.999761  0.000751717 -3.79777e-06 
        1000      8.84299     0.999763  0.000752025 -3.78944e-06 
        1000      8.93443     0.999767    0.0007519 -3.83236e-06 
        1000      9.02626      0.99977  0.000751778 -3.85324e-06 
        1000      9.11863     0.999772  0.000751705 -3.85412e-06 
        1000      9.21139     0.999774  0.000751676 -3.84115e-06 
        1000      9.30471     0.999776  0.000751686 -3.81939e-06 
        1000      9.39841     0.999777  0.000751727 -3.79292e-06 
        1000      9.49267     0.999778  0.000751791 -3.76482e-06 
        1000      9.58739     0.999779  0.000751869 -3.73742e-06 
        1000      9.68251      0.99978  0.000751953 -3.71226e-06 
        1000      9.77817      0.99978  0.000752036 -3.69015e-06 
        1000      9.87422      0.99978  0.000752111 -3.67134e-06 
        1000      9.97083     0.999781  0.000752175 -3.65545e-06 
        1000      10.0678     0.999781  0.000752225 -3.64166e-06 
        1000      10.1654     0.999781  0.000752259 -3.62862e-06 
        1000      10.2633     0.999782  0.000752277  -3.6146e-06 
        1000      10.3618     0.999782  0.000752281 -3.59742e-06 
        1000      10.4607     0.999782  0.000752248 -3.59462e-06 
        1000      10.5601     0.999783  0.000752201  -3.6072e-06 
        1000        10.66     0.999783  0.000752166 -3.61744e-06 
        1000      10.7603     0.999783  0.000752141 -3.62485e-06 
        1000      10.8611     0.999784  0.000752128 -3.62907e-06 
        1000      10.9623     0.999784  0.000752125 -3.62983e-06 
        1000      11.0641     0.999785  0.000752133 -3.62699e-06 
        1000      11.1663     0.999785   0.00075215 -3.62052e-06 
        1000       11.269     0.999786  0.000752176 -3.61054e-06 
        1000      11.3721     0.999786   0.00075221 -3.59725e-06 
        1000      11.4757     0.999787   0.00075225 -3.58098e-06 
        1000      11.5798     0.999787  0.000752295 -3.56212e-06 
        1000      11.6844     0.999787  0.000752344 -3.54122e-06 
        1000      11.7894     0.999788  0.000752393  -3.5188e-06 
        1000       11.895     0.999788  0.000752443 -3.49549e-06 
        1000      12.0009     0.999788   0.00075249 -3.47194e-06 
        1000      12.1073     0.999789  0.000752534 -3.44875e-06 
        1000      12.2142     0.999789  0.000752572 -3.42656e-06 
        1000      12.3216     0.999789  0.000752604 -3.40591e-06 
        1000      12.4294      0.99979  0.000752629 -3.38732e-06 
        1000      12.5378      0.99979  0.000752647 -3.37115e-06 
        1000      12.6465      0.99979  0.000752658 -3.35771e-06 
        1000      12.7558     0.999791  0.000752664 -3.34713e-06 
        1000      12.8656     0.999791  0.000752666 -3.33941e-06 
        1000      12.9757     0.999791  0.000752665 -3.33439e-06 
        1000      13.0864     0.999792  0.000752664 -3.33174e-06 
        1000      13.1975     0.999792  0.000752665 -3.33101e-06 
        1000      13.3092     0.999792  0.000752672 -3.33156e-06 
        1000      13.4212     0.999793  0.000752686 -3.33269e-06 
        1000      13.5338     0.999793  0.000752711 -3.33358e-06 
        1000      13.6468     0.999794  0.000752747 -3.33341e-06 
        1000      13.7603     0.999794  0.000752794 -3.33143e-06 
        1000      13.8743     0.999795  0.000752854 -3.32698e-06 
        1000      13.9886     0.999795  0.000752922 -3.31969e-06 
        1000      14.1036     0.999795  0.000752994 -3.30955e-06 
        1000      14.2189     0.999796  0.000753063 -3.29711e-06 
        1000      14.3348     0.999796  0.000753118 -3.28364e-06 
        1000       14.451     0.999797  0.000753144  -3.2714e-06 
        1000      14.5678     0.999797  0.000753124 -3.26381e-06 
        1000      14.6851     0.999798  0.000753035 -3.26586e-06 
        1000      14.8028     0.999798  0.000752974 -3.26417e-06 
        1000       14.921     0.999798  0.000753132 -3.22403e-06 
        1000      15.0396     0.999799  0.000753189 -3.19694e-06 
        1000      15.1588     0.999799  0.000753189 -3.18003e-06 
        1000      15.2783       0.9998  0.000753163 -3.17044e-06 
        1000      15.3984       0.9998  0.000753133 -3.16541e-06 
        1000       15.519     0.999801  0.000753113 -3.16254e-06 
        1000        15.64     0.999801  0.000753111  -3.1598e-06 
        1000      15.7615     0.999801   0.00075313 -3.15571e-06 
        1000      15.8834     0.999802  0.000753168  -3.1493e-06 
        1000      16.0058     0.999802  0.000753222 -3.14016e-06 
        1000      16.1286     0.999802  0.000753286 -3.12839e-06 
        1000       16.252     0.999803  0.000753353 -3.11452e-06 
        1000      16.3759     0.999803  0.000753417  -3.0995e-06 
        1000      16.5002     0.999804  0.000753474 -3.08452e-06 
        1000       16.625     0.999804  0.000753518 -3.07086e-06 
        1000      16.7501     0.999805  0.000753548 -3.05986e-06 
        1000      16.8759     0.999805  0.000753563 -3.05267e-06 
        1000       17.002     0.999806  0.000753564 -3.05016e-06 
        1000      17.1287     0.999806  0.000753553 -3.05277e-06 
        1000      17.2557     0.999807  0.000753536 -3.06042e-06 
        1000      17.3834     0.999807  0.000753516 -3.07237e-06 
        1000      17.5115     0.999808    0.0007535 -3.08718e-06 
        1000      17.6399     0.999808  0.000753493 -3.10273e-06 
        1000       17.769     0.999809  0.000753499 -3.11623e-06 
        1000      17.8984     0.999809  0.000753521 -3.12434e-06 
        1000      18.0284      0.99981   0.00075356  -3.1234e-06 
        1000      18.1587      0.99981  0.000753615  -3.1097e-06 
        1000      18.2896      0.99981  0.000753682 -3.07988e-06 
        1000       18.421     0.999811  0.000753754 -3.03153e-06 
        1000      18.5528     0.999811  0.000753825 -2.96389e-06 
        1000      18.6851     0.999811  0.000753885 -2.87852e-06 
        1000      18.8178     0.999812  0.000753928 -2.78074e-06 
        1000      18.9511     0.999812  0.000753951 -2.68039e-06 
        1000      19.0847     0.999813  0.000753959 -2.59386e-06 
        1000      19.2189     0.999813  0.000753968 -2.54533e-06 
        1000      19.3535     0.999814  0.000754015 -2.56922e-06 
        1000      19.4886     0.999814  0.000754164 -2.71241e-06 
        1000      19.6242     0.999814  0.000754418  -2.7394e-06 
        1000      19.7602     0.999815  0.000754432 -2.58785e-06 
        1000      19.8968     0.999816  0.000754127  -2.5878e-06 
        1000      20.0337     0.999817  0.000753411  -2.7712e-06 
        1000      20.1712     0.999817  0.000753519  -2.5909e-06 
        1000      20.3091     0.999818  0.000753746 -2.51164e-06 
        1000      20.4475     0.999818  0.000753976 -2.51773e-06 
        1000      20.5864     0.999818   0.00075418 -2.56999e-06 
        1000      20.7257     0.999819  0.000754339 -2.63997e-06 
        1000      20.8655     0.999819  0.000754446 -2.70846e-06 
        1000      21.0058      0.99982  0.000754501  -2.7634e-06 
        1000      21.1465      0.99982  0.000754511 -2.79865e-06 
        1000      21.2877     0.999821  0.000754485 -2.81237e-06 
        1000      21.4294     0.999821  0.000754435 -2.80594e-06 
        1000      21.5716     0.999822  0.000754375 -2.78281e-06 
        1000      21.7142     0.999822  0.000754316 -2.74768e-06 
        1000      21.8573     0.999823   0.00075427 -2.70562e-06 
        1000      22.0008     0.999823  0.000754244 -2.66163e-06 
        1000      22.1449     0.999824  0.000754243 -2.61998e-06 
        1000      22.2893     0.999825  0.000754272 -2.58414e-06 
        1000      22.4344     0.999825  0.000754328 -2.55629e-06 
        1000      22.5797     0.999826  0.000754408 -2.53753e-06 
        1000      22.7257     0.999826  0.000754506 -2.52768e-06 
        1000      22.8721     0.999827  0.000754614 -2.52554e-06 
        1000      23.0189     0.999827  0.000754723 -2.52905e-06 
        1000      23.1663     0.999828  0.000754823 -2.53553e-06 
        1000       23.314     0.999828  0.000754904 -2.54204e-06 
        1000      23.4623     0.999829  0.000754958 -2.54567e-06 
        1000       23.611     0.999829   0.00075498 -2.54392e-06 
        1000      23.7602     0.999829  0.000754965 -2.53498e-06 
        1000        23.91      0.99983  0.000754917 -2.51805e-06 
        1000        24.06      0.99983  0.000754838 -2.49354e-06 
        1000      24.2107     0.999831   0.00075474 -2.46308e-06 
        1000      24.3617     0.999831  0.000754635 -2.42968e-06 
        1000      24.5133     0.999832   0.00075454 -2.39725e-06 
        1000      24.6653     0.999832  0.000754474 -2.37047e-06 
        1000      24.8178     0.999833  0.000754456 -2.35392e-06 
        1000      24.9708     0.999833  0.000754501 -2.35125e-06 
        1000      25.1242     0.999834  0.000754619 -2.36381e-06 
        1000      25.2781     0.999835  0.000754805 -2.38905e-06 
        1000      25.4324     0.999836  0.000755038 -2.41831e-06 
        1000      25.5873     0.999836  0.000755267 -2.43436e-06 
        1000      25.7426     0.999837  0.000755408 -2.40812e-06 
        1000      25.8984     0.999837  0.000755325  -2.2949e-06 
        1000      26.0546     0.999838  0.000754822 -2.03027e-06 
        1000      26.2114     0.999838  0.000754845  -2.0195e-06 
        1000      26.3686     0.999839  0.000755297 -2.22065e-06 
        1000      26.5262     0.999839  0.000755425 -2.30366e-06 
        1000      26.6844      0.99984  0.000755373 -2.30871e-06 
        1000      26.8429      0.99984  0.000755244 -2.26562e-06 
        1000       27.002     0.999841  0.000755111 -2.19607e-06 
        1000      27.1615     0.999842  0.000755019 -2.11595e-06 
        1000      27.3216     0.999842  0.000754993 -2.03731e-06 
        1000      27.4821     0.999843  0.000755041 -1.97108e-06 
        1000       27.643     0.999843  0.000755144 -1.92937e-06 
        1000      27.8044     0.999843  0.000755265 -1.92804e-06 
        1000      27.9663     0.999844  0.000755335  -1.9896e-06 
        1000      28.1287     0.999844  0.000755243 -2.14626e-06 
        1000      28.2914     0.999845  0.000754919 -2.39509e-06 
        1000      28.4548     0.999845  0.000755353 -2.21252e-06 
        1000      28.6185     0.999846  0.000755641  -2.0929e-06 
        1000      28.7828     0.999847  0.000755807 -2.02149e-06 
        1000      28.9475     0.999848  0.000755874 -1.98611e-06 
        1000      29.1126     0.999848  0.000755867 -1.97645e-06 
        1000      29.2784     0.999849  0.000755809 -1.98401e-06 
        1000      29.4444      0.99985   0.00075572 -2.00192e-06 
        1000       29.611      0.99985   0.00075562 -2.02477e-06 
        1000       29.778     0.999851  0.000755524 -2.04834e-06 
        1000      29.9456     0.999852  0.000755443 -2.06954e-06 
        1000      30.1137     0.999852  0.000755387 -2.08618e-06 
        1000      30.2821     0.999853  0.000755361 -2.09687e-06 
        1000      30.4511     0.999853  0.000755367  -2.1009e-06 
        1000      30.6204     0.999854  0.000755403 -2.09806e-06 
        1000      30.7903     0.999854  0.000755468 -2.08861e-06 
        1000      30.9606     0.999855  0.000755556 -2.07313e-06 
        1000      31.1315     0.999856   0.00075566 -2.05242e-06 
        1000      31.3028     0.999856  0.000755773 -2.02751e-06 
        1000      31.4745     0.999857  0.000755888 -1.99951e-06 
        1000      31.6468     0.999857  0.000755995 -1.96952e-06 
        1000      31.8194     0.999858  0.000756089 -1.93875e-06 
        1000      31.9926     0.999858  0.000756163 -1.90823e-06 
        1000      32.1662     0.999859  0.000756213 -1.87904e-06 
        1000      32.3404     0.999859  0.000756236 -1.85205e-06 
        1000      32.5149      0.99986  0.000756231 -1.82808e-06 
        1000        32.69     0.999861  0.000756199 -1.80775e-06 
        1000      32.8655     0.999861  0.000756145 -1.79156e-06 
        1000      33.0414     0.999862  0.000756072 -1.77983e-06 
        1000       33.218     0.999863  0.000755989 -1.77269e-06 
        1000      33.3948     0.999863  0.000755903  -1.7701e-06 
        1000      33.5723     0.999864  0.000755823 -1.77181e-06 
        1000        33.75     0.999865   0.00075576 -1.77736e-06 
        1000      33.9284     0.999865  0.000755721 -1.78608e-06 
        1000      34.1073     0.999866  0.000755715 -1.79701e-06 
        1000      34.2865     0.999867  0.000755746 -1.80891e-06 
        1000      34.4663     0.999867  0.000755818 -1.82026e-06 
        1000      34.6465     0.999868  0.000755928 -1.82907e-06 
        1000      34.8272     0.999869   0.00075607 -1.83296e-06 
        1000      35.0083     0.999869  0.000756231 -1.82898e-06 
        1000        35.19      0.99987  0.000756393 -1.81353e-06 
        1000      35.3721     0.999871  0.000756528  -1.7822e-06 
        1000      35.5546     0.999871  0.000756602 -1.72973e-06 
        1000      35.7377     0.999872  0.000756575  -1.6496e-06 
        1000      35.9211     0.999872  0.000756396 -1.53417e-06 
        1000      36.1052     0.999873  0.000756008  -1.3739e-06 
        1000      36.2895     0.999873  0.000756353 -1.43349e-06 
        1000      36.4745     0.999874  0.000756542 -1.46564e-06 
        1000      36.6598     0.999875  0.000756576 -1.47075e-06 
        1000      36.8457     0.999876  0.000756516 -1.46803e-06 
        1000      37.0321     0.999877  0.000756401  -1.4693e-06 
        1000      37.2188     0.999877  0.000756262 -1.47792e-06 
        1000      37.4062     0.999878  0.000756144 -1.48759e-06 
        1000      37.5938     0.999879  0.000756129  -1.4807e-06 
        1000      37.7821      0.99988  0.000756362 -1.42633e-06 
        1000      37.9707      0.99988  0.000757086 -1.27808e-06 
        1000      38.1599     0.999881  0.000756516 -1.39592e-06 
        1000      38.3496     0.999881   0.00075634  -1.5149e-06 
        1000      38.5396     0.999882  0.000756504 -1.60234e-06 
        1000      38.7302     0.999882  0.000756771 -1.66898e-06 
        1000      38.9211     0.999883  0.000757001 -1.71443e-06 
        1000      39.1127     0.999883  0.000757132 -1.72718e-06 
        1000      39.3046     0.999884  0.000757157 -1.68386e-06 
        1000      39.4971     0.999885  0.000757117 -1.54848e-06 
        1000      39.6899     0.999886  0.000757086 -1.27201e-06 
        1000      39.8833     0.999886  0.000757168 -7.90149e-07 
        1000      40.0772     0.999887  0.000756922  -1.0065e-06 
        1000      40.2714     0.999888  0.000756628 -1.25142e-06 
        1000      40.4663     0.999889  0.000756389 -1.40911e-06 
        1000      40.6615      0.99989  0.000756227 -1.49831e-06 
        1000      40.8573     0.999891  0.000756153 -1.53518e-06 
        1000      41.0534     0.999892  0.000756165 -1.53295e-06 
        1000      41.2501     0.999892  0.000756256 -1.50261e-06 
        1000      41.4473     0.999893  0.000756412 -1.45309e-06 
        1000      41.6448     0.999893  0.000756613 -1.39166e-06 
        1000      41.8429     0.999894  0.000756841 -1.32391e-06 
        1000      42.0414     0.999894  0.000757074 -1.25438e-06 
        1000      42.2405     0.999895  0.000757292 -1.18631e-06 
        1000      42.4399     0.999895  0.000757478 -1.12228e-06 
        1000      42.6399     0.999896  0.000757617 -1.06391e-06 
        1000      42.8404     0.999896  0.000757702  -1.0124e-06 
        1000      43.0412     0.999897  0.000757725 -9.68415e-07 
        1000      43.2426     0.999898  0.000757687 -9.32139e-07 
        1000      43.4444     0.999899  0.000757594 -9.03562e-07 
        1000      43.6467     0.999899  0.000757453 -8.82313e-07 
        1000      43.8494       0.9999  0.000757279 -8.67893e-07 
        1000      44.0527     0.999901  0.000757087 -8.59575e-07 
        1000      44.2563     0.999902  0.000756895 -8.56518e-07 
        1000      44.4606     0.999902  0.000756721 -8.57739e-07 
        1000      44.6653     0.999903  0.000756583  -8.6215e-07 
        1000      44.8704     0.999904  0.000756497 -8.68554e-07 
        1000       45.076     0.999905  0.000756474 -8.75687e-07 
        1000       45.282     0.999905  0.000756519 -8.82202e-07 
        1000      45.4886     0.999906  0.000756635 -8.86736e-07 
        1000      45.6955     0.999907  0.000756812  -8.8791e-07 
        1000       45.903     0.999907  0.000757038 -8.84412e-07 
        1000      46.1111     0.999908  0.000757291 -8.75053e-07 
        1000      46.3194     0.999909  0.000757541 -8.58891e-07 
        1000      46.5283     0.999909  0.000757758 -8.35296e-07 
        1000      46.7376      0.99991  0.000757906 -8.04212e-07 
        1000      46.9475     0.999911  0.000757956 -7.66198e-07 
        1000      47.1577     0.999911  0.000757885 -7.22871e-07 
        1000      47.3685     0.999912  0.000757689 -6.76949e-07 
        1000      47.5798     0.999913   0.00075739 -6.32824e-07 
        1000      47.7914     0.999914   0.00075705 -5.96858e-07 
        1000      48.0037     0.999915  0.000756786 -5.77766e-07 