Variables = x, y, u, v, p

Zone, I=800, F=POINT
         400            0            0            0 -4.58191e-05 
         400     0.000234  9.04384e-05  7.18441e-12  -4.5819e-05 
         400     0.000939  0.000362913  1.15701e-10 -4.58189e-05 
         400     0.002113  0.000816651  5.85886e-10 -4.58185e-05 
         400     0.003759   0.00145281  1.85422e-09 -4.58181e-05 
         400     0.005872   0.00226946  4.52469e-09 -4.58176e-05 
         400     0.008457   0.00326854  9.38534e-09 -4.58169e-05 
         400      0.01151   0.00444849  1.73848e-08 -4.58161e-05 
         400     0.015036   0.00581126  2.96677e-08 -4.58152e-05 
         400     0.019031   0.00735529  4.75272e-08 -4.58141e-05 
         400     0.023493   0.00907981  7.24265e-08 -4.58129e-05 
         400     0.028429    0.0109875  1.06058e-07 -4.58116e-05 
         400     0.033831    0.0130754  1.50194e-07 -4.58102e-05 
         400     0.039706     0.015346  2.06888e-07 -4.58087e-05 
         400     0.046047    0.0177967  2.78245e-07  -4.5807e-05 
         400     0.052863    0.0204311  3.66716e-07 -4.58052e-05 
         400      0.06015    0.0232474  4.74786e-07 -4.58033e-05 
         400       0.0679    0.0262427  6.05017e-07 -4.58013e-05 
         400     0.076126     0.029422  7.60492e-07 -4.57991e-05 
         400     0.084816    0.0327806  9.44028e-07 -4.57968e-05 
         400     0.093982    0.0363231  1.15909e-06 -4.57944e-05 
         400     0.103611    0.0400446  1.40877e-06 -4.57919e-05 
         400     0.113718    0.0439507  1.69702e-06 -4.57892e-05 
         400     0.124286    0.0480349  2.02709e-06 -4.57865e-05 
         400     0.135333    0.0523042  2.40344e-06 -4.57836e-05 
         400      0.14685     0.056755   2.8299e-06 -4.57806e-05 
         400     0.158827    0.0613835   3.3103e-06 -4.57774e-05 
         400     0.171284    0.0661972  3.84989e-06 -4.57741e-05 
         400     0.184201    0.0711885  4.45237e-06 -4.57707e-05 
         400     0.197599    0.0763654  5.12353e-06 -4.57672e-05 
         400     0.211455    0.0817188  5.86712e-06 -4.57636e-05 
         400     0.225792    0.0872577   6.6895e-06 -4.57598e-05 
         400       0.2406     0.092978  7.59544e-06 -4.57559e-05 
         400     0.255865    0.0988742  8.58944e-06 -4.57519e-05 
         400     0.271613     0.104956  9.67883e-06 -4.57478e-05 
         400     0.287818     0.111214  1.08676e-05 -4.57435e-05 
         400     0.304506     0.117657  1.21635e-05 -4.57391e-05 
         400      0.32165     0.124274  1.35706e-05 -4.57346e-05 
         400     0.339278     0.131077  1.50974e-05   -4.573e-05 
         400     0.357377      0.13806  1.67493e-05 -4.57252e-05 
         400      0.37593     0.145216  1.85313e-05 -4.57203e-05 
         400     0.394968     0.152556  2.04529e-05 -4.57153e-05 
         400     0.414461     0.160069   2.2518e-05 -4.57101e-05 
         400      0.43444     0.167765  2.47368e-05 -4.57048e-05 
         400     0.454872     0.175633  2.71128e-05 -4.56994e-05 
         400     0.475791     0.183683  2.96572e-05 -4.56939e-05 
         400     0.497163     0.191903  3.23731e-05 -4.56882e-05 
         400     0.519021     0.200303  3.52722e-05 -4.56824e-05 
         400      0.54135     0.208878  3.83601e-05 -4.56765e-05 
         400     0.564131     0.217619  4.16418e-05 -4.56704e-05 
         400       0.5874     0.226539  4.51301e-05 -4.56642e-05 
         400     0.611121     0.235623  4.88274e-05 -4.56578e-05 
         400      0.63533     0.244882  5.27471e-05 -4.56513e-05 
         400      0.65999     0.254302   5.6891e-05 -4.56447e-05 
         400     0.685139     0.263895  6.12734e-05 -4.56379e-05 
         400     0.710759     0.273652  6.58992e-05  -4.5631e-05 
         400     0.736828     0.283564  7.07721e-05 -4.56239e-05 
         400     0.763387     0.293643  7.59075e-05 -4.56167e-05 
         400     0.790396     0.303872  8.13055e-05 -4.56093e-05 
         400     0.817896     0.314264  8.69818e-05 -4.56017e-05 
         400     0.845843     0.324799  9.29348e-05  -4.5594e-05 
         400     0.874283     0.335491  9.91815e-05 -4.55861e-05 
         400      0.90317     0.346321  0.000105719 -4.55781e-05 
         400     0.932551     0.357302  0.000112565 -4.55698e-05 
         400     0.962401     0.368421  0.000119721 -4.55614e-05 
         400     0.992697     0.379664  0.000127187 -4.55528e-05 
         400      1.02349     0.391047  0.000134982  -4.5544e-05 
         400      1.05472     0.402545  0.000143097  -4.5535e-05 
         400      1.08645     0.414172  0.000151553 -4.55257e-05 
         400      1.11863     0.425905   0.00016034 -4.55163e-05 
         400       1.1513     0.437755  0.000169476 -4.55067e-05 
         400      1.18444     0.449708  0.000178957 -4.54968e-05 
         400      1.21802     0.461746   0.00018878 -4.54867e-05 
         400      1.25211     0.473884  0.000198963 -4.54763e-05 
         400      1.28663     0.486093  0.000209489 -4.54657e-05 
         400      1.32165     0.498387  0.000220379 -4.54548e-05 
         400      1.35712     0.510736  0.000231613 -4.54436e-05 
         400      1.39308     0.523152   0.00024321 -4.54321e-05 
         400      1.42951     0.535617  0.000255158 -4.54202e-05 
         400      1.46638      0.54811  0.000267444 -4.54081e-05 
         400      1.50375     0.560643  0.000280084 -4.53958e-05 
         400      1.54156     0.573185  0.000293053 -4.53834e-05 
         400      1.57987     0.585744  0.000306367 -4.53704e-05 
         400      1.61863     0.598292  0.000319996 -4.53568e-05 
         400      1.65788     0.610835  0.000333952 -4.53428e-05 
         400      1.69757     0.623343  0.000348204 -4.53284e-05 
         400      1.73776     0.635823  0.000362761 -4.53135e-05 
         400      1.77842     0.648253    0.0003776 -4.52983e-05 
         400      1.81952      0.66061  0.000392694 -4.52827e-05 
         400      1.86113     0.672901  0.000408053 -4.52667e-05 
         400      1.90316     0.685094  0.000423633 -4.52503e-05 
         400      1.94571     0.697195  0.000439443 -4.52334e-05 
         400      1.98869      0.70917  0.000455437 -4.52161e-05 
         400      2.03217     0.721026  0.000471618 -4.51983e-05 
         400      2.07612     0.732739  0.000487953   -4.518e-05 
         400      2.12051     0.744287  0.000504403 -4.51611e-05 
         400       2.1654     0.755675  0.000520969 -4.51416e-05 
         400      2.21073     0.766871  0.000537599 -4.51216e-05 
         400      2.25656      0.77788  0.000554292 -4.51008e-05 
         400      2.30283     0.788673  0.000570992 -4.50795e-05 
         400       2.3496     0.799252  0.000587697 -4.50574e-05 
         400      2.39685     0.809599  0.000604364 -4.50347e-05 
         400      2.44452     0.819694  0.000620948 -4.50114e-05 
         400      2.49271     0.829541  0.000637445 -4.49874e-05 
         400      2.54132     0.839115  0.000653798 -4.49627e-05 
         400      2.59044     0.848421  0.000670001 -4.49374e-05 
         400         2.64     0.857437  0.000685999 -4.49115e-05 
         400      2.69006     0.866168  0.000701786  -4.4885e-05 
         400      2.74056     0.874593  0.000717307 -4.48579e-05 
         400      2.79156      0.88272  0.000732558 -4.48301e-05 
         400      2.84304     0.890536  0.000747497 -4.48018e-05 
         400      2.89494     0.898033  0.000762088 -4.47729e-05 
         400      2.94735     0.905218  0.000776327 -4.47434e-05 
         400       3.0002     0.912079  0.000790169 -4.47132e-05 
         400      3.05355     0.918624  0.000803611 -4.46824e-05 
         400      3.10733     0.924846  0.000816614 -4.46509e-05 
         400      3.16163     0.930753  0.000829178 -4.46186e-05 
         400      3.21639     0.936345  0.000841278 -4.45856e-05 
         400      3.27158     0.941621  0.000852889 -4.45519e-05 
         400      3.32729     0.946592  0.000864018 -4.45174e-05 
         400      3.38342     0.951258  0.000874638 -4.44822e-05 
         400      3.44007     0.955632   0.00088476 -4.44465e-05 
         400      3.49714     0.959715  0.000894363 -4.44105e-05 
         400      3.55472     0.963521  0.000903461 -4.43745e-05 
         400      3.61273     0.967053  0.000912044 -4.43391e-05 
         400      3.67125     0.970326  0.000920132  -4.4305e-05 
         400      3.73025     0.973349   0.00092773 -4.42732e-05 
         400      3.78967     0.976129  0.000934817 -4.42372e-05 
         400      3.84961     0.978681  0.000941429 -4.41967e-05 
         400      3.90996     0.981014  0.000947575 -4.41555e-05 
         400      3.97084     0.983143  0.000953276 -4.41138e-05 
         400      4.03214     0.985076  0.000958534 -4.40721e-05 
         400      4.09395     0.986828  0.000963372 -4.40301e-05 
         400      4.15624     0.988409  0.000967804  -4.3988e-05 
         400      4.21895      0.98983  0.000971845 -4.39456e-05 
         400      4.28217     0.991104  0.000975521 -4.39026e-05 
         400      4.34582     0.992241  0.000978848  -4.3859e-05 
         400      4.40998     0.993254  0.000981853 -4.38145e-05 
         400      4.47457      0.99415  0.000984553 -4.37692e-05 
         400      4.53968     0.994943  0.000986974  -4.3723e-05 
         400      4.60525      0.99564  0.000989135  -4.3676e-05 
         400      4.67125      0.99625  0.000991056 -4.36283e-05 
         400      4.73777     0.996783   0.00099276 -4.35802e-05 
         400       4.8047     0.997245  0.000994263 -4.35319e-05 
         400      4.87216     0.997646  0.000995586 -4.34837e-05 
         400      4.94003     0.997991  0.000996744  -4.3436e-05 
         400      5.00843     0.998288  0.000997753  -4.3389e-05 
         400      5.07724     0.998541  0.000998628  -4.3343e-05 
         400      5.14658     0.998757  0.000999383  -4.3298e-05 
         400      5.21639     0.998939   0.00100003 -4.32541e-05 
         400      5.28661     0.999093   0.00100058 -4.32112e-05 
         400      5.35736     0.999223   0.00100105 -4.31687e-05 
         400      5.42852     0.999331   0.00100145  -4.3126e-05 
         400      5.50021     0.999421   0.00100178 -4.30823e-05 
         400      5.57231     0.999495   0.00100206 -4.30364e-05 
         400      5.64493     0.999556   0.00100229 -4.29867e-05 
         400      5.71803     0.999607   0.00100248 -4.29317e-05 
         400      5.79154     0.999648   0.00100263 -4.28696e-05 
         400      5.86558     0.999681   0.00100281 -4.28017e-05 
         400      5.94003     0.999708   0.00100297 -4.27353e-05 
         400      6.01501      0.99973    0.0010031 -4.26727e-05 
         400       6.0904     0.999747   0.00100317 -4.26166e-05 
         400      6.16632     0.999761   0.00100315   -4.257e-05 
         400      6.24271     0.999772   0.00100317 -4.25297e-05 
         400       6.3195     0.999781   0.00100329 -4.24811e-05 
         400      6.39683     0.999787   0.00100336 -4.24278e-05 
         400      6.47457     0.999793   0.00100339 -4.23727e-05 
         400      6.55284     0.999797   0.00100338 -4.23177e-05 
         400      6.63152       0.9998   0.00100334 -4.22644e-05 
         400      6.71073     0.999803   0.00100336 -4.22173e-05 
         400      6.79034     0.999805   0.00100337 -4.21698e-05 
         400      6.87049     0.999806   0.00100337 -4.21186e-05 
         400      6.95111     0.999807   0.00100337 -4.20632e-05 
         400      7.03214     0.999808   0.00100338 -4.20044e-05 
         400       7.1137     0.999809    0.0010034 -4.19435e-05 
         400      7.19566      0.99981   0.00100343 -4.18822e-05 
         400      7.27816      0.99981   0.00100346 -4.18219e-05 
         400      7.36106     0.999811    0.0010035 -4.17634e-05 
         400      7.44451     0.999811   0.00100353 -4.17074e-05 
         400      7.52842     0.999812   0.00100355 -4.16535e-05 
         400      7.61273     0.999812   0.00100356 -4.16013e-05 
         400      7.69758     0.999812   0.00100357 -4.15495e-05 
         400      7.78283     0.999813   0.00100356 -4.14969e-05 
         400      7.86862     0.999813   0.00100355 -4.14424e-05 
         400      7.95481     0.999813   0.00100354 -4.13848e-05 
         400      8.04155     0.999813   0.00100354 -4.13236e-05 
         400      8.12868     0.999814   0.00100354  -4.1259e-05 
         400      8.21635     0.999814   0.00100355 -4.11917e-05 
         400      8.30449     0.999814   0.00100357 -4.11234e-05 
         400      8.39303     0.999814   0.00100358 -4.10563e-05 
         400      8.48211     0.999815   0.00100359 -4.09924e-05 
         400      8.57159     0.999815   0.00100359 -4.09334e-05 
         400      8.66161     0.999815   0.00100358 -4.08792e-05 
         400      8.75203     0.999815   0.00100355 -4.08267e-05 
         400      8.84299     0.999816   0.00100355 -4.07674e-05 
         400      8.93443     0.999816   0.00100364 -4.06853e-05 
         400      9.02626     0.999816   0.00100361 -4.06343e-05 
         400      9.11863     0.999817   0.00100357 -4.05801e-05 
         400      9.21139     0.999817   0.00100359 -4.05065e-05 
         400      9.30471     0.999817   0.00100363 -4.04285e-05 
         400      9.39841     0.999817   0.00100366 -4.03545e-05 
         400      9.49267     0.999818   0.00100369 -4.02879e-05 
         400      9.58739     0.999818    0.0010037 -4.02286e-05 
         400      9.68251     0.999818    0.0010037 -4.01745e-05 
         400      9.77817     0.999818   0.00100369 -4.01221e-05 
         400      9.87422     0.999819   0.00100368 -4.00678e-05 
         400      9.97083     0.999819   0.00100368 -4.00083e-05 
         400      10.0678     0.999819   0.00100367 -3.99416e-05 
         400      10.1654      0.99982   0.00100367 -3.98666e-05 
         400      10.2633      0.99982   0.00100369 -3.97842e-05 
         400      10.3618      0.99982   0.00100372 -3.96965e-05 
         400      10.4607      0.99982   0.00100377 -3.96078e-05 
         400      10.5601     0.999821   0.00100382 -3.95243e-05 
         400        10.66     0.999821   0.00100385 -3.94538e-05 
         400      10.7603     0.999821   0.00100382  -3.9401e-05 
         400      10.8611     0.999822   0.00100386 -3.93263e-05 
         400      10.9623     0.999822   0.00100386 -3.92682e-05 
         400      11.0641     0.999822   0.00100384 -3.92192e-05 
         400      11.1663     0.999823   0.00100381 -3.91731e-05 
         400       11.269     0.999823   0.00100378 -3.91244e-05 
         400      11.3721     0.999823   0.00100377  -3.9069e-05 
         400      11.4757     0.999823   0.00100378 -3.90038e-05 
         400      11.5798     0.999824   0.00100381 -3.89275e-05 
         400      11.6844     0.999824   0.00100385 -3.88406e-05 
         400      11.7894     0.999824   0.00100391 -3.87458e-05 
         400       11.895     0.999825   0.00100396 -3.86488e-05 
         400      12.0009     0.999825     0.001004 -3.85589e-05 
         400      12.1073     0.999825   0.00100399 -3.84894e-05 
         400      12.2142     0.999825   0.00100394 -3.84387e-05 
         400      12.3216     0.999826     0.001004 -3.83223e-05 
         400      12.4294     0.999826   0.00100399 -3.82362e-05 
         400      12.5378     0.999826   0.00100396 -3.81673e-05 
         400      12.6465     0.999827   0.00100392 -3.81065e-05 
         400      12.7558     0.999827    0.0010039 -3.80474e-05 
         400      12.8656     0.999827   0.00100391  -3.7986e-05 
         400      12.9757     0.999828   0.00100393   -3.792e-05 
         400      13.0864     0.999828   0.00100396 -3.78486e-05 
         400      13.1975     0.999828     0.001004 -3.77723e-05 
         400      13.3092     0.999829   0.00100404 -3.76916e-05 
         400      13.4212     0.999829   0.00100408 -3.76081e-05 
         400      13.5338     0.999829   0.00100411 -3.75229e-05 
         400      13.6468      0.99983   0.00100412 -3.74375e-05 
         400      13.7603      0.99983   0.00100413  -3.7353e-05 
         400      13.8743      0.99983   0.00100413 -3.72701e-05 
         400      13.9886      0.99983   0.00100411 -3.71893e-05 
         400      14.1036     0.999831    0.0010041 -3.71105e-05 
         400      14.2189     0.999831   0.00100408 -3.70337e-05 
         400      14.3348     0.999832   0.00100407  -3.6958e-05 
         400       14.451     0.999832   0.00100406 -3.68828e-05 
         400      14.5678     0.999832   0.00100406  -3.6807e-05 
         400      14.6851     0.999833   0.00100406 -3.67298e-05 
         400      14.8028     0.999833   0.00100407 -3.66505e-05 
         400       14.921     0.999833   0.00100409 -3.65682e-05 
         400      15.0396     0.999834   0.00100412 -3.64831e-05 
         400      15.1588     0.999834   0.00100414 -3.63951e-05 
         400      15.2783     0.999834   0.00100416  -3.6305e-05 
         400      15.3984     0.999835   0.00100418 -3.62137e-05 
         400       15.519     0.999835    0.0010042 -3.61229e-05 
         400        15.64     0.999835   0.00100421 -3.60341e-05 
         400      15.7615     0.999836   0.00100422 -3.59488e-05 
         400      15.8834     0.999836   0.00100424 -3.58682e-05 
         400      16.0058     0.999836   0.00100428 -3.57923e-05 
         400      16.1286     0.999837   0.00100431 -3.57222e-05 
         400       16.252     0.999837   0.00100432 -3.56582e-05 
         400      16.3759     0.999838   0.00100431 -3.55825e-05 
         400      16.5002     0.999838   0.00100431 -3.54704e-05 
         400       16.625     0.999838   0.00100437 -3.52832e-05 
         400      16.7501     0.999838   0.00100438 -3.51253e-05 
         400      16.8759     0.999839   0.00100417 -3.51815e-05 
         400       17.002     0.999839   0.00100411 -3.50953e-05 
         400      17.1287     0.999839   0.00100418 -3.50158e-05 
         400      17.2557      0.99984   0.00100428 -3.49597e-05 
         400      17.3834     0.999841   0.00100432 -3.48851e-05 
         400      17.5115     0.999841   0.00100432 -3.47985e-05 
         400      17.6399     0.999841   0.00100432 -3.47051e-05 
         400       17.769     0.999842   0.00100432 -3.46082e-05 
         400      17.8984     0.999842   0.00100432 -3.45105e-05 
         400      18.0284     0.999842   0.00100434 -3.44135e-05 
         400      18.1587     0.999843   0.00100436 -3.43181e-05 
         400      18.2896     0.999843   0.00100439 -3.42246e-05 
         400       18.421     0.999844   0.00100441  -3.4133e-05 
         400      18.5528     0.999844   0.00100444 -3.40429e-05 
         400      18.6851     0.999844   0.00100447 -3.39537e-05 
         400      18.8178     0.999845   0.00100449  -3.3865e-05 
         400      18.9511     0.999845    0.0010045 -3.37761e-05 
         400      19.0847     0.999846   0.00100451 -3.36864e-05 
         400      19.2189     0.999846   0.00100452 -3.35955e-05 
         400      19.3535     0.999846   0.00100452 -3.35033e-05 
         400      19.4886     0.999847   0.00100453 -3.34093e-05 
         400      19.6242     0.999847   0.00100453 -3.33138e-05 
         400      19.7602     0.999848   0.00100453 -3.32169e-05 
         400      19.8968     0.999848   0.00100453 -3.31187e-05 
         400      20.0337     0.999848   0.00100454 -3.30197e-05 
         400      20.1712     0.999849   0.00100455 -3.29201e-05 
         400      20.3091     0.999849   0.00100455 -3.28206e-05 
         400      20.4475      0.99985   0.00100456 -3.27214e-05 
         400      20.5864      0.99985   0.00100456 -3.26228e-05 
         400      20.7257      0.99985   0.00100456 -3.25253e-05 
         400      20.8655     0.999851   0.00100457 -3.24286e-05 
         400      21.0058     0.999851   0.00100457  -3.2333e-05 
         400      21.1465     0.999851   0.00100457 -3.22382e-05 
         400      21.2877     0.999852   0.00100458  -3.2144e-05 
         400      21.4294     0.999852   0.00100459 -3.20499e-05 
         400      21.5716     0.999853   0.00100461 -3.19556e-05 
         400      21.7142     0.999853   0.00100464  -3.1861e-05 
         400      21.8573     0.999853   0.00100467 -3.17659e-05 
         400      22.0008     0.999854    0.0010047 -3.16707e-05 
         400      22.1449     0.999854   0.00100468 -3.15642e-05 
         400      22.2893     0.999855   0.00100468 -3.14604e-05 
         400      22.4344     0.999855   0.00100468 -3.13575e-05 
         400      22.5797     0.999856   0.00100469 -3.12548e-05 
         400      22.7257     0.999856    0.0010047 -3.11515e-05 
         400      22.8721     0.999856   0.00100471 -3.10476e-05 
         400      23.0189     0.999857   0.00100472 -3.09432e-05 
         400      23.1663     0.999857   0.00100474 -3.08383e-05 
         400       23.314     0.999858   0.00100476 -3.07334e-05 
         400      23.4623     0.999858   0.00100478 -3.06288e-05 
         400       23.611     0.999859   0.00100481 -3.05247e-05 
         400      23.7602     0.999859   0.00100483 -3.04214e-05 
         400        23.91      0.99986   0.00100486  -3.0319e-05 
         400        24.06      0.99986   0.00100488 -3.02176e-05 
         400      24.2107      0.99986    0.0010049 -3.01169e-05 
         400      24.3617     0.999861   0.00100492  -3.0017e-05 
         400      24.5133     0.999861   0.00100492 -2.99172e-05 
         400      24.6653     0.999862   0.00100493 -2.98173e-05 
         400      24.8178     0.999862   0.00100492 -2.97168e-05 
         400      24.9708     0.999863   0.00100491 -2.96152e-05 
         400      25.1242     0.999863    0.0010049 -2.95122e-05 
         400      25.2781     0.999864   0.00100488 -2.94071e-05 
         400      25.4324     0.999864   0.00100487 -2.92998e-05 
         400      25.5873     0.999864   0.00100487   -2.919e-05 
         400      25.7426     0.999865   0.00100487 -2.90779e-05 
         400      25.8984     0.999865   0.00100488 -2.89634e-05 
         400      26.0546     0.999865    0.0010049 -2.88473e-05 
         400      26.2114     0.999866   0.00100493   -2.873e-05 
         400      26.3686     0.999866   0.00100497 -2.86126e-05 
         400      26.5262     0.999867   0.00100502 -2.84965e-05 
         400      26.6844     0.999868   0.00100506 -2.83829e-05 
         400      26.8429     0.999868   0.00100509 -2.82738e-05 
         400       27.002     0.999869   0.00100511 -2.81707e-05 
         400      27.1615     0.999869    0.0010051 -2.80757e-05 
         400      27.3216      0.99987   0.00100506 -2.79903e-05 
         400      27.4821      0.99987   0.00100499 -2.79163e-05 
         400       27.643      0.99987   0.00100494 -2.78096e-05 
         400      27.8044     0.999871   0.00100499 -2.76343e-05 
         400      27.9663     0.999871   0.00100504  -2.7493e-05 
         400      28.1287     0.999872   0.00100508 -2.73735e-05 
         400      28.2914     0.999872   0.00100511  -2.7267e-05 
         400      28.4548     0.999872   0.00100513 -2.71664e-05 
         400      28.6185     0.999873   0.00100515 -2.70672e-05 
         400      28.7828     0.999873   0.00100516 -2.69662e-05 
         400      28.9475     0.999874   0.00100517 -2.68615e-05 
         400      29.1126     0.999874   0.00100518 -2.67525e-05 
         400      29.2784     0.999875   0.00100519  -2.6639e-05 
         400      29.4444     0.999876    0.0010052 -2.65216e-05 
         400       29.611     0.999876   0.00100521  -2.6401e-05 
         400       29.778     0.999877   0.00100522 -2.62783e-05 
         400      29.9456     0.999877   0.00100524 -2.61544e-05 
         400      30.1137     0.999878   0.00100525 -2.60302e-05 
         400      30.2821     0.999878   0.00100526 -2.59067e-05 
         400      30.4511     0.999879   0.00100526 -2.57844e-05 
         400      30.6204     0.999879   0.00100526 -2.56637e-05 
         400      30.7903      0.99988   0.00100526 -2.55446e-05 
         400      30.9606      0.99988   0.00100526 -2.54273e-05 
         400      31.1315      0.99988   0.00100525 -2.53114e-05 
         400      31.3028     0.999881   0.00100525 -2.51964e-05 
         400      31.4745     0.999881   0.00100525 -2.50822e-05 
         400      31.6468     0.999882   0.00100525 -2.49679e-05 
         400      31.8194     0.999882   0.00100526 -2.48532e-05 
         400      31.9926     0.999883   0.00100528 -2.47376e-05 
         400      32.1662     0.999883   0.00100531 -2.46209e-05 
         400      32.3404     0.999884   0.00100534 -2.45029e-05 
         400      32.5149     0.999884   0.00100538 -2.43838e-05 
         400        32.69     0.999885   0.00100542 -2.42637e-05 
         400      32.8655     0.999885   0.00100545 -2.41431e-05 
         400      33.0414     0.999886   0.00100547 -2.40227e-05 
         400       33.218     0.999887   0.00100547 -2.39028e-05 
         400      33.3948     0.999887   0.00100545 -2.37839e-05 
         400      33.5723     0.999887   0.00100541 -2.36658e-05 
         400        33.75     0.999888   0.00100535  -2.3548e-05 
         400      33.9284     0.999888   0.00100528 -2.34286e-05 
         400      34.1073     0.999889   0.00100532 -2.33024e-05 
         400      34.2865      0.99989   0.00100538 -2.31692e-05 
         400      34.4663      0.99989   0.00100544 -2.30312e-05 
         400      34.6465     0.999891   0.00100548  -2.2891e-05 
         400      34.8272     0.999891   0.00100551 -2.27502e-05 
         400      35.0083     0.999892   0.00100551 -2.26109e-05 
         400        35.19     0.999892   0.00100551  -2.2474e-05 
         400      35.3721     0.999893   0.00100549 -2.23405e-05 
         400      35.5546     0.999894   0.00100547  -2.2211e-05 
         400      35.7377     0.999894   0.00100545 -2.20851e-05 
         400      35.9211     0.999895   0.00100544 -2.19624e-05 
         400      36.1052     0.999895   0.00100544 -2.18416e-05 
         400      36.2895     0.999896   0.00100546  -2.1721e-05 
         400      36.4745     0.999897    0.0010055 -2.15981e-05 
         400      36.6598     0.999897   0.00100557   -2.147e-05 
         400      36.8457     0.999898   0.00100568 -2.13327e-05 
         400      37.0321     0.999898   0.00100566 -2.12251e-05 
         400      37.2188     0.999899   0.00100567 -2.11132e-05 
         400      37.4062     0.999899   0.00100569 -2.09946e-05 
         400      37.5938     0.999899   0.00100572 -2.08695e-05 
         400      37.7821       0.9999   0.00100574 -2.07382e-05 
         400      37.9707       0.9999   0.00100576  -2.0602e-05 
         400      38.1599     0.999901   0.00100576 -2.04615e-05 
         400      38.3496     0.999901   0.00100574 -2.03182e-05 
         400      38.5396     0.999902   0.00100572 -2.01732e-05 
         400      38.7302     0.999903    0.0010057 -2.00274e-05 
         400      38.9211     0.999903   0.00100567 -1.98821e-05 
         400      39.1127     0.999904   0.00100565 -1.97378e-05 
         400      39.3046     0.999905   0.00100565 -1.95954e-05 
         400      39.4971     0.999905   0.00100566 -1.94551e-05 
         400      39.6899     0.999906   0.00100569 -1.93176e-05 
         400      39.8833     0.999906   0.00100574 -1.91827e-05 
         400      40.0772     0.999907   0.00100578 -1.90505e-05 
         400      40.2714     0.999907   0.00100583 -1.89208e-05 
         400      40.4663     0.999908   0.00100586 -1.87928e-05 
         400      40.6615     0.999908   0.00100587 -1.86661e-05 
         400      40.8573     0.999909   0.00100584 -1.85391e-05 
         400      41.0534     0.999909   0.00100578 -1.84104e-05 
         400      41.2501      0.99991    0.0010057 -1.82774e-05 
         400      41.4473     0.999911   0.00100563 -1.81369e-05 
         400      41.6448     0.999912   0.00100564 -1.79846e-05 
         400      41.8429     0.999912   0.00100585 -1.78145e-05 
         400      42.0414     0.999913   0.00100601 -1.76566e-05 
         400      42.2405     0.999913   0.00100581 -1.75375e-05 
         400      42.4399     0.999913   0.00100577 -1.74079e-05 
         400      42.6399     0.999914   0.00100581  -1.7272e-05 
         400      42.8404     0.999914   0.00100589 -1.71328e-05 
         400      43.0412     0.999915   0.00100598 -1.69926e-05 
         400      43.2426     0.999916   0.00100606 -1.68524e-05 
         400      43.4444     0.999916    0.0010061 -1.67132e-05 
         400      43.6467     0.999917   0.00100611  -1.6575e-05 
         400      43.8494     0.999918   0.00100609 -1.64377e-05 
         400      44.0527     0.999918   0.00100604 -1.63008e-05 
         400      44.2563     0.999919   0.00100598 -1.61639e-05 
         400      44.4606     0.999919   0.00100591 -1.60261e-05 
         400      44.6653      0.99992   0.00100584  -1.5887e-05 
         400      44.8704      0.99992   0.00100579 -1.57463e-05 
         400       45.076     0.999921   0.00100575 -1.56032e-05 
         400       45.282     0.999921   0.00100574 -1.54579e-05 
         400      45.4886     0.999922   0.00100576 -1.53102e-05 
         400      45.6955     0.999922    0.0010058 -1.51603e-05 
         400       45.903     0.999922   0.00100587 -1.50087e-05 
         400      46.1111     0.999923   0.00100595 -1.48558e-05 
         400      46.3194     0.999924   0.00100603 -1.47027e-05 
         400      46.5283     0.999924   0.00100612   -1.455e-05 
         400      46.7376     0.999925    0.0010062 -1.43989e-05 
         400      46.9475     0.999926   0.00100627 -1.42501e-05 
         400      47.1577     0.999926   0.00100631 -1.41046e-05 
         400      47.3685     0.999927   0.00100632  -1.3963e-05 
         400      47.5798     0.999928    0.0010063  -1.3826e-05 
         400      47.7914     0.999929   0.00100626 -1.36936e-05 
         400      48.0037     0.999929   0.00100621 -1.35653e-05 