Variables = x, y, u, v, p

Zone, I=416, F=POINT
         -50            0  1.90507e-19  2.48734e-23      60.0883 
         -50     0.013333  0.000166984  6.04619e-08      60.0883 
         -50     0.053333  0.000147484  2.59151e-07      60.0883 
         -50         0.12   0.00013078   6.4929e-07      60.0883 
         -50     0.213332  0.000120293  9.70838e-07      60.0883 
         -50     0.333332  0.000116756  1.34673e-06      60.0882 
         -50         0.48  0.000116972  1.68266e-06      60.0881 
         -50     0.653331  0.000119097  1.23275e-06      60.0879 
         -50     0.853332  0.000124261  8.18381e-07      60.0876 
         -50         1.08  0.000131792  1.02422e-06      60.0872 
         -50      1.33333   0.00013995  9.17221e-07      60.0865 
         -50      1.61333  0.000147645  9.78998e-07      60.0857 
         -50         1.92  0.000159433  1.47043e-06      60.0847 
         -50      2.25333  0.000168816   4.1435e-06      60.0833 
         -50      2.61333  0.000178076   1.0667e-05      60.0815 
         -50            3   0.00018777   1.8708e-05      60.0794 
         -25            0           -0           -0      57.6695 
         -25     0.013333  0.000125623  1.88195e-08      57.6695 
         -25     0.053333  0.000121551  5.83197e-08      57.6695 
         -25         0.12  0.000121019  1.57906e-07      57.6695 
         -25     0.213332  0.000120089  3.93983e-07      57.6695 
         -25     0.333332  0.000117715  8.13736e-07      57.6695 
         -25         0.48  0.000115379  1.38932e-06      57.6694 
         -25     0.653331  0.000114602  2.27605e-06      57.6694 
         -25     0.853332  0.000115055  3.04056e-06      57.6693 
         -25         1.08  0.000115514  3.81165e-06      57.6691 
         -25      1.33333  0.000116063   4.4558e-06      57.6689 
         -25      1.61333  0.000116405  4.69511e-06      57.6685 
         -25         1.92  0.000116309  5.84563e-06      57.6681 
         -25      2.25333  0.000118043  5.18083e-06      57.6676 
         -25      2.61333  0.000119578  5.47035e-06      57.6669 
         -25            3  0.000119585  1.06408e-05      57.6661 
           0            0  1.83194e-15 -1.30516e-15       55.695 
           0     0.013333  0.000303395 -0.000194733      55.6971 
           0     0.053333  0.000192008 -0.000103672      55.7007 
           0         0.12  0.000142235 -7.12593e-05      55.7047 
           0     0.213332  0.000118245 -5.49986e-05       55.709 
           0     0.333332  0.000106332 -4.43567e-05      55.7134 
           0         0.48  9.86088e-05 -3.65752e-05      55.7178 
           0     0.653331  9.32009e-05 -3.06472e-05      55.7221 
           0     0.853332    8.997e-05 -2.59529e-05      55.7262 
           0         1.08  8.92254e-05 -2.21285e-05      55.7303 
           0      1.33333  9.14912e-05 -1.89266e-05      55.7341 
           0      1.61333  9.65799e-05 -1.62277e-05      55.7378 
           0         1.92  0.000101661 -1.38004e-05      55.7412 
           0      2.25333   0.00010276 -1.15618e-05      55.7443 
           0      2.61333  9.82059e-05 -1.04912e-05      55.7472 
           0            3  9.30119e-05 -9.91767e-06      55.7498 
          20            0            0            0       54.462 
          20     0.013333  9.35618e-05   8.4369e-09       54.462 
          20     0.053333  7.93867e-05  4.48441e-09       54.462 
          20         0.12  6.60058e-05 -7.04141e-08       54.462 
          20     0.213332  5.39153e-05 -2.63537e-07       54.462 
          20     0.333332  4.27855e-05 -5.73588e-07       54.462 
          20         0.48  3.29101e-05 -1.02318e-06       54.462 
          20     0.653331  2.59421e-05 -1.59113e-06      54.4619 
          20     0.853332  2.45632e-05 -2.09884e-06      54.4619 
          20         1.08  3.05193e-05 -2.37851e-06      54.4618 
          20      1.33333  4.29573e-05  -2.3217e-06      54.4617 
          20      1.61333  5.92719e-05 -1.98422e-06      54.4615 
          20         1.92  7.76798e-05 -1.22341e-06      54.4613 
          20      2.25333  9.52796e-05 -3.12671e-07      54.4611 
          20      2.61333  0.000109564  7.74397e-07      54.4607 
          20            3  0.000118822   2.2127e-06      54.4603 
          40            0            0            0      53.2091 
          40     0.013333  0.000110886  2.70456e-09      53.2091 
          40     0.053333  0.000155843  5.40593e-08      53.2091 
          40         0.12  0.000202943  5.79395e-07      53.2091 
          40     0.213332  0.000222382  2.54114e-06      53.2091 
          40     0.333332  0.000212072  6.78038e-06      53.2091 
          40         0.48  0.000193136  1.33384e-05      53.2091 
          40     0.653331  0.000181971  2.15163e-05      53.2091 
          40     0.853332  0.000174549  3.01636e-05       53.209 
          40         1.08  0.000159392   3.8259e-05       53.209 
          40      1.33333     0.000136  4.52083e-05       53.209 
          40      1.61333  0.000110124   5.0626e-05      53.2089 
          40         1.92  8.60601e-05  5.36741e-05      53.2088 
          40      2.25333  6.78634e-05  5.41193e-05      53.2087 
          40      2.61333  5.66278e-05  5.24232e-05      53.2086 
          40            3  5.12517e-05  4.95387e-05      53.2084 
          60            0           -0           -0      52.0189 
          60     0.013333  0.000103897 -1.44486e-08      52.0189 
          60     0.053333  0.000145446 -1.99874e-07      52.0189 
          60         0.12  0.000202915 -6.45738e-07      52.0189 
          60     0.213332   0.00025135 -9.62597e-07      52.0189 
          60     0.333332  0.000277221 -4.80372e-07      52.0189 
          60         0.48  0.000285848  1.19441e-06      52.0189 
          60     0.653331  0.000286517  3.84683e-06      52.0188 
          60     0.853332  0.000275123  6.54834e-06      52.0188 
          60         1.08  0.000242924  8.35972e-06      52.0188 
          60      1.33333  0.000199119  9.18388e-06      52.0188 
          60      1.61333  0.000153297  9.59911e-06      52.0187 
          60         1.92   0.00010421  9.42571e-06      52.0187 
          60      2.25333  6.47881e-05  8.92261e-06      52.0186 
          60      2.61333  4.03656e-05  8.24899e-06      52.0185 
          60            3  2.78734e-05  6.54008e-06      52.0184 
          80            0           -0           -0      50.8653 
          80     0.013333  7.30536e-05 -1.77882e-08      50.8653 
          80     0.053333  4.46641e-05 -3.09681e-07      50.8653 
          80         0.12  3.18658e-05 -1.56583e-06      50.8653 
          80     0.213332  4.75826e-05  -4.6314e-06      50.8653 
          80     0.333332  8.12025e-05 -9.88826e-06      50.8653 
          80         0.48  0.000111542 -1.70055e-05      50.8653 
          80     0.653331  0.000126219 -2.53425e-05      50.8653 
          80     0.853332  0.000125352 -3.43067e-05      50.8652 
          80         1.08  0.000116371 -4.32926e-05      50.8652 
          80      1.33333  0.000108018 -5.14738e-05      50.8652 
          80      1.61333  0.000101372 -5.80295e-05      50.8652 
          80         1.92  9.12256e-05 -6.20023e-05      50.8652 
          80      2.25333  8.40129e-05 -6.31907e-05      50.8651 
          80      2.61333   8.0154e-05 -6.15677e-05      50.8651 
          80            3  7.81743e-05 -5.72903e-05       50.865 
         100            0            0            0      49.7348 
         100     0.013333  5.55357e-05  7.25956e-09      49.7348 
         100     0.053333  -1.9331e-05  2.56082e-08      49.7348 
         100         0.12 -9.68883e-05 -3.36779e-07      49.7348 
         100     0.213332 -0.000140753 -2.15833e-06      49.7348 
         100     0.333332 -0.000144656 -6.47587e-06      49.7348 
         100         0.48 -0.000130903 -1.34035e-05      49.7348 
         100     0.653331 -0.000118478 -2.21243e-05      49.7348 
         100     0.853332  -0.00010337 -3.12242e-05      49.7348 
         100         1.08   -7.367e-05  -3.9459e-05      49.7348 
         100      1.33333 -3.42181e-05 -4.62901e-05      49.7348 
         100      1.61333  7.92044e-06 -5.16479e-05      49.7347 
         100         1.92  5.14468e-05 -5.46706e-05      49.7347 
         100      2.25333  8.97691e-05 -5.51025e-05      49.7347 
         100      2.61333  0.000115397 -5.33514e-05      49.7347 
         100            3  0.000126209 -4.92499e-05      49.7346 
         150            0           -0           -0      46.9628 
         150     0.013333  9.31967e-05  1.23295e-08      46.9628 
         150     0.053333    0.0001133  2.09616e-07      46.9628 
         150         0.12  0.000128142  1.10866e-06      46.9628 
         150     0.213332  0.000122761  3.38323e-06      46.9628 
         150     0.333332  0.000103001  7.32837e-06      46.9628 
         150         0.48  8.52229e-05  1.26551e-05      46.9628 
         150     0.653331  7.88281e-05  1.88264e-05      46.9628 
         150     0.853332  8.07032e-05  2.52219e-05      46.9628 
         150         1.08  8.11011e-05  3.11166e-05      46.9628 
         150      1.33333  7.77835e-05  3.60332e-05      46.9628 
         150      1.61333  7.52908e-05  3.98808e-05      46.9628 
         150         1.92  7.39826e-05  4.21849e-05      46.9628 
         150      2.25333  7.25613e-05  4.28049e-05      46.9628 
         150      2.61333  7.19332e-05  4.17687e-05      46.9628 
         150            3  7.26214e-05  3.93559e-05      46.9628 
         200            0  1.94208e-19  9.36035e-26      44.2244 
         200     0.013333  9.70251e-05  7.86436e-09      44.2244 
         200     0.053333  0.000130509  1.39048e-07      44.2244 
         200         0.12  0.000166565  7.70112e-07      44.2244 
         200     0.213332  0.000184082  2.49457e-06      44.2244 
         200     0.333332  0.000179222  5.79509e-06      44.2244 
         200         0.48  0.000163748  1.07659e-05      44.2244 
         200     0.653331  0.000151268  1.71772e-05      44.2244 
         200     0.853332  0.000146599   2.4606e-05      44.2244 
         200         1.08  0.000143899  3.24107e-05      44.2244 
         200      1.33333  0.000134958  3.97945e-05      44.2244 
         200      1.61333  0.000120291  4.61598e-05      44.2244 
         200         1.92  0.000105078  5.09398e-05      44.2244 
         200      2.25333  9.20593e-05  5.37194e-05      44.2244 
         200      2.61333  8.11178e-05  5.43546e-05      44.2244 
         200            3  7.06515e-05  5.28795e-05      44.2244 
         250            0           -0           -0      41.4969 
         250     0.013333  6.40928e-05 -1.74142e-08      41.4969 
         250     0.053333  2.22044e-05 -2.92726e-07      41.4969 
         250         0.12 -6.47066e-06 -1.52151e-06      41.4969 
         250     0.213332 -3.66667e-07 -4.66108e-06      41.4969 
         250     0.333332  3.47227e-05 -1.03026e-05      41.4969 
         250         0.48  7.45038e-05 -1.82524e-05      41.4969 
         250     0.653331  0.000100238  -2.7821e-05      41.4969 
         250     0.853332  0.000108794  -3.8283e-05      41.4969 
         250         1.08  0.000107129 -4.89861e-05      41.4969 
         250      1.33333  0.000103281 -5.92604e-05      41.4969 
         250      1.61333  0.000100369  -6.8421e-05      41.4969 
         250         1.92  9.62243e-05 -7.55498e-05      41.4969 
         250      2.25333  9.22958e-05 -8.00688e-05      41.4969 
         250      2.61333  8.81504e-05 -8.16726e-05      41.4969 
         250            3  8.34818e-05 -8.02992e-05      41.4969 
         300            0           -0           -0      38.7722 
         300     0.013333  6.25064e-05  2.90734e-08      38.7722 
         300     0.053333  2.99796e-06  3.98407e-07      38.7722 
         300         0.12  -7.9972e-05  1.55523e-06      38.7722 
         300     0.213332 -0.000161409  3.42186e-06      38.7722 
         300     0.333332  -0.00021659  5.30935e-06      38.7722 
         300         0.48 -0.000240724  6.52125e-06      38.7722 
         300     0.653331 -0.000244516  6.90044e-06      38.7722 
         300     0.853332 -0.000234642  6.92177e-06      38.7722 
         300         1.08 -0.000206271  7.35298e-06      38.7722 
         300      1.33333 -0.000159204  8.55487e-06      38.7722 
         300      1.61333 -0.000104939  1.00297e-05      38.7722 
         300         1.92 -4.69672e-05   1.1466e-05      38.7722 
         300      2.25333  9.66214e-06   1.2544e-05      38.7722 
         300      2.61333  6.21043e-05  1.32925e-05      38.7722 
         300            3  0.000108461  1.38382e-05      38.7722 
         350            0           -0           -0      36.0484 
         350     0.013333  9.41617e-05 -2.34522e-08      36.0484 
         350     0.053333   0.00013032 -3.33509e-07      36.0484 
         350         0.12  0.000192934 -1.37983e-06      36.0484 
         350     0.213332   0.00026267 -3.27125e-06      36.0484 
         350     0.333332  0.000315331 -5.53808e-06      36.0484 
         350         0.48  0.000340435 -7.50464e-06      36.0484 
         350     0.653331  0.000343995 -8.82966e-06      36.0484 
         350     0.853332  0.000334493 -9.65117e-06      36.0484 
         350         1.08  0.000313779 -1.03265e-05      36.0484 
         350      1.33333  0.000281959 -1.10709e-05      36.0484 
         350      1.61333  0.000242486  -1.1807e-05      36.0484 
         350         1.92   0.00019742 -1.23275e-05      36.0484 
         350      2.25333  0.000150333 -1.26219e-05      36.0484 
         350      2.61333  0.000104617 -1.25708e-05      36.0484 
         350            3  6.35433e-05 -1.21491e-05      36.0484 
         400            0           -0           -0      33.3238 
         400     0.013333  6.57315e-05  9.97909e-09      33.3238 
         400     0.053333  1.88551e-05  1.28295e-07      33.3238 
         400         0.12  -3.9743e-05   4.4048e-07      33.3238 
         400     0.213332 -9.18942e-05  7.53239e-07      33.3238 
         400     0.333332 -0.000123863  6.29268e-07      33.3238 
         400         0.48 -0.000135479  -3.0527e-07      33.3238 
         400     0.653331 -0.000135961 -2.14181e-06      33.3238 
         400     0.853332 -0.000132431 -4.65777e-06      33.3238 
         400         1.08  -0.00012227  -7.3294e-06      33.3238 
         400      1.33333 -9.90578e-05 -9.57866e-06      33.3238 
         400      1.61333 -6.55551e-05 -1.12578e-05      33.3238 
         400         1.92  -2.8198e-05 -1.25103e-05      33.3238 
         400      2.25333  1.06465e-05 -1.32787e-05      33.3239 
         400      2.61333  4.87586e-05 -1.35729e-05      33.3239 
         400            3  8.25996e-05 -1.34126e-05      33.3239 
         450            0  9.37189e-20 -6.51446e-27      30.5986 
         450     0.013333  8.86419e-05 -1.52914e-08      30.5986 
         450     0.053333  0.000108075 -2.15957e-07      30.5986 
         450         0.12  0.000145334 -8.88524e-07      30.5986 
         450     0.213332  0.000189141 -2.11239e-06      30.5986 
         450     0.333332  0.000225113 -3.64579e-06      30.5986 
         450         0.48  0.000246505 -5.14994e-06      30.5986 
         450     0.653331   0.00025568 -6.47671e-06      30.5986 
         450     0.853332  0.000255551 -7.77653e-06      30.5986 
         450         1.08   0.00024432 -9.37558e-06      30.5986 
         450      1.33333  0.000222184 -1.13844e-05      30.5986 
         450      1.61333  0.000195629  -1.3505e-05      30.5986 
         450         1.92  0.000167519 -1.54468e-05      30.5986 
         450      2.25333  0.000138227 -1.70044e-05      30.5986 
         450      2.61333  0.000109159 -1.81156e-05      30.5986 
         450            3  8.25824e-05 -1.87088e-05      30.5986 
         500            0            0            0      27.8719 
         500     0.013333  0.000109677  8.97468e-09      27.8719 
         500     0.053333   0.00017477  1.77916e-07      27.8719 
         500         0.12  0.000242702  1.09422e-06      27.8719 
         500     0.213332  0.000271083   3.8551e-06      27.8719 
         500     0.333332  0.000248525  9.50391e-06      27.8719 
         500         0.48  0.000199111  1.82716e-05      27.8719 
         500     0.653331  0.000154663  2.95042e-05      27.8719 
         500     0.853332  0.000128867  4.21964e-05      27.8719 
         500         1.08  0.000115818  5.53843e-05      27.8719 
         500      1.33333  0.000104964  6.83239e-05      27.8719 
         500      1.61333  9.34197e-05  8.05188e-05      27.8719 
         500         1.92  8.26074e-05   9.1461e-05      27.8719 
         500      2.25333  7.24022e-05  0.000100296      27.8719 
         500      2.61333  6.33345e-05  0.000106411      27.8719 
         500            3  5.64612e-05  0.000109366      27.8719 
         550            0           -0           -0      25.1437 
         550     0.013333  2.31768e-05 -1.82037e-08      25.1437 
         550     0.053333 -0.000124624 -3.47291e-07      25.1437 
         550         0.12 -0.000277586 -2.06391e-06      25.1437 
         550     0.213332 -0.000359689 -7.09174e-06      25.1437 
         550     0.333332 -0.000349267 -1.72162e-05      25.1437 
         550         0.48 -0.000285952 -3.28824e-05      25.1437 
         550     0.653331  -0.00022447 -5.31514e-05      25.1437 
         550     0.853332  -0.00019197 -7.65358e-05      25.1437 
         550         1.08 -0.000180038 -0.000101394      25.1437 
         550      1.33333 -0.000161783 -0.000125929      25.1437 
         550      1.61333 -0.000123374 -0.000148623      25.1437 
         550         1.92  -7.6118e-05 -0.000168517      25.1437 
         550      2.25333 -2.60459e-05 -0.000184615      25.1437 
         550      2.61333  2.47406e-05 -0.000195696      25.1437 
         550            3   7.3246e-05 -0.000200839      25.1437 
         600            0           -0           -0      22.4145 
         600     0.013333  0.000176292 -6.71283e-10      22.4145 
         600     0.053333  0.000415361  1.17501e-07      22.4145 
         600         0.12  0.000691746  1.39078e-06      22.4145 
         600     0.213332  0.000872971  6.48484e-06      22.4145 
         600     0.333332  0.000898902  1.85402e-05      22.4145 
         600         0.48  0.000815921  3.89185e-05      22.4145 
         600     0.653331  0.000713439  6.64309e-05      22.4145 
         600     0.853332  0.000642449  9.84709e-05      22.4145 
         600         1.08  0.000594053  0.000132158      22.4145 
         600      1.33333  0.000534182  0.000165013      22.4145 
         600      1.61333  0.000450968  0.000195492      22.4145 
         600         1.92  0.000359796  0.000222766      22.4145 
         600      2.25333  0.000264796  0.000245336      22.4145 
         600      2.61333  0.000168722  0.000261678      22.4145 
         600            3  7.80449e-05  0.000270598      22.4145 
         650            0            0            0      19.6835 
         650     0.013333 -7.34591e-05  5.10045e-08      19.6835 
         650     0.053333 -0.000491788   5.6546e-07      19.6835 
         650         0.12  -0.00101287  1.20639e-06      19.6835 
         650     0.213332  -0.00142875 -1.11284e-06      19.6835 
         650     0.333332   -0.0016064 -1.12948e-05      19.6835 
         650         0.48  -0.00157513 -3.25218e-05      19.6835 
         650     0.653331  -0.00146154 -6.41626e-05      19.6835 
         650     0.853332  -0.00135812 -0.000102737      19.6835 
         650         1.08  -0.00126206 -0.000143589      19.6835 
         650      1.33333  -0.00112155 -0.000182541      19.6835 
         650      1.61333 -0.000926243 -0.000217653      19.6835 
         650         1.92 -0.000713707 -0.000249073      19.6835 
         650      2.25333 -0.000491912 -0.000275468      19.6836 
         650      2.61333 -0.000263783 -0.000295245      19.6836 
         650            3 -3.97016e-05  -0.00030703      19.6836 
         700            0            0            0      16.9536 
         700     0.013333  0.000200237 -1.26199e-07      16.9536 
         700     0.053333  0.000541423 -1.73136e-06      16.9536 
         700         0.12   0.00104038 -6.73296e-06      16.9536 
         700     0.213332   0.00153618 -1.45302e-05      16.9536 
         700     0.333332   0.00186668 -2.13728e-05      16.9536 
         700         0.48   0.00198815 -2.33065e-05      16.9536 
         700     0.653331   0.00197397 -1.92593e-05      16.9536 
         700     0.853332   0.00190509  -1.1402e-05      16.9536 
         700         1.08   0.00179073 -3.65608e-06      16.9536 
         700      1.33333   0.00160043  7.15287e-07      16.9536 
         700      1.61333   0.00134997  1.57311e-06      16.9536 
         700         1.92   0.00109185  1.17401e-06      16.9536 
         700      2.25333  0.000826841  5.52592e-07      16.9536 
         700      2.61333  0.000550995 -1.76606e-07      16.9536 
         700            3  0.000276602 -1.11806e-06      16.9536 
         750            0           -0           -0      14.2211 
         750     0.013333  4.89133e-05  1.19953e-07      14.2211 
         750     0.053333 -7.46845e-05  1.73482e-06      14.2211 
         750         0.12 -0.000303345  7.39998e-06      14.2211 
         750     0.213332 -0.000590475   1.8408e-05      14.2211 
         750     0.333332 -0.000836397  3.34235e-05      14.2211 
         750         0.48 -0.000974804  4.98124e-05      14.2211 
         750     0.653331  -0.00101284  6.60682e-05      14.2211 
         750     0.853332 -0.000984827  8.28057e-05      14.2211 
         750         1.08 -0.000899392  0.000101907      14.2211 
         750      1.33333 -0.000756339  0.000124364      14.2211 
         750      1.61333 -0.000591744  0.000148519      14.2211 
         750         1.92 -0.000445851  0.000171215      14.2211 
         750      2.25333 -0.000307033  0.000190731      14.2211 
         750      2.61333 -0.000165448  0.000206067      14.2211 
         750            3 -2.45527e-05  0.000216319      14.2211 
         800            0            0            0      11.4886 
         800     0.013333  7.69591e-05  -7.1738e-08      11.4886 
         800     0.053333   8.2345e-05 -1.06468e-06      11.4886 
         800         0.12  0.000143577 -4.72766e-06      11.4886 
         800     0.213332  0.000260634 -1.23756e-05      11.4886 
         800     0.333332  0.000386536  -2.3814e-05      11.4886 
         800         0.48  0.000472526 -3.77154e-05      11.4886 
         800     0.653331  0.000505037 -5.29976e-05      11.4886 
         800     0.853332  0.000493227 -6.96442e-05      11.4886 
         800         1.08  0.000443022 -8.83036e-05      11.4886 
         800      1.33333  0.000364354 -0.000108895      11.4886 
         800      1.61333  0.000287672 -0.000129808      11.4886 
         800         1.92  0.000234986 -0.000148871      11.4886 
         800      2.25333  0.000190422 -0.000165143      11.4886 
         800      2.61333  0.000143975 -0.000177828      11.4886 
         800            3  9.70444e-05 -0.000186063      11.4885 
         850            0           -0           -0      8.75429 
         850     0.013333  8.87083e-05   5.9121e-08      8.75429 
         850     0.053333   8.3891e-05  8.97314e-07      8.75429 
         850         0.12  3.21788e-05  4.11255e-06      8.75429 
         850     0.213332 -7.83085e-05    1.115e-05      8.75429 
         850     0.333332 -0.000208164  2.21572e-05      8.75429 
         850         0.48 -0.000302802  3.59255e-05      8.75429 
         850     0.653331  -0.00033758  5.10322e-05      8.75429 
         850     0.853332 -0.000320592  6.68434e-05      8.75429 
         850         1.08 -0.000269384  8.33657e-05      8.75429 
         850      1.33333 -0.000204578  0.000100229      8.75429 
         850      1.61333 -0.000149586  0.000116266      8.75429 
         850         1.92  -0.00010969  0.000130322       8.7543 
         850      2.25333 -7.05797e-05   0.00014197       8.7543 
         850      2.61333 -2.67271e-05  0.000150703       8.7543 
         850            3  1.88258e-05  0.000155841       8.7543 
         900            0           -0           -0      6.01944 
         900     0.013333 -5.12823e-07 -2.16611e-08      6.01944 
         900     0.053333  -0.00021096 -4.10949e-07      6.01944 
         900         0.12 -0.000440502 -2.44692e-06      6.01944 
         900     0.213332 -0.000580985 -8.49577e-06      6.01944 
         900     0.333332  -0.00058843 -2.09511e-05      6.01944 
         900         0.48 -0.000504972 -4.06982e-05      6.01944 
         900     0.653331 -0.000408325 -6.67815e-05      6.01944 
         900     0.853332 -0.000349405 -9.73613e-05      6.01944 
         900         1.08 -0.000330349 -0.000130455      6.01944 
         900      1.33333 -0.000317483 -0.000163918      6.01944 
         900      1.61333 -0.000278245  -0.00019585      6.01944 
         900         1.92 -0.000216422 -0.000225057      6.01944 
         900      2.25333 -0.000148836  -0.00025105      6.01944 
         900      2.61333 -8.04074e-05 -0.000272475      6.01945 
         900            3 -9.85758e-06 -0.000287829      6.01945 
         950            0           -0           -0      3.28418 
         950     0.013333  0.000112196 -6.93829e-08      3.28418 
         950     0.053333  0.000209139 -9.98157e-07      3.28418 
         950         0.12  0.000380869 -4.19992e-06      3.28418 
         950     0.213332  0.000584065 -1.02326e-05      3.28418 
         950     0.333332  0.000749113 -1.80573e-05      3.28418 
         950         0.48  0.000836727 -2.59835e-05      3.28418 
         950     0.653331  0.000859509 -3.32253e-05      3.28418 
         950     0.853332  0.000845425 -4.04733e-05      3.28418 
         950         1.08  0.000799051 -4.92784e-05      3.28418 
         950      1.33333   0.00071163 -6.07283e-05      3.28418 
         950      1.61333   0.00059925 -7.41726e-05      3.28418 
         950         1.92  0.000497114 -8.76775e-05      3.28418 
         950      2.25333  0.000404221 -9.99289e-05      3.28417 
         950      2.61333  0.000311637 -0.000110344      3.28417 
         950            3  0.000216452 -0.000118553      3.28416 
        1000            0  8.35837e-20  9.11197e-25     0.547115 
        1000     0.013333  5.67892e-05  9.88239e-08     0.547115 
        1000     0.053333  -3.7975e-05  1.41383e-06     0.547115 
        1000         0.12 -0.000214866  6.05168e-06     0.547115 
        1000     0.213332 -0.000444988  1.49971e-05     0.547115 
        1000     0.333332 -0.000647909  2.67069e-05     0.547115 
        1000         0.48  -0.00075206  3.82275e-05     0.547115 
        1000     0.653331 -0.000744683  4.76325e-05     0.547115 
        1000     0.853332 -0.000656936  5.52146e-05     0.547114 
        1000         1.08 -0.000521314  6.24647e-05     0.547114 
        1000      1.33333 -0.000368119  6.98583e-05     0.547114 
        1000      1.61333 -0.000238455   7.5908e-05     0.547115 
        1000         1.92 -0.000148648  7.90667e-05     0.547117 
        1000      2.25333 -6.80382e-05  7.93256e-05      0.54712 
        1000      2.61333  1.88227e-05  7.71378e-05     0.547126 
        1000            3  0.000106918  7.26406e-05     0.547133 
