Variables = x, y, u, v, p

Zone, I=416, F=POINT
         -50            0            0            0     -46.0591 
         -50     0.013333 -0.000291376 -6.59818e-08     -46.0591 
         -50     0.053333 -0.000256936 -2.76746e-07     -46.0591 
         -50         0.12 -0.000238889 -6.81496e-07     -46.0591 
         -50     0.213332 -0.000225333 -1.32508e-06     -46.0591 
         -50     0.333332 -0.000213624 -2.03795e-06      -46.059 
         -50         0.48   -0.0002033 -2.30435e-06      -46.059 
         -50     0.653331 -0.000196617 -3.51127e-06     -46.0588 
         -50     0.853332   -0.0001978 -4.59228e-06     -46.0586 
         -50         1.08 -0.000207024 -5.80908e-06     -46.0583 
         -50      1.33333 -0.000217904 -7.63148e-06     -46.0578 
         -50      1.61333 -0.000226274 -8.81739e-06     -46.0572 
         -50         1.92 -0.000233414 -1.06351e-05     -46.0564 
         -50      2.25333 -0.000254496 -1.44187e-05     -46.0554 
         -50      2.61333 -0.000275517 -1.57615e-05     -46.0541 
         -50            3 -0.000277793 -1.21573e-05     -46.0524 
         -25            0           -0           -0     -44.2243 
         -25     0.013333 -0.000214048 -4.18639e-08     -44.2243 
         -25     0.053333 -0.000188093 -3.52277e-07     -44.2243 
         -25         0.12 -0.000166353 -1.31944e-06     -44.2243 
         -25     0.213332 -0.000142005 -3.14627e-06     -44.2243 
         -25     0.333332 -0.000120688 -5.69706e-06     -44.2243 
         -25         0.48 -0.000107374 -8.67916e-06     -44.2242 
         -25     0.653331 -0.000105495 -1.19939e-05     -44.2242 
         -25     0.853332 -0.000115838 -1.57318e-05     -44.2241 
         -25         1.08 -0.000132908 -1.94877e-05     -44.2239 
         -25      1.33333 -0.000149798 -2.26352e-05     -44.2238 
         -25      1.61333 -0.000165997 -2.47661e-05     -44.2235 
         -25         1.92 -0.000181838   -2.575e-05     -44.2232 
         -25      2.25333 -0.000193413 -2.50014e-05     -44.2228 
         -25      2.61333 -0.000198774 -2.31535e-05     -44.2223 
         -25            3  -0.00020033  -2.2262e-05     -44.2217 
           0            0            0            0     -42.7321 
           0     0.013333 -0.000528283  0.000304806     -42.7338 
           0     0.053333 -0.000312375  0.000156415     -42.7361 
           0         0.12 -0.000243688  0.000100079     -42.7386 
           0     0.213332 -0.000215521  7.53857e-05     -42.7413 
           0     0.333332 -0.000200302  5.99623e-05      -42.744 
           0         0.48 -0.000188174  4.82578e-05     -42.7467 
           0     0.653331 -0.000180365  3.91106e-05     -42.7493 
           0     0.853332  -0.00017671  3.15844e-05     -42.7517 
           0         1.08 -0.000175302  2.51443e-05     -42.7541 
           0      1.33333 -0.000173624  1.95655e-05     -42.7563 
           0      1.61333 -0.000170969  1.48116e-05     -42.7584 
           0         1.92 -0.000167962  1.06868e-05     -42.7603 
           0      2.25333 -0.000164735  7.12071e-06     -42.7621 
           0      2.61333 -0.000164185  3.21466e-06     -42.7637 
           0            3 -0.000165573  7.26793e-07     -42.7652 
          20            0            0            0     -41.8378 
          20     0.013333 -0.000765896 -0.000502277     -41.8363 
          20     0.053333 -0.000702217 -0.000434156     -41.8341 
          20         0.12 -0.000574936 -0.000286282     -41.8317 
          20     0.213332 -0.000469052 -0.000175275     -41.8292 
          20     0.333332 -0.000422028 -0.000105489     -41.8267 
          20         0.48 -0.000418008 -6.24232e-05     -41.8242 
          20     0.653331 -0.000424595 -3.65039e-05     -41.8217 
          20     0.853332 -0.000400215 -1.95516e-05     -41.8193 
          20         1.08 -0.000342698 -7.27157e-06      -41.817 
          20      1.33333 -0.000273581  1.37217e-06     -41.8148 
          20      1.61333 -0.000204303  6.86347e-06     -41.8126 
          20         1.92 -0.000143474  9.77246e-06     -41.8105 
          20      2.25333 -9.65149e-05  1.09423e-05     -41.8085 
          20      2.61333 -6.46915e-05  1.11815e-05     -41.8066 
          20            3 -5.16142e-05  9.93191e-06     -41.8047 
          40            0 -3.88168e-19 -4.14647e-24     -40.8429 
          40     0.013333 -0.000195748  -6.0134e-08     -40.8429 
          40     0.053333 -0.000257537 -9.94111e-07     -40.8429 
          40         0.12 -0.000282113 -5.24924e-06     -40.8429 
          40     0.213332 -0.000224199 -1.57397e-05     -40.8429 
          40     0.333332 -0.000134291 -3.30496e-05     -40.8429 
          40         0.48 -8.36431e-05 -5.50447e-05     -40.8429 
          40     0.653331  -8.5415e-05 -7.87558e-05     -40.8429 
          40     0.853332 -9.74726e-05 -0.000101071     -40.8429 
          40         1.08 -9.55797e-05  -0.00012023     -40.8429 
          40      1.33333 -8.84794e-05 -0.000135001     -40.8428 
          40      1.61333 -8.42991e-05 -0.000143809     -40.8428 
          40         1.92 -9.03478e-05 -0.000145781     -40.8427 
          40      2.25333 -0.000102766 -0.000140356     -40.8426 
          40      2.61333 -0.000115838 -0.000129491     -40.8425 
          40            3 -0.000127824 -0.000115881     -40.8423 
          60            0 -1.93611e-19 -1.13683e-24      -39.936 
          60     0.013333 -0.000205778 -1.71239e-07      -39.936 
          60     0.053333 -0.000286905 -2.61616e-06      -39.936 
          60         0.12 -0.000285393 -1.21246e-05      -39.936 
          60     0.213332 -0.000154645 -3.28311e-05      -39.936 
          60     0.333332  1.87435e-05 -6.47738e-05      -39.936 
          60         0.48  0.000128456 -0.000105167      -39.936 
          60     0.653331  0.000122947 -0.000151892      -39.936 
          60     0.853332  2.18249e-05  -0.00020241     -39.9359 
          60         1.08 -7.47057e-05 -0.000250392     -39.9359 
          60      1.33333  -0.00010796 -0.000289299     -39.9359 
          60      1.61333 -0.000118886 -0.000316414     -39.9359 
          60         1.92 -0.000130955 -0.000329303     -39.9358 
          60      2.25333  -0.00013947 -0.000326414     -39.9358 
          60      2.61333 -0.000141312 -0.000309784     -39.9357 
          60            3 -0.000140199 -0.000284091     -39.9357 
          80            0            0            0     -39.0581 
          80     0.013333 -0.000211208 -9.62267e-08     -39.0581 
          80     0.053333 -0.000336164 -1.52107e-06     -39.0581 
          80         0.12 -0.000430446 -7.39232e-06     -39.0581 
          80     0.213332 -0.000422692 -2.10962e-05     -39.0581 
          80     0.333332 -0.000346742 -4.38488e-05     -39.0581 
          80         0.48 -0.000279876 -7.45249e-05     -39.0581 
          80     0.653331 -0.000271868 -0.000111331     -39.0581 
          80     0.853332 -0.000310819 -0.000151372     -39.0581 
          80         1.08 -0.000322028 -0.000189165     -39.0581 
          80      1.33333 -0.000272872 -0.000219421     -39.0581 
          80      1.61333 -0.000216677 -0.000240887     -39.0581 
          80         1.92 -0.000170534 -0.000252115      -39.058 
          80      2.25333 -0.000129598 -0.000251844      -39.058 
          80      2.61333  -9.4068e-05 -0.000240659      -39.058 
          80            3 -6.72256e-05 -0.000220421     -39.0579 
         100            0            0            0     -38.1981 
         100     0.013333 -0.000204293  2.39204e-08     -38.1981 
         100     0.053333 -0.000345038  2.31379e-07     -38.1981 
         100         0.12 -0.000514834  1.56739e-07     -38.1981 
         100     0.213332 -0.000621681 -2.22931e-06     -38.1981 
         100     0.333332 -0.000635307  -9.3869e-06     -38.1981 
         100         0.48 -0.000595083 -2.21615e-05     -38.1981 
         100     0.653331 -0.000549264 -3.93778e-05     -38.1981 
         100     0.853332 -0.000503914 -5.84746e-05     -38.1981 
         100         1.08 -0.000436842 -7.67715e-05     -38.1981 
         100      1.33333 -0.000350423 -9.23392e-05      -38.198 
         100      1.61333 -0.000264361 -0.000104682      -38.198 
         100         1.92  -0.00017761 -0.000112634      -38.198 
         100      2.25333 -0.000100308 -0.000115129      -38.198 
         100      2.61333 -4.27692e-05 -0.000112603     -38.1979 
         100            3 -1.14174e-05 -0.000106484     -38.1979 
         150            0  -1.9852e-19 -1.48745e-25      -36.089 
         150     0.013333 -0.000239596 -1.52855e-07      -36.089 
         150     0.053333 -0.000436495 -2.41779e-06      -36.089 
         150         0.12 -0.000579741 -1.16243e-05      -36.089 
         150     0.213332  -0.00056496 -3.28452e-05      -36.089 
         150     0.333332 -0.000444824 -6.77443e-05      -36.089 
         150         0.48 -0.000335046 -0.000114487      -36.089 
         150     0.653331 -0.000308068 -0.000170489      -36.089 
         150     0.853332 -0.000356622 -0.000232397      -36.089 
         150         1.08  -0.00039569 -0.000293893     -36.0889 
         150      1.33333 -0.000364521 -0.000347732     -36.0889 
         150      1.61333 -0.000299614 -0.000390045     -36.0889 
         150         1.92 -0.000232297 -0.000417893     -36.0889 
         150      2.25333 -0.000165637 -0.000427973     -36.0889 
         150      2.61333 -0.000106431 -0.000420376     -36.0889 
         150            3 -6.76071e-05 -0.000398374     -36.0889 
         200            0            0            0     -34.0059 
         200     0.013333 -0.000131077  1.05589e-07     -34.0059 
         200     0.053333 -0.000121162  1.57901e-06     -34.0059 
         200         0.12 -0.000181502  6.99709e-06     -34.0059 
         200     0.213332 -0.000295816  1.79938e-05     -34.0059 
         200     0.333332  -0.00039673  3.36149e-05     -34.0059 
         200         0.48 -0.000435589  5.16939e-05     -34.0059 
         200     0.653331 -0.000410396  7.11556e-05     -34.0059 
         200     0.853332 -0.000342611  9.16126e-05     -34.0059 
         200         1.08 -0.000273906  0.000111123     -34.0059 
         200      1.33333 -0.000231946  0.000127216     -34.0059 
         200      1.61333 -0.000197542  0.000139085     -34.0059 
         200         1.92 -0.000158843  0.000146259     -34.0059 
         200      2.25333 -0.000120759   0.00014783     -34.0059 
         200      2.61333 -8.91933e-05  0.000143671     -34.0058 
         200            3  -6.7865e-05  0.000134665     -34.0058 
         250            0            0            0     -31.9318 
         250     0.013333 -0.000255276  3.66675e-08     -31.9318 
         250     0.053333  -0.00053677   2.8135e-07     -31.9318 
         250         0.12 -0.000860253 -4.36544e-07     -31.9318 
         250     0.213332  -0.00105381 -6.14678e-06     -31.9318 
         250     0.333332  -0.00106506 -2.12618e-05     -31.9318 
         250         0.48 -0.000979573 -4.67252e-05     -31.9318 
         250     0.653331 -0.000898709 -7.96178e-05     -31.9318 
         250     0.853332 -0.000835993 -0.000114871     -31.9318 
         250         1.08 -0.000737199 -0.000147369     -31.9318 
         250      1.33333  -0.00059089 -0.000174468     -31.9318 
         250      1.61333  -0.00044192 -0.000196642     -31.9318 
         250         1.92 -0.000297167 -0.000213356     -31.9317 
         250      2.25333 -0.000158433 -0.000222194     -31.9317 
         250      2.61333 -3.68505e-05 -0.000222737     -31.9317 
         250            3  5.35878e-05 -0.000215325     -31.9317 
         300            0            0            0     -29.8605 
         300     0.013333 -0.000240209  2.10393e-07     -29.8605 
         300     0.053333  -0.00053928  2.94598e-06     -29.8605 
         300         0.12  -0.00102438  1.18948e-05     -29.8605 
         300     0.213332  -0.00153603  2.73759e-05     -29.8605 
         300     0.333332  -0.00189503  4.50194e-05     -29.8605 
         300         0.48  -0.00204676   5.9763e-05     -29.8605 
         300     0.653331   -0.0020516  7.01439e-05     -29.8605 
         300     0.853332  -0.00195868  7.87836e-05     -29.8605 
         300         1.08  -0.00176201  8.91796e-05     -29.8605 
         300      1.33333  -0.00147893   0.00010202     -29.8605 
         300      1.61333   -0.0011657  0.000114508     -29.8605 
         300         1.92 -0.000836642  0.000124127     -29.8605 
         300      2.25333 -0.000496804  0.000130397     -29.8605 
         300      2.61333 -0.000175254   0.00013229     -29.8604 
         300            3  8.66764e-05  0.000129644     -29.8604 
         350            0           -0           -0     -27.7891 
         350     0.013333 -6.82519e-05   8.4647e-08     -27.7891 
         350     0.053333   0.00010575  1.35171e-06     -27.7891 
         350         0.12  0.000243847   6.5845e-06     -27.7891 
         350     0.213332  0.000276791  1.89017e-05     -27.7891 
         350     0.333332  0.000228785  3.95524e-05     -27.7891 
         350         0.48  0.000173647   6.7482e-05     -27.7891 
         350     0.653331  0.000161783  0.000100996     -27.7891 
         350     0.853332  0.000198099  0.000138546     -27.7891 
         350         1.08  0.000241315  0.000177426     -27.7891 
         350      1.33333  0.000234228  0.000213499     -27.7891 
         350      1.61333  0.000175155  0.000243786     -27.7891 
         350         1.92  0.000103537  0.000267095     -27.7891 
         350      2.25333  2.79002e-05  0.000281842     -27.7891 
         350      2.61333 -4.81803e-05  0.000286585     -27.7891 
         350            3 -0.000116294  0.000280982     -27.7891 
         400            0            0            0     -25.7184 
         400     0.013333 -9.88989e-05  1.66746e-07     -25.7184 
         400     0.053333 -3.20617e-05  2.57314e-06     -25.7184 
         400         0.12 -9.32929e-05  1.20035e-05     -25.7184 
         400     0.213332 -0.000316538  3.29296e-05     -25.7184 
         400     0.333332 -0.000593305  6.57701e-05     -25.7184 
         400         0.48 -0.000782652   0.00010688     -25.7184 
         400     0.653331 -0.000829796  0.000152277     -25.7184 
         400     0.853332 -0.000761723  0.000199717     -25.7184 
         400         1.08 -0.000645657  0.000246802     -25.7184 
         400      1.33333 -0.000549801  0.000289829     -25.7184 
         400      1.61333 -0.000478191  0.000326185     -25.7184 
         400         1.92 -0.000396121  0.000354649     -25.7184 
         400      2.25333 -0.000301813  0.000373151     -25.7184 
         400      2.61333 -0.000205248  0.000379811     -25.7184 
         400            3 -0.000118359  0.000373867     -25.7184 
         450            0            0            0     -23.6465 
         450     0.013333 -2.45092e-05 -1.23128e-07     -23.6465 
         450     0.053333  0.000320503 -1.65846e-06     -23.6465 
         450         0.12  0.000797308 -6.27606e-06     -23.6465 
         450     0.213332   0.00126097 -1.31281e-05     -23.6465 
         450     0.333332   0.00157698 -1.87179e-05     -23.6465 
         450         0.48   0.00172142 -1.96949e-05     -23.6465 
         450     0.653331   0.00175968 -1.51612e-05     -23.6465 
         450     0.853332   0.00174392 -7.20995e-06     -23.6465 
         450         1.08   0.00164589 -4.44722e-07     -23.6465 
         450      1.33333    0.0014242  1.24753e-06     -23.6465 
         450      1.61333   0.00112982 -1.25191e-06     -23.6465 
         450         1.92  0.000824837 -4.75063e-06     -23.6465 
         450      2.25333  0.000505004 -8.63447e-06     -23.6465 
         450      2.61333  0.000179129 -1.25817e-05     -23.6465 
         450            3 -0.000121153 -1.63227e-05     -23.6466 
         500            0           -0           -0     -21.5756 
         500     0.013333 -2.48887e-05  2.74808e-07     -21.5756 
         500     0.053333  0.000193353  4.31755e-06     -21.5756 
         500         0.12  0.000201107  2.07368e-05     -21.5756 
         500     0.213332  -0.00015388  5.90814e-05     -21.5756 
         500     0.333332 -0.000731345  0.000123034     -21.5756 
         500         0.48  -0.00124219  0.000207957     -21.5756 
         500     0.653331   -0.0015058  0.000305739     -21.5756 
         500     0.853332   -0.0015216  0.000410036     -21.5756 
         500         1.08  -0.00139191  0.000515976     -21.5756 
         500      1.33333  -0.00122968    0.0006182     -21.5756 
         500      1.61333  -0.00107241  0.000711972     -21.5756 
         500         1.92 -0.000897859  0.000793255     -21.5756 
         500      2.25333 -0.000698932  0.000856347     -21.5756 
         500      2.61333 -0.000485387  0.000895909     -21.5756 
         500            3 -0.000277145  0.000908283     -21.5756 
         550            0           -0           -0     -19.5025 
         550     0.013333 -0.000197831 -5.04294e-07     -19.5025 
         550     0.053333 -0.000187399 -7.55197e-06     -19.5025 
         550         0.12  0.000171361 -3.39413e-05     -19.5025 
         550     0.213332  0.000928193  -9.0001e-05     -19.5025 
         550     0.333332   0.00178043 -0.000175348     -19.5025 
         550         0.48   0.00238434 -0.000280838     -19.5025 
         550     0.653331   0.00261855  -0.00039816     -19.5025 
         550     0.853332   0.00252322 -0.000525411     -19.5025 
         550         1.08   0.00217009 -0.000663086     -19.5025 
         550      1.33333   0.00170605 -0.000805264     -19.5025 
         550      1.61333   0.00130854 -0.000939315     -19.5025 
         550         1.92  0.000973909  -0.00105522     -19.5025 
         550      2.25333  0.000627549  -0.00114682     -19.5025 
         550      2.61333  0.000261767  -0.00120758     -19.5025 
         550            3 -8.46069e-05  -0.00123199     -19.5026 
         600            0 -1.59151e-19 -4.93891e-28     -17.4312 
         600     0.013333 -0.000148701  3.77804e-07     -17.4312 
         600     0.053333 -0.000269171  5.58785e-06     -17.4312 
         600         0.12 -0.000692026  2.46735e-05     -17.4312 
         600     0.213332  -0.00137773   6.4112e-05     -17.4312 
         600     0.333332    -0.002065  0.000122305     -17.4312 
         600         0.48  -0.00251062  0.000191861     -17.4312 
         600     0.653331  -0.00266223  0.000266781     -17.4312 
         600     0.853332  -0.00258025   0.00034634     -17.4312 
         600         1.08  -0.00231427  0.000432602     -17.4312 
         600      1.33333  -0.00193189  0.000524169     -17.4312 
         600      1.61333  -0.00155295  0.000613712     -17.4312 
         600         1.92  -0.00122409  0.000693121     -17.4312 
         600      2.25333 -0.000892519  0.000757546     -17.4312 
         600      2.61333 -0.000543897  0.000802686     -17.4312 
         600            3 -0.000207837  0.000824763     -17.4311 
         650            0           -0           -0     -15.3569 
         650     0.013333 -0.000165091 -3.19728e-07     -15.3569 
         650     0.053333 -0.000121849 -4.77353e-06     -15.3569 
         650         0.12  0.000152856 -2.13849e-05     -15.3569 
         650     0.213332  0.000687207 -5.65863e-05     -15.3569 
         650     0.333332   0.00128531 -0.000110165     -15.3569 
         650         0.48   0.00172246 -0.000176418     -15.3569 
         650     0.653331   0.00191607  -0.00025003     -15.3569 
         650     0.853332   0.00189121 -0.000329828     -15.3569 
         650         1.08   0.00168457 -0.000416976     -15.3569 
         650      1.33333   0.00136885 -0.000509299     -15.3569 
         650      1.61333   0.00106525 -0.000599451     -15.3569 
         650         1.92  0.000813072  -0.00068019     -15.3569 
         650      2.25333   0.00056012 -0.000747142      -15.357 
         650      2.61333  0.000289687 -0.000796155      -15.357 
         650            3  2.36543e-05  -0.00082325      -15.357 
         700            0            0            0     -13.2836 
         700     0.013333 -3.90263e-05  4.29534e-08     -13.2836 
         700     0.053333  0.000229212   6.8827e-07     -13.2836 
         700         0.12  0.000528157  3.43264e-06     -13.2836 
         700     0.213332  0.000748354  1.04056e-05     -13.2836 
         700     0.333332  0.000833591  2.36869e-05     -13.2836 
         700         0.48  0.000798602  4.46936e-05     -13.2836 
         700     0.653331  0.000702104  7.39857e-05     -13.2836 
         700     0.853332  0.000611749  0.000111592     -13.2836 
         700         1.08  0.000575834  0.000157184     -13.2836 
         700      1.33333  0.000586344  0.000208878     -13.2836 
         700      1.61333  0.000570713  0.000261817     -13.2836 
         700         1.92  0.000483941  0.000310963     -13.2836 
         700      2.25333  0.000362142  0.000353846     -13.2836 
         700      2.61333  0.000228772   0.00038827     -13.2836 
         700            3  8.92218e-05  0.000412103     -13.2836 
         750            0            0            0     -11.2099 
         750     0.013333  9.39996e-06  2.22352e-07     -11.2099 
         750     0.053333  0.000332983  3.53118e-06     -11.2099 
         750         0.12  0.000503483  1.72766e-05     -11.2099 
         750     0.213332  0.000307943  5.05012e-05     -11.2099 
         750     0.333332 -0.000195513  0.000108398     -11.2099 
         750         0.48 -0.000746067  0.000188943     -11.2099 
         750     0.653331  -0.00111691  0.000285492     -11.2099 
         750     0.853332  -0.00124267  0.000391792     -11.2099 
         750         1.08  -0.00118231    0.0005034     -11.2099 
         750      1.33333  -0.00104833  0.000615567     -11.2099 
         750      1.61333 -0.000929095  0.000722936     -11.2099 
         750         1.92 -0.000825079  0.000821277     -11.2099 
         750      2.25333  -0.00070706  0.000906254     -11.2099 
         750      2.61333 -0.000568763  0.000972724     -11.2098 
         750            3 -0.000420795    0.0010155     -11.2098 
         800            0           -0           -0     -9.13617 
         800     0.013333 -0.000538277  1.09683e-07     -9.13617 
         800     0.053333  -0.00159305  1.18822e-06     -9.13617 
         800         0.12  -0.00294007  2.25227e-06     -9.13617 
         800     0.213332  -0.00404483 -4.15851e-06     -9.13617 
         800     0.333332   -0.0045527 -2.99627e-05     -9.13617 
         800         0.48  -0.00451274 -8.32189e-05     -9.13617 
         800     0.653331  -0.00423898 -0.000162765     -9.13617 
         800     0.853332  -0.00398393 -0.000260257     -9.13618 
         800         1.08  -0.00376623 -0.000364533     -9.13618 
         800      1.33333  -0.00345612  -0.00046525     -9.13617 
         800      1.61333  -0.00299582 -0.000556658     -9.13617 
         800         1.92  -0.00246974 -0.000638866     -9.13616 
         800      2.25333  -0.00192081 -0.000710165     -9.13614 
         800      2.61333   -0.0013476  -0.00076746     -9.13611 
         800            3 -0.000756753 -0.000806437     -9.13607 
         850            0           -0           -0     -7.05833 
         850     0.013333  0.000109544 -4.04835e-07     -7.05833 
         850     0.053333  0.000890634 -5.72014e-06     -7.05833 
         850         0.12    0.0021006 -2.34054e-05     -7.05833 
         850     0.213332   0.00339458 -5.45773e-05     -7.05833 
         850     0.333332   0.00431712 -9.02457e-05     -7.05833 
         850         0.48    0.0046717 -0.000118616     -7.05833 
         850     0.653331   0.00460848 -0.000135361     -7.05833 
         850     0.853332   0.00434932 -0.000146246     -7.05833 
         850         1.08   0.00394273 -0.000162095     -7.05832 
         850      1.33333   0.00335311 -0.000189528     -7.05833 
         850      1.61333   0.00268492 -0.000224717     -7.05833 
         850         1.92   0.00210081  -0.00025825     -7.05834 
         850      2.25333   0.00155153 -0.000285754     -7.05837 
         850      2.61333  0.000980302 -0.000306636      -7.0584 
         850            3  0.000392616  -0.00032037     -7.05844 
         900            0 -1.74453e-19 -1.06404e-25     -4.98519 
         900     0.013333 -0.000200776  6.45392e-07     -4.98519 
         900     0.053333 -0.000555884   9.6097e-06     -4.98519 
         900         0.12  -0.00152247  4.28285e-05     -4.98519 
         900     0.213332   -0.0030236  0.000112357     -4.98519 
         900     0.333332  -0.00453517  0.000215704     -4.98519 
         900         0.48  -0.00552378  0.000338359     -4.98519 
         900     0.653331  -0.00584591  0.000467139     -4.98519 
         900     0.853332  -0.00565336  0.000599497     -4.98519 
         900         1.08  -0.00509765  0.000740591     -4.98519 
         900      1.33333  -0.00431335  0.000891242     -4.98519 
         900      1.61333  -0.00353561    0.0010408     -4.98519 
         900         1.92  -0.00292121   0.00117566     -4.98518 
         900      2.25333  -0.00233874   0.00128972     -4.98516 
         900      2.61333  -0.00170276   0.00137855     -4.98513 
         900            3  -0.00103147   0.00143672     -4.98509 
         950            0           -0           -0     -2.90812 
         950     0.013333 -0.000732109 -3.40598e-07     -2.90812 
         950     0.053333  -0.00214955 -5.72061e-06     -2.90812 
         950         0.12  -0.00357253 -2.99868e-05     -2.90812 
         950     0.213332  -0.00420264 -9.37738e-05     -2.90812 
         950     0.333332  -0.00385373 -0.000213684     -2.90812 
         950         0.48   -0.0029864 -0.000391834     -2.90812 
         950     0.653331  -0.00221753 -0.000617382     -2.90812 
         950     0.853332  -0.00188133 -0.000876424     -2.90812 
         950         1.08  -0.00195076  -0.00115632     -2.90812 
         950      1.33333  -0.00212795   -0.0014416     -2.90812 
         950      1.61333  -0.00207796  -0.00171356     -2.90812 
         950         1.92  -0.00176537  -0.00196005     -2.90811 
         950      2.25333  -0.00139246  -0.00217691      -2.9081 
         950      2.61333  -0.00103523  -0.00235559     -2.90809 
         950            3 -0.000669723  -0.00248443     -2.90807 
        1000            0           -0           -0    -0.828284 
        1000     0.013333  0.000155625 -4.62079e-07    -0.828284 
        1000     0.053333   0.00110011 -6.49035e-06    -0.828284 
        1000         0.12    0.0026282 -2.67409e-05    -0.828284 
        1000     0.213332   0.00437075 -6.33415e-05    -0.828284 
        1000     0.333332   0.00576049 -0.000107283    -0.828283 
        1000         0.48   0.00646941 -0.000145078    -0.828282 
        1000     0.653331   0.00660173 -0.000170085    -0.828279 
        1000     0.853332   0.00643682 -0.000186549    -0.828277 
        1000         1.08   0.00608625 -0.000205617    -0.828276 
        1000      1.33333   0.00547404 -0.000238064    -0.828277 
        1000      1.61333   0.00461857 -0.000285548    -0.828282 
        1000         1.92   0.00374892 -0.000338079    -0.828296 
        1000      2.25333   0.00292435 -0.000385832     -0.82832 
        1000      2.61333   0.00209174 -0.000425688    -0.828358 
        1000            3   0.00121066 -0.000456579    -0.828412 
