Variables = x, y, u, v, p

Zone, I=6400, F=POINT
         -50            0            0            0      50.6056 
         -50     0.000471  2.41478e-05  1.44999e-09      50.6056 
         -50     0.001884  8.47468e-05  5.67805e-09      50.6056 
         -50     0.004239  0.000152698  1.24103e-08      50.6056 
         -50     0.007537  0.000197654  2.14562e-08      50.6056 
         -50     0.011776  0.000205027  3.29592e-08      50.6056 
         -50     0.016958  0.000184164  4.75711e-08      50.6056 
         -50     0.023081  0.000161222  6.63892e-08      50.6056 
         -50      0.03015  0.000159118  9.07643e-08      50.6056 
         -50     0.038157  0.000177307  1.21972e-07      50.6056 
         -50     0.047107  0.000190822  1.61256e-07      50.6056 
         -50     0.056999  0.000181151  2.10121e-07      50.6056 
         -50     0.067837  0.000176927  2.70995e-07      50.6056 
         -50     0.079614    0.0002007  3.46922e-07      50.6056 
         -50     0.092332  0.000190423  4.39685e-07      50.6056 
         -50     0.105992  0.000195463  5.52711e-07      50.6056 
         -50       0.1206  0.000196762  6.89088e-07      50.6056 
         -50     0.136145  0.000197964  8.52227e-07      50.6056 
         -50     0.152631  0.000200032  1.04603e-06      50.6056 
         -50     0.170067  0.000202133  1.27434e-06      50.6056 
         -50     0.188438  0.000203251  1.53979e-06      50.6056 
         -50     0.207751  0.000203755  1.84373e-06      50.6056 
         -50     0.228006  0.000205273  2.18552e-06      50.6056 
         -50     0.249212  0.000206111  2.56343e-06      50.6056 
         -50     0.271351   0.00020733  2.96264e-06      50.6056 
         -50     0.294433  0.000208498  3.37676e-06      50.6056 
         -50     0.318456  0.000209591  3.79096e-06      50.6056 
         -50     0.343432  0.000210719   4.1876e-06      50.6056 
         -50     0.369339  0.000211934   4.5485e-06      50.6056 
         -50     0.396189   0.00021325  4.85935e-06      50.6056 
         -50     0.423981  0.000214647  5.11264e-06      50.6056 
         -50     0.452726  0.000216093  5.31136e-06      50.6056 
         -50     0.482403  0.000217559  5.47091e-06      50.6056 
         -50     0.513021  0.000219033  5.61941e-06      50.6055 
         -50     0.544594  0.000220513  5.79317e-06      50.6055 
         -50     0.577096  0.000221976  6.02596e-06      50.6055 
         -50     0.610541  0.000223309  6.33838e-06      50.6055 
         -50     0.644927  0.000224488  6.85415e-06      50.6055 
         -50      0.68027  0.000225511  7.35624e-06      50.6055 
         -50     0.716541  0.000226327  7.83498e-06      50.6055 
         -50     0.753754  0.000226898  8.28429e-06      50.6054 
         -50     0.791909  0.000227192  8.70087e-06      50.6054 
         -50     0.831022  0.000227191   9.0842e-06      50.6054 
         -50     0.871061  0.000226887  9.43556e-06      50.6054 
         -50     0.912043  0.000226284  9.75837e-06      50.6054 
         -50     0.953966  0.000225396  1.00568e-05      50.6053 
         -50     0.996849  0.000224248  1.03352e-05      50.6053 
         -50      1.04066  0.000222872  1.05969e-05      50.6053 
         -50      1.08541  0.000221304  1.08439e-05      50.6052 
         -50      1.13112  0.000219579  1.10759e-05      50.6052 
         -50      1.17775  0.000217728  1.12897e-05      50.6052 
         -50      1.22533  0.000215769  1.14795e-05      50.6051 
         -50      1.27384  0.000213697  1.16374e-05      50.6051 
         -50      1.32333  0.000211477  1.17549e-05      50.6051 
         -50      1.37373  0.000209032  1.18256e-05       50.605 
         -50      1.42507  0.000206227   1.1849e-05       50.605 
         -50      1.47736  0.000202853  1.18371e-05      50.6049 
         -50      1.53061  0.000197121    1.191e-05      50.6049 
         -50      1.58478  0.000189232   1.1993e-05      50.6048 
         -50      1.63989  0.000181504    1.196e-05      50.6048 
         -50      1.69595   0.00017419  1.18388e-05      50.6047 
         -50      1.75297  0.000167471  1.16525e-05      50.6046 
         -50      1.81091  0.000161477  1.14201e-05      50.6046 
         -50      1.86979  0.000156266  1.11559e-05      50.6045 
         -50      1.92964  0.000151841  1.08697e-05      50.6044 
         -50       1.9904  0.000148162  1.05677e-05      50.6043 
         -50      2.05211  0.000145139  1.02518e-05      50.6043 
         -50      2.11476  0.000142655  9.92091e-06      50.6042 
         -50      2.17838  0.000140566   9.5709e-06      50.6041 
         -50      2.24291  0.000138723  9.19613e-06       50.604 
         -50      2.30839  0.000136975  8.78919e-06      50.6039 
         -50       2.3748  0.000135183  8.34239e-06      50.6038 
         -50      2.44219  0.000133238  7.84827e-06      50.6037 
         -50      2.51049  0.000131065  7.30133e-06      50.6036 
         -50      2.57974  0.000128638  6.69777e-06      50.6035 
         -50      2.64993  0.000125983  6.03719e-06      50.6033 
         -50      2.72108  0.000123185  5.32288e-06      50.6032 
         -50      2.79315  0.000120389  4.56369e-06      50.6031 
         -50      2.86617  0.000117791  3.77284e-06       50.603 
         -50      2.94012  0.000115627  2.96928e-06      50.6028 
         -50      3.01505  0.000114151  2.17709e-06      50.6027 
         -50      3.09089  0.000113609  1.42624e-06      50.6025 
         -50      3.16767  0.000114188  7.49782e-07      50.6024 
         -50      3.24542  0.000115965  1.83325e-07      50.6022 
         -50      3.32409  0.000118829 -2.36641e-07       50.602 
         -50       3.4037  0.000122391 -4.77278e-07      50.6019 
         -50      3.48425  0.000125868 -5.12501e-07      50.6017 
         -50      3.56577  0.000127944 -3.28387e-07      50.6015 
         -50       3.6482  0.000126596  6.98819e-08      50.6013 
         -50      3.73158  0.000118903  6.50374e-07      50.6011 
         -50       3.8159  0.000115036   2.4402e-07      50.6009 
         -50      3.90119  0.000116765 -3.87703e-07      50.6007 
         -50       3.9874  0.000120952 -6.45778e-07      50.6005 
         -50      4.07454   0.00012524 -3.80565e-07      50.6002 
         -50      4.16263  0.000129205  1.01343e-07         50.6 
         -50      4.25169   0.00013261  6.16399e-07      50.5998 
         -50      4.34166  0.000135348  1.07783e-06      50.5995 
         -50      4.43258  0.000137428  1.46971e-06      50.5992 
         -50      4.52447  0.000138935  1.81979e-06       50.599 
         -50      4.61726  0.000140008   2.1746e-06      50.5987 
         -50        4.711  0.000140815  2.57865e-06      50.5984 
         -50      4.80569  0.000141522  3.05646e-06      50.5981 
         -50      4.90135  0.000142271   3.6011e-06      50.5978 
         -50      4.99791   0.00014316  4.16864e-06      50.5975 
         -50      5.09542  0.000144227  4.68368e-06      50.5972 
         -50      5.19387  0.000145439  5.05355e-06      50.5969 
         -50       5.2933  0.000146689  5.19638e-06      50.5965 
         -50      5.39364    0.0001478  5.08402e-06      50.5962 
         -50      5.49491  0.000148547  4.80321e-06      50.5958 
         -50      5.59713  0.000148678  4.63629e-06      50.5955 
         -50      5.70033  0.000148756  4.84597e-06      50.5951 
         -50      5.80443  0.000149735  5.25822e-06      50.5947 
         -50      5.90948   0.00015039  6.06798e-06      50.5943 
         -50      6.01551  0.000150974  6.99498e-06      50.5939 
         -50      6.12244  0.000151609  7.87071e-06      50.5935 
         -50      6.23031  0.000152304  8.60958e-06      50.5931 
         -50      6.33912  0.000152989  9.18251e-06      50.5927 
         -50      6.44892  0.000153567  9.60076e-06      50.5922 
         -50      6.55962  0.000153965  9.90861e-06      50.5917 
         -50      6.67126  0.000154213  1.01901e-05      50.5913 
         -50      6.78384   0.00015455  1.05985e-05      50.5908 
         -50      6.89741  0.000155059  1.11856e-05      50.5903 
         -50      7.01187  0.000155082  1.15864e-05      50.5898 
         -50      7.12728  0.000155154  1.19354e-05      50.5893 
         -50      7.24363   0.00015558  1.23149e-05      50.5887 
         -50      7.36097  0.000156455  1.27585e-05      50.5882 
         -50       7.4792  0.000157685  1.32561e-05      50.5876 
         -50      7.59838  0.000159041  1.37657e-05      50.5871 
         -50      7.71854  0.000160214   1.4228e-05      50.5865 
         -50       7.8396  0.000160892  1.45867e-05      50.5859 
         -50      7.96161  0.000160866  1.48163e-05      50.5853 
         -50      8.08455  0.000160146  1.49553e-05      50.5847 
         -50      8.20849  0.000159112  1.51476e-05       50.584 
         -50      8.33332  0.000159177   1.5204e-05      50.5834 
         -50      8.45909  0.000159954  1.48914e-05      50.5827 
         -50       8.5858  0.000160343  1.47272e-05      50.5821 
         -50      8.71351  0.000160433  1.46752e-05      50.5814 
         -50       8.8421  0.000160318  1.47032e-05      50.5807 
         -50      8.97164   0.00016009  1.47843e-05      50.5799 
         -50      9.10212  0.000159833  1.48983e-05      50.5792 
         -50       9.2336  0.000159616  1.50322e-05      50.5785 
         -50      9.36596   0.00015949    1.518e-05      50.5777 
         -50      9.49927   0.00015948  1.53415e-05      50.5769 
         -50      9.63352  0.000159582  1.55206e-05      50.5761 
         -50      9.76877  0.000159754  1.57216e-05      50.5753 
         -50       9.9049  0.000159914  1.59451e-05      50.5745 
         -50       10.042  0.000159935  1.61821e-05      50.5736 
         -50      10.1801  0.000159637  1.64065e-05      50.5728 
         -50       10.319  0.000158791  1.65655e-05      50.5719 
         -50      10.4589  0.000158356  1.59369e-05       50.571 
         -50      10.5998  0.000159077  1.54471e-05      50.5701 
         -50      10.7416  0.000160393  1.55635e-05      50.5692 
         -50      10.8843  0.000161753  1.62875e-05      50.5682 
         -50       11.028   0.00016243  1.73009e-05      50.5673 
         -50      11.1726   0.00016146  1.77744e-05      50.5663 
         -50      11.3182  0.000157574  1.61288e-05      50.5653 
         -50      11.4647  0.000159301  1.73334e-05      50.5643 
         -50      11.6122  0.000160617  1.87234e-05      50.5633 
         -50      11.7605  0.000161004  1.95246e-05      50.5622 
         -50      11.9099  0.000160917  1.96895e-05      50.5612 
         -50      12.0602  0.000160756  1.93133e-05      50.5601 
         -50      12.2114  0.000160877   1.8652e-05       50.559 
         -50      12.3636   0.00016158  1.81519e-05      50.5579 
         -50      12.5167  0.000161545  1.85856e-05      50.5567 
         -50      12.6707  0.000161238  1.92407e-05      50.5556 
         -50      12.8257  0.000160731  1.99966e-05      50.5544 
         -50      12.9817  0.000160095  2.07759e-05      50.5532 
         -50      13.1386  0.000159403  2.15322e-05       50.552 
         -50      13.2964  0.000158728   2.2244e-05      50.5508 
         -50      13.4551  0.000158138  2.29046e-05      50.5495 
         -50      13.6149    0.0001577  2.35158e-05      50.5483 
         -50      13.7755  0.000157472  2.40807e-05       50.547 
         -50      13.9371  0.000157498  2.46009e-05      50.5457 
         -50      14.0996  0.000157801  2.50726e-05      50.5443 
         -50      14.2631  0.000158373  2.54861e-05       50.543 
         -50      14.4275  0.000159163   2.5826e-05      50.5416 
         -50      14.5928  0.000160067  2.60765e-05      50.5402 
         -50      14.7592  0.000160906  2.62266e-05      50.5388 
         -50      14.9264  0.000161412  2.62795e-05      50.5374 
         -50      15.0946  0.000161206  2.62658e-05       50.536 
         -50      15.2637  0.000159768  2.62594e-05      50.5345 
         -50      15.4338  0.000156414  2.63981e-05       50.533 
         -50      15.6048  0.000156341  2.67898e-05      50.5315 
         -50      15.7767  0.000158151  2.73459e-05        50.53 
         -50      15.9496   0.00015884  2.79961e-05      50.5284 
         -50      16.1235   0.00015869   2.8659e-05      50.5269 
         -50      16.2982  0.000157992  2.92652e-05      50.5253 
         -50      16.4739  0.000157025  2.97629e-05      50.5237 
         -50      16.6506  0.000156033  3.01196e-05       50.522 
         -50      16.8282  0.000155212  3.03238e-05      50.5204 
         -50      17.0068  0.000154696   3.0385e-05      50.5187 
         -50      17.1862   0.00015455  3.03337e-05       50.517 
         -50      17.3667  0.000154765  3.02176e-05      50.5153 
         -50      17.5481  0.000155266  3.00981e-05      50.5136 
         -50      17.7304  0.000155912  3.00432e-05      50.5118 
         -50      17.9136  0.000156522  3.01201e-05        50.51 
         -50      18.0979  0.000156888  3.03836e-05      50.5082 
         -50       18.283  0.000156814  3.08634e-05      50.5064 
         -50      18.4691  0.000156151  3.15486e-05      50.5046 
         -50      18.6561   0.00015484  3.23324e-05      50.5027 
         -50      18.8441  0.000153371   3.2506e-05      50.5009 
         -50       19.033  0.000152512  3.25866e-05       50.499 
         -50      19.2228  0.000152325  3.26431e-05       50.497 
         -50      19.4136   0.00015276  3.27615e-05      50.4951 
         -50      19.6054  0.000153561  3.30525e-05      50.4931 
         -50       19.798  0.000154145  3.36594e-05      50.4911 
         -50      19.9917  0.000153472  3.47686e-05      50.4891 
         -50      20.1862  0.000151018   3.3841e-05      50.4871 
         -50      20.3818  0.000149538  3.26212e-05      50.4851 
         -50      20.5782  0.000148905  3.22014e-05       50.483 
         -50      20.7756  0.000148771  3.22952e-05      50.4809 
         -50       20.974  0.000148892  3.26845e-05      50.4788 
         -50      21.1732  0.000149108  3.32092e-05      50.4767 
         -50      21.3734  0.000149326   3.3759e-05      50.4745 
         -50      21.5745  0.000149503  3.42643e-05      50.4723 
         -50      21.7767  0.000149629  3.46884e-05      50.4702 
         -50      21.9797  0.000149713  3.50187e-05      50.4679 
         -50      22.1837  0.000149772  3.52609e-05      50.4657 
         -50      22.3886  0.000149819  3.54315e-05      50.4635 
         -50      22.5945  0.000149856  3.55525e-05      50.4612 
         -50      22.8013  0.000149871   3.5646e-05      50.4589 
         -50      23.0091  0.000149833  3.57308e-05      50.4566 
         -50      23.2177  0.000149694  3.58193e-05      50.4543 
         -50      23.4274  0.000149394  3.59159e-05      50.4519 
         -50       23.638  0.000148871  3.60169e-05      50.4496 
         -50      23.8495  0.000148073  3.61112e-05      50.4472 
         -50       24.062  0.000146976  3.61839e-05      50.4448 
         -50      24.2754  0.000145605  3.62203e-05      50.4423 
         -50      24.4897  0.000144067  3.62127e-05      50.4399 
         -50       24.705  0.000142579  3.61689e-05      50.4374 
         -50      24.9213  0.000141512   3.6123e-05       50.435 
         -50      25.1385   0.00014144  3.61489e-05      50.4325 
         -50      25.3566  0.000144413  3.61192e-05      50.4299 
         -50      25.5756  0.000152016  3.64415e-05      50.4274 
         -50      25.7957  0.000150377  3.64019e-05      50.4249 
         -50      26.0166  0.000147645   3.5848e-05      50.4223 
         -50      26.2385  0.000144737  3.58215e-05      50.4197 
         -50      26.4613   0.00014205  3.59576e-05      50.4171 
         -50      26.6851  0.000139849  3.60472e-05      50.4145 
         -50      26.9098  0.000138294  3.60005e-05      50.4118 
         -50      27.1354  0.000137438  3.58139e-05      50.4092 
         -50      27.3621  0.000137252  3.55389e-05      50.4065 
         -50      27.5896  0.000137635  3.52558e-05      50.4038 
         -50      27.8181   0.00013843  3.50492e-05      50.4011 
         -50      28.0475  0.000139445  3.49894e-05      50.3984 
         -50      28.2779  0.000140468  3.51182e-05      50.3957 
         -50      28.5092   0.00014129  3.54387e-05      50.3929 
         -50      28.7414  0.000141724  3.59126e-05      50.3902 
         -50      28.9746  0.000141631   3.6462e-05      50.3874 
         -50      29.2088  0.000140939  3.69794e-05      50.3846 
         -50      29.4439  0.000139675  3.73428e-05      50.3818 
         -50      29.6799  0.000137986  3.74416e-05       50.379 
         -50      29.9168  0.000136174  3.72089e-05      50.3762 
         -50      30.1548  0.000134719  3.66624e-05      50.3733 
         -50      30.3936   0.00013432  3.59582e-05      50.3705 
         -50      30.6334  0.000135918  3.54508e-05      50.3676 
         -50      30.8742  0.000139554  3.56323e-05      50.3647 
         -50      31.1158  0.000138647  3.57879e-05      50.3618 
         -50      31.3584  0.000136926  3.59362e-05      50.3589 
         -50       31.602  0.000135085  3.60271e-05       50.356 
         -50      31.8465  0.000133549  3.60381e-05      50.3531 
         -50      32.0919  0.000132534  3.59684e-05      50.3501 
         -50      32.3383  0.000132089  3.58325e-05      50.3472 
         -50      32.5856  0.000132147  3.56552e-05      50.3442 
         -50       32.834  0.000132564  3.54658e-05      50.3413 
         -50      33.0831  0.000133157   3.5294e-05      50.3383 
         -50      33.3333  0.000133737  3.51655e-05      50.3353 
         -50      33.5843  0.000134138  3.50988e-05      50.3323 
         -50      33.8364  0.000134236  3.51021e-05      50.3293 
         -50      34.0894  0.000133967  3.51715e-05      50.3263 
         -50      34.3433  0.000133333  3.52898e-05      50.3233 
         -50      34.5981  0.000132405   3.5426e-05      50.3203 
         -50       34.854  0.000131313  3.55361e-05      50.3172 
         -50      35.1107  0.000130237  3.55644e-05      50.3142 
         -50      35.3684   0.00012937  3.54466e-05      50.3111 
         -50      35.6271  0.000128895  3.51135e-05      50.3081 
         -50      35.8867  0.000128929  3.44964e-05       50.305 
         -50      36.1472  0.000129473  3.35333e-05       50.302 
         -50      36.4086  0.000130336  3.21772e-05      50.2989 
         -50      36.6711    0.0001315  3.08138e-05      50.2959 
         -50      36.9344  0.000131877  3.09924e-05      50.2928 
         -50      37.1987  0.000128564  3.25654e-05      50.2897 
         -50      37.4639  0.000126337  3.24349e-05      50.2866 
         -50      37.7301  0.000125805  3.25076e-05      50.2836 
         -50      37.9972  0.000125899   3.2681e-05      50.2805 
         -50      38.2652   0.00012643  3.25617e-05      50.2774 
         -50      38.5342   0.00012705  3.23326e-05      50.2743 
         -50      38.8042  0.000127503  3.20979e-05      50.2713 
         -50      39.0751  0.000127613   3.1903e-05      50.2682 
         -50      39.3469  0.000126827  3.20037e-05      50.2651 
         -50      39.6197  0.000125824  3.21717e-05       50.262 
         -50      39.8934  0.000124774  3.23461e-05      50.2589 
         -50       40.168  0.000123727  3.25044e-05      50.2559 
         -50      40.4436  0.000122726  3.26222e-05      50.2528 
         -50      40.7202  0.000121804  3.26774e-05      50.2497 
         -50      40.9977  0.000120985  3.26543e-05      50.2466 
         -50      41.2761  0.000120284  3.25468e-05      50.2436 
         -50      41.5554  0.000119709  3.23595e-05      50.2405 
         -50      41.8358  0.000119262  3.21083e-05      50.2375 
         -50       42.117   0.00011894  3.18195e-05      50.2344 
         -50      42.3992  0.000118737  3.15268e-05      50.2314 
         -50      42.6823  0.000118645  3.12678e-05      50.2283 
         -50      42.9664  0.000118659  3.10776e-05      50.2253 
         -50      43.2514  0.000118774  3.09817e-05      50.2223 
         -50      43.5373  0.000118994  3.09861e-05      50.2192 
         -50      43.8243  0.000119331  3.10662e-05      50.2162 
         -50      44.1121  0.000119807  3.11526e-05      50.2132 
         -50      44.4009  0.000120465  3.11159e-05      50.2102 
         -50      44.6906  0.000121363  3.07476e-05      50.2072 
         -50      44.9813   0.00012184  2.98564e-05      50.2043 
         -50      45.2729  0.000117787  2.97599e-05      50.2013 
         -50      45.5654  0.000115513  2.98907e-05      50.1983 
         -50      45.8589  0.000114422  3.00163e-05      50.1954 
         -50      46.1534  0.000114038  3.00054e-05      50.1925 
         -50      46.4488  0.000114005  2.98068e-05      50.1895 
         -50      46.7451  0.000114075  2.94292e-05      50.1866 
         -50      47.0423  0.000114101   2.8922e-05      50.1838 
         -50      47.3406  0.000114029   2.8358e-05      50.1809 
         -50      47.6397  0.000113883  2.78188e-05       50.178 
         -50      47.9398   0.00011431  2.73425e-05      50.1752 
         -50      48.2409  0.000114059   2.7022e-05      50.1723 
         -50      48.5428  0.000113344  2.68613e-05      50.1695 
         -50      48.8457  0.000112411  2.68188e-05      50.1667 
         -50      49.1496  0.000111524  2.68179e-05      50.1639 
         -50      49.4545  0.000110941  2.67621e-05      50.1611 
         -50      49.7602  0.000110887  2.65553e-05      50.1584 
         -50      50.0668  0.000111503  2.61258e-05      50.1557 
         -50      50.3744  0.000112796  2.54567e-05      50.1529 
         -50      50.6831  0.000114565  2.46211e-05      50.1503 
         -50      50.9926  0.000116319  2.38251e-05      50.1476 
         -50       51.303  0.000117178   2.3453e-05      50.1449 
         -50      51.6144   0.00011576  2.41232e-05      50.1423 
         -50      51.9268  0.000112609  2.52956e-05      50.1397 
         -50        52.24  0.000113652  2.33907e-05      50.1371 
         -50      52.5542   0.00011277  2.21869e-05      50.1345 
         -50      52.8694  0.000110905  2.15755e-05       50.132 
         -50      53.1856   0.00010889  2.14935e-05      50.1295 
         -50      53.5026  0.000107477  2.19189e-05       50.127 
         -50      53.8205  0.000107348  2.28648e-05      50.1245 
         -50      54.1396  0.000108159   2.3849e-05      50.1221 
         -50      54.4594   0.00010702  2.32591e-05      50.1196 
         -50      54.7802  0.000106597  2.26795e-05      50.1172 
         -50      55.1019   0.00010666  2.20873e-05      50.1149 
         -50      55.4247  0.000107012   2.1479e-05      50.1125 
         -50      55.7483  0.000107492   2.0865e-05      50.1102 
         -50      56.0729  0.000107973  2.02624e-05      50.1079 
         -50      56.3984  0.000108363  1.96911e-05      50.1057 
         -50       56.725  0.000108601  1.91687e-05      50.1034 
         -50      57.0523  0.000108659  1.87084e-05      50.1012 
         -50      57.3807  0.000108533  1.83154e-05      50.0991 
         -50      57.7099  0.000108245   1.7986e-05      50.0969 
         -50      58.0403  0.000107834  1.77073e-05      50.0948 
         -50      58.3714  0.000107354  1.74584e-05      50.0927 
         -50      58.7035  0.000106864  1.72119e-05      50.0907 
         -50      59.0367  0.000106421  1.69373e-05      50.0887 
         -50      59.3707  0.000106075  1.66064e-05      50.0867 
         -50      59.7056  0.000105854  1.61985e-05      50.0848 
         -50      60.0414  0.000105758  1.57086e-05      50.0829 
         -50      60.3784  0.000105743  1.51561e-05       50.081 
         -50      60.7161   0.00010571  1.45969e-05      50.0792 
         -50      61.0548   0.00010549  1.41345e-05      50.0774 
         -50      61.3944  0.000104827  1.39354e-05      50.0756 
         -50      61.7351   0.00010336  1.42454e-05      50.0739 
         -50      62.0767  0.000103693  1.46539e-05      50.0722 
         -50      62.4191  0.000110893  1.32415e-05      50.0705 
         -50      62.7625   0.00011348  1.24482e-05      50.0689 
         -50       63.107  0.000113146  1.20589e-05      50.0674 
         -50      63.4523  0.000111186  1.19037e-05      50.0658 
         -50      63.7985  0.000108551  1.18527e-05      50.0643 
         -50      64.1458  0.000105896  1.18115e-05      50.0629 
         -50      64.4939  0.000103637  1.17166e-05      50.0614 
         -50       64.843  0.000101988  1.15306e-05      50.0601 
         -50      65.1929  0.000101011  1.12379e-05      50.0587 
         -50       65.544  0.000100649  1.08403e-05      50.0574 
         -50      65.8959  0.000100773  1.03534e-05      50.0562 
         -50      66.2487  0.000101205  9.80192e-06       50.055 
         -50      66.6025  0.000101753  9.21661e-06      50.0538 
         -50      66.9573  0.000102236   8.6304e-06      50.0527 
         -50       67.313  0.000102502  8.07615e-06      50.0517 
         -50      67.6695  0.000102447  7.58228e-06      50.0507 
         -50      68.0271  0.000102027  7.17114e-06      50.0497 
         -50      68.3857  0.000101257  6.85628e-06      50.0487 
         -50      68.7451   0.00010022  6.64096e-06      50.0479 
         -50      69.1055  9.90573e-05   6.5157e-06       50.047 
         -50      69.4669  9.79543e-05  6.45758e-06      50.0462 
         -50      69.8291  9.71268e-05  6.42926e-06      50.0455 
         -50      70.1923  9.67916e-05  6.37841e-06      50.0448 
         -50      70.5564  9.71357e-05  6.23777e-06      50.0442 
         -50      70.9217  9.82761e-05  5.92545e-06      50.0436 
         -50      71.2877   0.00010021   5.3464e-06       50.043 
         -50      71.6546  0.000102759  4.39318e-06      50.0425 
         -50      72.0225  0.000105504  2.94838e-06       50.042 
         -50      72.3915  0.000107712  8.86174e-07      50.0416 
         -50      72.7613  0.000108857 -1.22522e-06      50.0413 
         -50       73.132  0.000110696 -8.16751e-07      50.0409 
         -50      73.5036  0.000109668 -3.62418e-07      50.0406 
         -50      73.8764  0.000102793  4.39063e-08      50.0404 
         -50      74.2499  8.60317e-05  3.03841e-07      50.0402 
         -50      74.6244  5.40552e-05  3.19994e-07      50.0401 
         -50           75           -0  4.96139e-17      50.0401 
         -25            0  2.08927e-19  3.27537e-24      49.2207 
         -25     0.000471  2.03651e-05  3.48376e-10      49.2207 
         -25     0.001884  7.13681e-05  1.57397e-09      49.2207 
         -25     0.004239  0.000128215  4.23011e-09      49.2207 
         -25     0.007537  0.000165051  9.27007e-09      49.2207 
         -25     0.011776  0.000169448  1.80526e-08      49.2207 
         -25     0.016958  0.000149384  3.23208e-08      49.2207 
         -25     0.023081  0.000127159  5.40866e-08      49.2207 
         -25      0.03015  0.000122321  8.55108e-08      49.2207 
         -25     0.038157  0.000134444  1.28645e-07      49.2207 
         -25     0.047107  0.000142289  1.85422e-07      49.2207 
         -25     0.056999  0.000130134  2.57555e-07      49.2207 
         -25     0.067837  0.000122432  3.46659e-07      49.2207 
         -25     0.079614  0.000138462  4.53991e-07      49.2207 
         -25     0.092332   0.00012542  5.80021e-07      49.2207 
         -25     0.105992  0.000125438  7.25104e-07      49.2207 
         -25       0.1206   0.00012234  8.88996e-07      49.2207 
         -25     0.136145  0.000119295  1.07085e-06      49.2207 
         -25     0.152631  0.000117178  1.26966e-06      49.2207 
         -25     0.170067  0.000115324  1.48415e-06      49.2207 
         -25     0.188438  0.000112907  1.71246e-06      49.2207 
         -25     0.207751  0.000110263  1.95276e-06      49.2207 
         -25     0.228006  0.000108797  2.20316e-06      49.2207 
         -25     0.249212   0.00010707  2.46238e-06      49.2207 
         -25     0.271351  0.000105984  2.72847e-06      49.2207 
         -25     0.294433  0.000105157   3.0003e-06      49.2207 
         -25     0.318456  0.000104558  3.27787e-06      49.2207 
         -25     0.343432  0.000104262  3.56086e-06      49.2207 
         -25     0.369339  0.000104302  3.84797e-06      49.2207 
         -25     0.396189  0.000104675  4.13779e-06      49.2207 
         -25     0.423981  0.000105359  4.42826e-06      49.2207 
         -25     0.452726  0.000106325  4.71717e-06      49.2207 
         -25     0.482403  0.000107559  5.00197e-06      49.2207 
         -25     0.513021  0.000109069  5.28077e-06      49.2207 
         -25     0.544594  0.000110873  5.55254e-06      49.2207 
         -25     0.577096  0.000112971  5.81738e-06      49.2207 
         -25     0.610541  0.000115264  6.07845e-06      49.2207 
         -25     0.644927  0.000117802  6.36952e-06      49.2207 
         -25      0.68027  0.000120603  6.68731e-06      49.2207 
         -25     0.716541  0.000123624  7.01855e-06      49.2207 
         -25     0.753754  0.000126819  7.35452e-06      49.2207 
         -25     0.791909  0.000130138  7.69028e-06      49.2207 
         -25     0.831022  0.000133534  8.02435e-06      49.2207 
         -25     0.871061  0.000136952   8.3574e-06      49.2207 
         -25     0.912043  0.000140346  8.69204e-06      49.2206 
         -25     0.953966  0.000143671  9.03107e-06      49.2206 
         -25     0.996849  0.000146892   9.3766e-06      49.2206 
         -25      1.04066  0.000149974   9.7283e-06      49.2206 
         -25      1.08541  0.000152897  1.00833e-05      49.2206 
         -25      1.13112  0.000155648  1.04356e-05      49.2206 
         -25      1.17775  0.000158218  1.07753e-05      49.2206 
         -25      1.22533  0.000160609  1.10916e-05      49.2206 
         -25      1.27384   0.00016282  1.13745e-05      49.2206 