Variables = x, y, u, v, p

Zone, I=6400, F=POINT
         -50            0            0            0     -158.386 
         -50     0.000942  0.000471296 -5.52836e-09     -158.386 
         -50     0.003768   0.00198247 -1.53638e-08     -158.386 
         -50     0.008478   0.00472758 -1.04825e-08     -158.386 
         -50     0.015075   0.00880295  3.79253e-08     -158.386 
         -50     0.023553    0.0141133  1.67048e-07     -158.386 
         -50     0.033916     0.020525  4.24047e-07     -158.386 
         -50     0.046163    0.0280688  8.68482e-07     -158.386 
         -50       0.0603    0.0368597  1.57217e-06     -158.386 
         -50     0.076315    0.0467437   2.6145e-06     -158.386 
         -50     0.094215    0.0578482  4.08997e-06     -158.386 
         -50     0.113999    0.0700958  6.10159e-06     -158.386 
         -50     0.135675    0.0835177   8.7634e-06     -158.386 
         -50     0.159228    0.0980947  1.22014e-05     -158.386 
         -50     0.184664     0.113832  1.65551e-05     -158.386 
         -50     0.211985      0.13073  2.19709e-05     -158.386 
         -50     0.241201     0.148783  2.86176e-05     -158.386 
         -50      0.27229     0.167978   3.6666e-05     -158.386 
         -50     0.305263     0.188308  4.63321e-05     -158.386 
         -50     0.340135     0.209772  5.78743e-05     -158.386 
         -50     0.376877     0.232335  7.14154e-05     -158.386 
         -50     0.415503     0.255986  8.70253e-05     -158.386 
         -50     0.456013     0.280698  0.000104785     -158.386 
         -50     0.498424     0.306449  0.000124886     -158.386 
         -50     0.542703     0.333178  0.000147636     -158.386 
         -50     0.588866     0.360845  0.000173406     -158.386 
         -50     0.636912     0.389388   0.00020299     -158.386 
         -50     0.686864     0.418747  0.000236283     -158.386 
         -50     0.738679     0.448812  0.000272864     -158.386 
         -50     0.792379     0.479494  0.000312846     -158.386 
         -50     0.847962     0.510676  0.000356308     -158.386 
         -50     0.905453     0.542236  0.000403322     -158.385 
         -50     0.964806     0.573998  0.000453847     -158.385 
         -50      1.02604     0.605806  0.000507819     -158.385 
         -50      1.08919     0.637491  0.000565078     -158.385 
         -50      1.15419     0.668828  0.000625274     -158.385 
         -50      1.22108     0.699622  0.000687994     -158.385 
         -50      1.28985     0.729656  0.000752679     -158.385 
         -50      1.36054     0.758721  0.000818709     -158.384 
         -50      1.43308     0.786577  0.000885367     -158.384 
         -50      1.50751     0.813028  0.000952132     -158.384 
         -50      1.58382     0.837892   0.00101855     -158.384 
         -50      1.66204     0.860996   0.00108312     -158.383 
         -50      1.74212     0.882192   0.00114499     -158.383 
         -50      1.82409     0.901397   0.00120351     -158.383 
         -50      1.90793     0.918565   0.00125812     -158.383 
         -50       1.9937     0.933695   0.00130841     -158.382 
         -50      2.08131     0.946814   0.00135405     -158.382 
         -50      2.17081     0.958007    0.0013949     -158.381 
         -50      2.26223     0.967391   0.00143092     -158.381 
         -50       2.3555     0.975101   0.00146217     -158.381 
         -50      2.45065     0.981312   0.00148885      -158.38 
         -50      2.54769     0.986206   0.00151123      -158.38 
         -50      2.64665      0.98998   0.00152964     -158.379 
         -50      2.74746     0.992822   0.00154445     -158.379 
         -50      2.85014     0.994918   0.00155606     -158.378 
         -50      2.95472     0.996432   0.00156487     -158.377 
         -50      3.06122     0.997508   0.00157126     -158.377 
         -50      3.16956     0.998257   0.00157557     -158.376 
         -50      3.27979     0.998764   0.00157812     -158.375 
         -50       3.3919     0.999088    0.0015792     -158.374 
         -50      3.50594      0.99927   0.00157912     -158.374 
         -50      3.62181     0.999356   0.00157827     -158.373 
         -50      3.73958     0.999422   0.00157717     -158.372 
         -50      3.85927     0.999466   0.00157801     -158.371 
         -50       3.9808      0.99949   0.00157726      -158.37 
         -50      4.10422     0.999505   0.00157585     -158.369 
         -50      4.22952     0.999513   0.00157483     -158.368 
         -50      4.35675     0.999517   0.00157401     -158.367 
         -50      4.48582     0.999519    0.0015732     -158.366 
         -50      4.61677      0.99952   0.00157225     -158.364 
         -50      4.74961      0.99952   0.00157113     -158.363 
         -50      4.88438     0.999521   0.00156992     -158.362 
         -50      5.02099     0.999521   0.00156881      -158.36 
         -50      5.15948     0.999521   0.00156803     -158.359 
         -50      5.29985     0.999521   0.00156768     -158.358 
         -50      5.44217     0.999521   0.00156758     -158.356 
         -50      5.58631      0.99952   0.00156689     -158.354 
         -50      5.73233     0.999521   0.00156571     -158.353 
         -50      5.88024     0.999521   0.00156519     -158.351 
         -50       6.0301      0.99952   0.00156393     -158.349 
         -50      6.18178      0.99952   0.00156228     -158.347 
         -50      6.33534      0.99952   0.00156064     -158.345 
         -50      6.49085      0.99952   0.00155933     -158.343 
         -50      6.64818     0.999521   0.00155823     -158.341 
         -50      6.80739     0.999521   0.00155679     -158.339 
         -50      6.96849     0.999521   0.00155571     -158.337 
         -50      7.13154      0.99952   0.00155423     -158.335 
         -50      7.29641      0.99952   0.00155275     -158.332 
         -50      7.46316     0.999521   0.00155152      -158.33 
         -50       7.6318     0.999522   0.00155059     -158.327 
         -50      7.80239     0.999523   0.00154983     -158.325 
         -50      7.97479     0.999523   0.00154893     -158.322 
         -50      8.14908     0.999522   0.00154754     -158.319 
         -50      8.32526     0.999522   0.00154601     -158.316 
         -50      8.50338     0.999524   0.00154562     -158.313 
         -50      8.68333     0.999524   0.00154475      -158.31 
         -50      8.86515     0.999525   0.00154358     -158.307 
         -50      9.04894     0.999525   0.00154222     -158.304 
         -50      9.23453     0.999526   0.00154071       -158.3 
         -50      9.42201     0.999526   0.00153908     -158.297 
         -50      9.61137     0.999527   0.00153738     -158.293 
         -50      9.80269     0.999527   0.00153568      -158.29 
         -50      9.99583     0.999527   0.00153407     -158.286 
         -50      10.1908     0.999527   0.00153267     -158.282 
         -50      10.3877     0.999527   0.00153145     -158.278 
         -50      10.5866     0.999529   0.00153005     -158.274 
         -50      10.7873     0.999531   0.00152917      -158.27 
         -50      10.9898     0.999532   0.00152835     -158.266 
         -50      11.1943      0.99953   0.00152696     -158.262 
         -50      11.4007     0.999529   0.00152509     -158.257 
         -50      11.6089     0.999532   0.00152389     -158.252 
         -50       11.819     0.999533   0.00152256     -158.248 
         -50       12.031     0.999533   0.00152165     -158.243 
         -50      12.2449     0.999534   0.00152142     -158.238 
         -50      12.4606     0.999535   0.00152044     -158.233 
         -50      12.6782     0.999535   0.00151873     -158.228 
         -50      12.8978     0.999535   0.00151765     -158.223 
         -50      13.1192     0.999536   0.00151689     -158.217 
         -50      13.3425     0.999537   0.00151623     -158.212 
         -50      13.5677     0.999537   0.00151548     -158.206 
         -50      13.7948     0.999538   0.00151452       -158.2 
         -50      14.0237     0.999539   0.00151331     -158.195 
         -50      14.2546      0.99954   0.00151184     -158.189 
         -50      14.4873     0.999541   0.00151019     -158.182 
         -50      14.7219     0.999543   0.00150853     -158.176 
         -50      14.9584     0.999544   0.00150705      -158.17 
         -50      15.1968     0.999544   0.00150603     -158.163 
         -50      15.4371     0.999542   0.00150577     -158.157 
         -50      15.6792     0.999544   0.00150369      -158.15 
         -50      15.9232     0.999546   0.00150198     -158.143 
         -50      16.1691     0.999547   0.00150098     -158.136 
         -50       16.417     0.999548   0.00150026     -158.129 
         -50      16.6666     0.999548    0.0014996     -158.122 
         -50      16.9182     0.999548    0.0014989     -158.114 
         -50      17.1716     0.999549   0.00149815     -158.107 
         -50       17.427      0.99955   0.00149736     -158.099 
         -50      17.6842     0.999552   0.00149657     -158.091 
         -50      17.9433     0.999554   0.00149577     -158.083 
         -50      18.2042     0.999555   0.00149496     -158.075 
         -50      18.4672     0.999555   0.00149412     -158.067 
         -50      18.7319     0.999555   0.00149379     -158.059 
         -50      18.9985     0.999553   0.00149362      -158.05 
         -50       19.267     0.999554   0.00149246     -158.042 
         -50      19.5375     0.999557   0.00149084     -158.033 
         -50      19.8098     0.999561   0.00148977     -158.024 
         -50       20.084     0.999561   0.00149037     -158.015 
         -50      20.3601      0.99956    0.0014891     -158.006 
         -50       20.638     0.999561   0.00148846     -157.997 
         -50      20.9178     0.999563    0.0014881     -157.987 
         -50      21.1995     0.999564   0.00148778     -157.978 
         -50      21.4832     0.999565   0.00148737     -157.968 
         -50      21.7687     0.999566   0.00148683     -157.959 
         -50       22.056     0.999566   0.00148616     -157.949 
         -50      22.3452     0.999567    0.0014854     -157.939 
         -50      22.6365     0.999568   0.00148463     -157.929 
         -50      22.9295      0.99957    0.0014839     -157.918 
         -50      23.2243     0.999572   0.00148329     -157.908 
         -50      23.5211     0.999574   0.00148283     -157.897 
         -50      23.8199     0.999575   0.00148254     -157.887 
         -50      24.1204     0.999576   0.00148241     -157.876 
         -50      24.4228     0.999575   0.00148239     -157.865 
         -50      24.7272     0.999573   0.00148245     -157.854 
         -50      25.0334     0.999572   0.00148253     -157.843 
         -50      25.3415     0.999575   0.00148224     -157.832 
         -50      25.6514     0.999591   0.00148233     -157.821 
         -50      25.9634     0.999585   0.00148193     -157.809 
         -50      26.2771     0.999582     0.001482     -157.798 
         -50      26.5927     0.999581   0.00148173     -157.786 
         -50      26.9102     0.999582   0.00148119     -157.774 
         -50      27.2297     0.999583   0.00148049     -157.762 
         -50       27.551     0.999585    0.0014798     -157.751 
         -50      27.8741     0.999587   0.00147927     -157.738 
         -50      28.1991     0.999589   0.00147897     -157.726 
         -50      28.5262     0.999591   0.00147891     -157.714 
         -50       28.855     0.999593   0.00147905     -157.702 
         -50      29.1856     0.999594   0.00147924     -157.689 
         -50      29.5183     0.999595   0.00147935     -157.677 
         -50      29.8528     0.999596   0.00147923     -157.664 
         -50      30.1891     0.999597   0.00147889     -157.652 
         -50      30.5273     0.999598   0.00147852     -157.639 
         -50      30.8676     0.999602   0.00147853     -157.626 
         -50      31.2096     0.999603   0.00147831     -157.613 
         -50      31.5534     0.999603   0.00147861       -157.6 
         -50      31.8992     0.999603   0.00147901     -157.587 
         -50      32.2469     0.999603   0.00147929     -157.574 
         -50      32.5965     0.999604   0.00147942     -157.561 
         -50      32.9479     0.999606   0.00147948     -157.548 
         -50      33.3012     0.999608   0.00147957     -157.534 
         -50      33.6565     0.999609    0.0014798     -157.521 
         -50      34.0135     0.999611   0.00148022     -157.508 
         -50      34.3725     0.999613   0.00148084     -157.494 
         -50      34.7334     0.999614   0.00148158     -157.481 
         -50      35.0962     0.999615    0.0014823     -157.467 
         -50      35.4608     0.999617   0.00148284     -157.454 
         -50      35.8272     0.999618   0.00148305      -157.44 
         -50      36.1957     0.999619   0.00148286     -157.426 
         -50       36.566      0.99962   0.00148238     -157.413 
         -50      36.9381     0.999621   0.00148344     -157.399 
         -50      37.3121     0.999619   0.00148724     -157.385 
         -50      37.6882     0.999623   0.00148611     -157.372 
         -50       38.066     0.999624   0.00148759     -157.358 
         -50      38.4456     0.999627   0.00148831     -157.344 
         -50      38.8272      0.99963   0.00148887      -157.33 
         -50      39.2108     0.999632   0.00148952     -157.317 
         -50      39.5961     0.999631   0.00149017     -157.303 
         -50      39.9833      0.99963   0.00149083     -157.289 
         -50      40.3724      0.99963   0.00149147     -157.276 
         -50      40.7635     0.999631   0.00149206     -157.262 
         -50      41.1564     0.999632   0.00149259     -157.248 
         -50      41.5511     0.999633   0.00149309     -157.235 
         -50      41.9479     0.999635   0.00149361     -157.221 
         -50      42.3464     0.999637   0.00149422     -157.207 
         -50      42.7468     0.999639   0.00149501     -157.194 
         -50      43.1491     0.999641   0.00149605      -157.18 
         -50      43.5534     0.999642   0.00149732     -157.167 
         -50      43.9595     0.999644   0.00149872     -157.154 
         -50      44.3674     0.999645   0.00149996      -157.14 
         -50      44.7772     0.999648   0.00150048     -157.127 
         -50      45.1891     0.999647   0.00150138     -157.114 
         -50      45.6027     0.999646   0.00150269       -157.1 
         -50      46.0181     0.999646   0.00150367     -157.087 
         -50      46.4355     0.999647   0.00150455     -157.074 
         -50      46.8549     0.999649   0.00150542     -157.061 
         -50       47.276      0.99965   0.00150627     -157.049 
         -50       47.699     0.999651   0.00150721     -157.036 
         -50      48.1241     0.999653   0.00150864     -157.023 
         -50      48.5508     0.999654   0.00150977     -157.011 
         -50      48.9795     0.999655   0.00151096     -156.998 
         -50        49.41     0.999656   0.00151238     -156.986 
         -50      49.8426     0.999658   0.00151398     -156.973 
         -50      50.2769     0.999659   0.00151556     -156.961 
         -50      50.7131     0.999661   0.00151695     -156.949 
         -50      51.1512     0.999662    0.0015182     -156.937 
         -50      51.5914     0.999666   0.00152004     -156.926 
         -50      52.0332     0.999667   0.00152135     -156.914 
         -50      52.4769     0.999663   0.00152121     -156.903 
         -50      52.9225     0.999663   0.00152254     -156.891 
         -50      53.3702     0.999665   0.00152462      -156.88 
         -50      53.8196     0.999668   0.00152693     -156.869 
         -50      54.2709     0.999669   0.00152895     -156.858 
         -50      54.7242     0.999668   0.00153059     -156.847 
         -50      55.1792     0.999669   0.00153206     -156.837 
         -50      55.6362     0.999671   0.00153341     -156.826 
         -50       56.095     0.999673   0.00153474     -156.816 
         -50      56.5558     0.999674   0.00153615     -156.806 
         -50      57.0184     0.999675   0.00153771     -156.796 
         -50      57.4829     0.999676   0.00153946     -156.787 
         -50      57.9492     0.999677   0.00154136     -156.777 
         -50      58.4176     0.999678    0.0015433     -156.768 
         -50      58.8877     0.999679   0.00154517     -156.759 
         -50      59.3597     0.999679   0.00154682      -156.75 
         -50      59.8336     0.999679   0.00154818     -156.741 
         -50      60.3096     0.999679   0.00154927     -156.733 
         -50      60.7872      0.99968   0.00155031     -156.725 
         -50      61.2667     0.999681   0.00155186     -156.717 
         -50      61.7484     0.999687    0.0015549     -156.709 
         -50      62.2317     0.999686   0.00155695     -156.701 
         -50      62.7168     0.999682   0.00155727     -156.694 
         -50      63.2039     0.999685   0.00155907     -156.687 
         -50      63.6931     0.999689   0.00156151      -156.68 
         -50      64.1839     0.999691   0.00156408     -156.674 
         -50      64.6766     0.999691   0.00156645     -156.667 
         -50      65.1712     0.999689   0.00156848     -156.661 
         -50      65.6679     0.999686   0.00157017     -156.656 
         -50      66.1663     0.999683   0.00157159      -156.65 
         -50      66.6665     0.999681   0.00157287     -156.645 
         -50      67.1687     0.999682   0.00157417      -156.64 
         -50      67.6729     0.999685   0.00157563     -156.635 
         -50      68.1788     0.999691   0.00157734     -156.631 
         -50      68.6866     0.999699   0.00157937     -156.627 
         -50      69.1963     0.999706   0.00158169     -156.623 
         -50      69.7081     0.999711   0.00158424      -156.62 
         -50      70.2215     0.999713   0.00158684     -156.617 
         -50      70.7368     0.999711    0.0015893     -156.614 
         -50      71.2543     0.999704   0.00159135     -156.611 
         -50      71.7734     0.999695    0.0015927     -156.609 
         -50      72.2943     0.999689   0.00159311     -156.607 
         -50      72.8172     0.999687   0.00159366     -156.606 
         -50      73.3422     0.999676   0.00159743     -156.605 
         -50      73.8688     0.999693   0.00160063     -156.604 
         -50      74.3973     0.999773   0.00160294     -156.604 
         -50      74.9277     0.999962   0.00160402     -156.604 
         -50      75.4602            0            0            0 
         -50      75.9944            0            0            0 
         -50      76.5305            0            0            0 
         -50      77.0684            0            0            0 
         -50      77.6084            0            0            0 
         -50      78.1502            0            0            0 
         -50      78.6937            0            0            0 
         -50      79.2394            0            0            0 
         -50      79.7868            0            0            0 
         -50      80.3361            0            0            0 
         -50      80.8872            0            0            0 
         -50      81.4404            0            0            0 
         -50      81.9953            0            0            0 
         -50      82.5521            0            0            0 
         -50      83.1108            0            0            0 
         -50      83.6715            0            0            0 
         -50       84.234            0            0            0 
         -50      84.7983            0            0            0 
         -50      85.3645            0            0            0 
         -50      85.9328            0            0            0 
         -50      86.5028            0            0            0 
         -50      87.0747            0            0            0 
         -50      87.6486            0            0            0 
         -50      88.2243            0            0            0 
         -50      88.8018            0            0            0 
         -50      89.3812            0            0            0 
         -50      89.9627            0            0            0 
         -50      90.5458            0            0            0 
         -50      91.1309            0            0            0 
         -50      91.7178            0            0            0 
         -50      92.3069            0            0            0 
         -50      92.8976            0            0            0 
         -50      93.4901            0            0            0 
         -50      94.0846            0            0            0 
         -50      94.6812            0            0            0 
         -50      95.2794            0            0            0 
         -50      95.8796            0            0            0 
         -50      96.4818            0            0            0 
         -50      97.0857            0            0            0 
         -50      97.6915            0            0            0 
         -50      98.2991            0            0            0 
         -50      98.9089            0            0            0 
         -50      99.5203            0            0            0 
         -50      100.134            0            0            0 
         -50      100.749            0            0            0 
         -50      101.366            0            0            0 
         -50      101.985            0            0            0 
         -50      102.606            0            0            0 
         -50      103.229            0            0            0 
         -50      103.854            0            0            0 
         -50       104.48            0            0            0 
         -50      105.108            0            0            0 
         -50      105.739            0            0            0 
         -50      106.371            0            0            0 
         -50      107.005            0            0            0 
         -50      107.641            0            0            0 
         -50      108.279            0            0            0 
         -50      108.919            0            0            0 
         -50       109.56            0            0            0 
         -50      110.204            0            0            0 
         -50      110.849            0            0            0 
         -50      111.497            0            0            0 
         -50      112.146            0            0            0 
         -50      112.797            0            0            0 
         -50       113.45            0            0            0 
         -50      114.105            0            0            0 
         -50      114.761            0            0            0 
         -50       115.42            0            0            0 
         -50      116.081            0            0            0 
         -50      116.743            0            0            0 
         -50      117.407            0            0            0 
         -50      118.073            0            0            0 
         -50      118.741            0            0            0 
         -50      119.411            0            0            0 
         -50      120.083            0            0            0 
         -50      120.757            0            0            0 
         -50      121.432            0            0            0 
         -50       122.11            0            0            0 
         -50      122.789            0            0            0 
         -50       123.47            0            0            0 
         -50      124.153            0            0            0 
         -50      124.838            0            0            0 
         -50      125.525            0            0            0 
         -50      126.214            0            0            0 
         -50      126.905            0            0            0 
         -50      127.597            0            0            0 
         -50      128.292            0            0            0 
         -50      128.988            0            0            0 
         -50      129.686            0            0            0 
         -50      130.386            0            0            0 
         -50      131.088            0            0            0 
         -50      131.792            0            0            0 
         -50      132.497            0            0            0 
         -50      133.205            0            0            0 
         -50      133.915            0            0            0 
         -50      134.626            0            0            0 
         -50      135.339            0            0            0 
         -50      136.054            0            0            0 
         -50      136.771            0            0            0 
         -50       137.49            0            0            0 
         -50      138.211            0            0            0 
         -50      138.934            0            0            0 
         -50      139.658            0            0            0 
         -50      140.385            0            0            0 
         -50      141.113            0            0            0 
         -50      141.843            0            0            0 
         -50      142.575            0            0            0 
         -50      143.309            0            0            0 
         -50      144.045            0            0            0 
         -50      144.783            0            0            0 
         -50      145.523            0            0            0 
         -50      146.264            0            0            0 
         -50      147.007            0            0            0 
         -50      147.753            0            0            0 
         -50        148.5            0            0            0 
         -50      149.249            0            0            0 
         -50          150            0            0            0 
         -25            0  2.24732e-18 -8.39517e-24     -154.045 
         -25     0.000942  0.000465629 -1.33766e-09     -154.045 
         -25     0.003768    0.0019453 -9.45752e-10     -154.045 
         -25     0.008478   0.00460413  1.40175e-08     -154.045 
         -25     0.015075    0.0085243  6.40628e-08     -154.045 
         -25     0.023553    0.0136243  1.76749e-07     -154.045 
         -25     0.033916    0.0197906   3.8705e-07     -154.045 
         -25     0.046163    0.0270492  7.37812e-07     -154.045 
         -25       0.0603    0.0354984  1.27997e-06     -154.045 
         -25     0.076315     0.045006  2.07107e-06     -154.045 
         -25     0.094215    0.0556808  3.17882e-06     -154.045 
         -25     0.113999    0.0674565  4.67929e-06     -154.045 
         -25     0.135675      0.08036  6.66022e-06     -154.045 
         -25     0.159228    0.0943734  9.21843e-06     -154.045 
         -25     0.184664     0.109501  1.24647e-05     -154.045 
         -25     0.211985     0.125743   1.6522e-05     -154.045 
         -25     0.241201     0.143095  2.15275e-05     -154.045 
         -25      0.27229     0.161543  2.76241e-05     -154.045 
         -25     0.305263     0.181081  3.49716e-05     -154.045 
         -25     0.340135      0.20171  4.37398e-05     -154.045 
         -25     0.376877     0.223397  5.40958e-05     -154.045 
         -25     0.415503     0.246134  6.62272e-05     -154.045 
         -25     0.456013     0.269898  8.03285e-05     -154.045 
         -25     0.498424     0.294671  9.66102e-05     -154.045 
         -25     0.542703     0.320398  0.000115267     -154.045 
         -25     0.588866     0.347047    0.0001365     -154.045 
         -25     0.636912     0.374565  0.000160472     -154.045 
         -25     0.686864     0.402903  0.000187374     -154.045 
         -25     0.738679     0.431962  0.000217313     -154.045 
         -25     0.792379     0.461669  0.000250409     -154.045 
         -25     0.847962     0.491922  0.000286751     -154.045 
         -25     0.905453     0.522617  0.000326415     -154.045 
         -25     0.964806     0.553598  0.000369383     -154.045 
         -25      1.02604      0.58473  0.000415614     -154.045 
         -25      1.08919     0.615863  0.000464997     -154.045 
         -25      1.15419     0.646794  0.000517267     -154.045 
         -25      1.22108     0.677348  0.000572124     -154.045 
         -25      1.28985     0.707325  0.000629162     -154.045 
         -25      1.36054     0.736532  0.000687942     -154.045 
         -25      1.43308     0.764739  0.000747955     -154.045 
         -25      1.50751     0.791755  0.000808854     -154.045 
         -25      1.58382     0.817385  0.000869473     -154.045 
         -25      1.66204     0.841478  0.000929539     -154.045 
         -25      1.74212     0.863854  0.000988187     -154.045 
         -25      1.82409     0.884398   0.00104469     -154.044 
         -25      1.90793     0.903026   0.00109839     -154.044 
         -25       1.9937     0.919702   0.00114872     -154.044 
         -25      2.08131      0.93441    0.0011952     -154.044 
         -25      2.17081     0.947196   0.00123748     -154.044 
         -25      2.26223     0.958137   0.00127536     -154.044 
         -25       2.3555     0.967335   0.00130868     -154.044 
         -25      2.45065     0.974931   0.00133747     -154.044 
         -25      2.54769     0.981083   0.00136185     -154.044 