Variables = x, y, u, v, p

Zone, I=6400, F=POINT
         -50            0            0            0     -96.7524 
         -50     0.000942  0.000586331 -1.81133e-09     -96.7524 
         -50     0.003768    0.0023434 -1.94094e-10     -96.7524 
         -50     0.008478   0.00526702  2.47081e-08     -96.7524 
         -50     0.015075   0.00935608  1.02785e-07     -96.7524 
         -50     0.023553    0.0146076  2.71867e-07     -96.7524 
         -50     0.033916    0.0210274   5.7863e-07     -96.7524 
         -50     0.046163    0.0286168  1.08082e-06     -96.7524 
         -50       0.0603    0.0373775  1.84888e-06     -96.7524 
         -50     0.076315    0.0473003  2.96535e-06     -96.7524 
         -50     0.094215    0.0583908  4.52923e-06     -96.7524 
         -50     0.113999    0.0706464  6.64452e-06     -96.7524 
         -50     0.135675     0.084072  9.43154e-06     -96.7523 
         -50     0.159228    0.0986561  1.30233e-05     -96.7523 
         -50     0.184664       0.1144  1.75667e-05     -96.7523 
         -50     0.211985     0.131302  2.32096e-05     -96.7523 
         -50     0.241201     0.149363  3.01118e-05     -96.7523 
         -50      0.27229     0.168562  3.84186e-05     -96.7523 
         -50     0.305263     0.188897  4.82966e-05     -96.7523 
         -50     0.340135     0.210365  5.99926e-05     -96.7523 
         -50     0.376877     0.232933  7.37086e-05     -96.7523 
         -50     0.415503     0.256588  8.96398e-05     -96.7522 
         -50     0.456013     0.281304  0.000107965     -96.7522 
         -50     0.498424     0.307059  0.000128862     -96.7522 
         -50     0.542703     0.333791  0.000152456     -96.7522 
         -50     0.588866     0.361461  0.000178805     -96.7521 
         -50     0.636912     0.390006  0.000208607     -96.7521 
         -50     0.686864     0.419366  0.000242226     -96.7521 
         -50     0.738679     0.449431  0.000279236      -96.752 
         -50     0.792379     0.480113  0.000319704      -96.752 
         -50     0.847962     0.511292  0.000363674     -96.7519 
         -50     0.905453     0.542849   0.00041119     -96.7518 
         -50     0.964806     0.574608  0.000462189     -96.7518 
         -50      1.02604     0.606411  0.000516599     -96.7517 
         -50      1.08919      0.63809  0.000574264     -96.7516 
         -50      1.15419     0.669421  0.000634849     -96.7515 
         -50      1.22108     0.700208  0.000697961     -96.7514 
         -50      1.28985     0.730233  0.000763071     -96.7513 
         -50      1.36054     0.759289  0.000829586     -96.7512 
         -50      1.43308     0.787136  0.000896811     -96.7511 
         -50      1.50751     0.813578  0.000964213     -96.7509 
         -50      1.58382     0.838431   0.00103057     -96.7508 
         -50      1.66204     0.861526   0.00109549     -96.7506 
         -50      1.74212     0.882712   0.00115806     -96.7504 
         -50      1.82409     0.901909   0.00121754     -96.7503 
         -50      1.90793      0.91907   0.00127328     -96.7501 
         -50       1.9937     0.934195   0.00132475     -96.7498 
         -50      2.08131     0.947312    0.0013715     -96.7496 
         -50      2.17081     0.958503   0.00141331     -96.7494 
         -50      2.26223     0.967886   0.00145004     -96.7491 
         -50       2.3555     0.975597   0.00148169     -96.7489 
         -50      2.45065     0.981808   0.00150841     -96.7486 
         -50      2.54769     0.986704   0.00153046     -96.7483 
         -50      2.64665     0.990478   0.00154822      -96.748 
         -50      2.74746      0.99332   0.00156214     -96.7476 
         -50      2.85014     0.995415   0.00157272     -96.7473 
         -50      2.95472     0.996928   0.00158053     -96.7469 
         -50      3.06122     0.998003   0.00158611     -96.7465 
         -50      3.16956     0.998752   0.00158996     -96.7461 
         -50      3.27979     0.999259   0.00159253     -96.7456 
         -50       3.3919     0.999584   0.00159416     -96.7451 
         -50      3.50594     0.999768   0.00159504     -96.7447 
         -50      3.62181     0.999856   0.00159521     -96.7441 
         -50      3.73958     0.999921   0.00159451     -96.7436 
         -50      3.85927     0.999965   0.00159542      -96.743 
         -50       3.9808      0.99999   0.00159551     -96.7425 
         -50      4.10422            1   0.00159479     -96.7418 
         -50      4.22952      1.00001   0.00159404     -96.7412 
         -50      4.35675      1.00002   0.00159349     -96.7405 
         -50      4.48582      1.00002    0.0015932     -96.7398 
         -50      4.61677      1.00002   0.00159309     -96.7391 
         -50      4.74961      1.00002   0.00159304     -96.7383 
         -50      4.88438      1.00002   0.00159296     -96.7375 
         -50      5.02099      1.00002   0.00159282     -96.7367 
         -50      5.15948      1.00002    0.0015927     -96.7358 
         -50      5.29985      1.00002    0.0015927     -96.7349 
         -50      5.44217      1.00002   0.00159289      -96.734 
         -50      5.58631      1.00002   0.00159314      -96.733 
         -50      5.73233      1.00002   0.00159314      -96.732 
         -50      5.88024      1.00002   0.00159254     -96.7309 
         -50       6.0301      1.00002   0.00159162     -96.7298 
         -50      6.18178      1.00002   0.00159077     -96.7287 
         -50      6.33534      1.00002   0.00159017     -96.7275 
         -50      6.49085      1.00002   0.00158976     -96.7263 
         -50      6.64818      1.00002   0.00158906      -96.725 
         -50      6.80739      1.00002   0.00158762     -96.7237 
         -50      6.96849      1.00002   0.00158768     -96.7224 
         -50      7.13154      1.00002    0.0015869      -96.721 
         -50      7.29641      1.00002   0.00158585     -96.7196 
         -50      7.46316      1.00002   0.00158505     -96.7181 
         -50       7.6318      1.00002   0.00158479     -96.7165 
         -50      7.80239      1.00002    0.0015851      -96.715 
         -50      7.97479      1.00002   0.00158564     -96.7133 
         -50      8.14908      1.00002   0.00158582     -96.7116 
         -50      8.32526      1.00002   0.00158544     -96.7099 
         -50      8.50338      1.00002   0.00158559     -96.7081 
         -50      8.68333      1.00002   0.00158515     -96.7062 
         -50      8.86515      1.00002   0.00158465     -96.7043 
         -50      9.04894      1.00002   0.00158435     -96.7024 
         -50      9.23453      1.00002   0.00158429     -96.7004 
         -50      9.42201      1.00002   0.00158441     -96.6983 
         -50      9.61137      1.00002   0.00158455     -96.6962 
         -50      9.80269      1.00002   0.00158455      -96.694 
         -50      9.99583      1.00002   0.00158425     -96.6917 
         -50      10.1908      1.00002   0.00158356     -96.6894 
         -50      10.3877      1.00002   0.00158283      -96.687 
         -50      10.5866      1.00002   0.00158379     -96.6846 
         -50      10.7873      1.00002   0.00158448     -96.6821 
         -50      10.9898      1.00002   0.00158469     -96.6795 
         -50      11.1943      1.00002   0.00158373     -96.6769 
         -50      11.4007      1.00002   0.00158245     -96.6742 
         -50      11.6089      1.00002   0.00158406     -96.6714 
         -50       11.819      1.00002   0.00158462     -96.6686 
         -50       12.031      1.00002   0.00158441     -96.6657 
         -50      12.2449      1.00002   0.00158362     -96.6628 
         -50      12.4606      1.00002   0.00158353     -96.6597 
         -50      12.6782      1.00002   0.00158406     -96.6566 
         -50      12.8978      1.00002   0.00158405     -96.6534 
         -50      13.1192      1.00002   0.00158372     -96.6502 
         -50      13.3425      1.00002   0.00158327     -96.6469 
         -50      13.5677      1.00002   0.00158288     -96.6435 
         -50      13.7948      1.00002   0.00158264       -96.64 
         -50      14.0237      1.00002   0.00158261     -96.6364 
         -50      14.2546      1.00002   0.00158278     -96.6328 
         -50      14.4873      1.00002   0.00158311     -96.6291 
         -50      14.7219      1.00002    0.0015835     -96.6254 
         -50      14.9584      1.00002   0.00158379     -96.6215 
         -50      15.1968      1.00002   0.00158383     -96.6176 
         -50      15.4371      1.00002   0.00158341     -96.6136 
         -50      15.6792      1.00002   0.00158328     -96.6095 
         -50      15.9232      1.00002   0.00158312     -96.6054 
         -50      16.1691      1.00002    0.0015829     -96.6011 
         -50       16.417      1.00002   0.00158275     -96.5968 
         -50      16.6666      1.00002   0.00158271     -96.5924 
         -50      16.9182      1.00002   0.00158276      -96.588 
         -50      17.1716      1.00002   0.00158283     -96.5834 
         -50       17.427      1.00002   0.00158287     -96.5788 
         -50      17.6842      1.00002   0.00158281     -96.5741 
         -50      17.9433      1.00002   0.00158262     -96.5693 
         -50      18.2042      1.00002   0.00158229     -96.5645 
         -50      18.4672      1.00002   0.00158182     -96.5595 
         -50      18.7319      1.00002   0.00158135     -96.5545 
         -50      18.9985      1.00001   0.00158118     -96.5494 
         -50       19.267      1.00001   0.00158099     -96.5442 
         -50      19.5375      1.00001   0.00158075      -96.539 
         -50      19.8098      1.00002   0.00158082     -96.5336 
         -50       20.084      1.00002   0.00158167     -96.5282 
         -50      20.3601      1.00001   0.00157967     -96.5227 
         -50       20.638      1.00001   0.00157839     -96.5171 
         -50      20.9178      1.00001   0.00157775     -96.5115 
         -50      21.1995      1.00001   0.00157764     -96.5057 
         -50      21.4832      1.00001   0.00157792     -96.4999 
         -50      21.7687      1.00001   0.00157845     -96.4941 
         -50       22.056      1.00001   0.00157907     -96.4881 
         -50      22.3452      1.00001   0.00157968     -96.4821 
         -50      22.6365      1.00001   0.00158015     -96.4759 
         -50      22.9295      1.00001   0.00158043     -96.4698 
         -50      23.2243      1.00001   0.00158048     -96.4635 
         -50      23.5211      1.00001   0.00158032     -96.4572 
         -50      23.8199      1.00001      0.00158     -96.4507 
         -50      24.1204      1.00001    0.0015796     -96.4443 
         -50      24.4228      1.00001   0.00157925     -96.4377 
         -50      24.7272      1.00001   0.00157905     -96.4311 
         -50      25.0334            1   0.00157913     -96.4244 
         -50      25.3415      1.00001   0.00158061     -96.4176 
         -50      25.6514      1.00002   0.00158114     -96.4108 
         -50      25.9634      1.00001   0.00158175     -96.4039 
         -50      26.2771      1.00001   0.00158212      -96.397 
         -50      26.5927      1.00001   0.00158198     -96.3899 
         -50      26.9102      1.00001   0.00158141     -96.3828 
         -50      27.2297      1.00001   0.00158057     -96.3757 
         -50       27.551      1.00001   0.00157969     -96.3685 
         -50      27.8741      1.00001   0.00157897     -96.3612 
         -50      28.1991      1.00001   0.00157856     -96.3539 
         -50      28.5262      1.00001   0.00157852     -96.3465 
         -50       28.855      1.00001   0.00157878      -96.339 
         -50      29.1856      1.00001    0.0015792     -96.3315 
         -50      29.5183      1.00001   0.00157955      -96.324 
         -50      29.8528      1.00001   0.00157957     -96.3164 
         -50      30.1891      1.00001   0.00157904     -96.3087 
         -50      30.5273      1.00001   0.00157792      -96.301 
         -50      30.8676      1.00001    0.0015767     -96.2933 
         -50      31.2096      1.00001   0.00157777     -96.2855 
         -50      31.5534      1.00001   0.00157867     -96.2777 
         -50      31.8992      1.00001   0.00157922     -96.2698 
         -50      32.2469            1    0.0015794     -96.2619 
         -50      32.5965            1   0.00157938     -96.2539 
         -50      32.9479            1   0.00157932     -96.2459 
         -50      33.3012            1   0.00157942     -96.2379 
         -50      33.6565            1    0.0015798     -96.2298 
         -50      34.0135            1   0.00158049     -96.2217 
         -50      34.3725            1   0.00158142     -96.2136 
         -50      34.7334            1    0.0015824     -96.2055 
         -50      35.0962            1   0.00158316     -96.1973 
         -50      35.4608            1   0.00158336     -96.1891 
         -50      35.8272            1    0.0015827     -96.1809 
         -50      36.1957            1     0.001581     -96.1726 
         -50       36.566            1    0.0015783     -96.1644 
         -50      36.9381            1   0.00157864     -96.1561 
         -50      37.3121            1   0.00158253     -96.1478 
         -50      37.6882            1   0.00158044     -96.1395 
         -50       38.066            1   0.00158131     -96.1312 
         -50      38.4456            1   0.00158163     -96.1229 
         -50      38.8272            1   0.00158181     -96.1146 
         -50      39.2108            1   0.00158203     -96.1063 
         -50      39.5961            1   0.00158226      -96.098 
         -50      39.9833     0.999999    0.0015825     -96.0897 
         -50      40.3724     0.999998   0.00158275     -96.0814 
         -50      40.7635     0.999998   0.00158299     -96.0731 
         -50      41.1564     0.999998   0.00158323     -96.0649 
         -50      41.5511     0.999998   0.00158345     -96.0566 
         -50      41.9479     0.999998   0.00158366     -96.0484 
         -50      42.3464     0.999998   0.00158387     -96.0401 
         -50      42.7468     0.999998   0.00158409     -96.0319 
         -50      43.1491     0.999999   0.00158433     -96.0237 
         -50      43.5534     0.999999   0.00158459     -96.0156 
         -50      43.9595     0.999999   0.00158484     -96.0075 
         -50      44.3674            1   0.00158503     -95.9994 
         -50      44.7772            1   0.00158504     -95.9913 
         -50      45.1891     0.999999   0.00158516     -95.9833 
         -50      45.6027     0.999997   0.00158537     -95.9753 
         -50      46.0181     0.999995   0.00158558     -95.9673 
         -50      46.4355     0.999995   0.00158587     -95.9594 
         -50      46.8549     0.999995   0.00158622     -95.9515 
         -50       47.276     0.999995   0.00158654     -95.9437 
         -50       47.699     0.999996   0.00158682      -95.936 
         -50      48.1241     0.999996    0.0015873     -95.9283 
         -50      48.5508     0.999996   0.00158753     -95.9206 
         -50      48.9795     0.999996   0.00158778      -95.913 
         -50        49.41     0.999996   0.00158816     -95.9055 
         -50      49.8426     0.999996   0.00158858     -95.8981 
         -50      50.2769     0.999997   0.00158887     -95.8907 
         -50      50.7131     0.999997    0.0015889     -95.8834 
         -50      51.1512     0.999998   0.00158879     -95.8761 
         -50      51.5914            1   0.00158928      -95.869 
         -50      52.0332            1   0.00158978      -95.862 
         -50      52.4769     0.999997   0.00158922      -95.855 
         -50      52.9225     0.999995   0.00158959      -95.848 
         -50      53.3702     0.999995   0.00159023      -95.841 
         -50      53.8196     0.999995   0.00159068     -95.8341 
         -50      54.2709     0.999995   0.00159112     -95.8273 
         -50      54.7242     0.999993   0.00159178     -95.8207 
         -50      55.1792     0.999994   0.00159214     -95.8143 
         -50      55.6362     0.999995   0.00159227     -95.8079 
         -50       56.095     0.999996   0.00159229     -95.8017 
         -50      56.5558     0.999997   0.00159233     -95.7956 
         -50      57.0184     0.999998   0.00159251     -95.7896 
         -50      57.4829     0.999998   0.00159288     -95.7837 
         -50      57.9492     0.999998   0.00159342     -95.7779 
         -50      58.4176     0.999998   0.00159404     -95.7722 
         -50      58.8877     0.999997   0.00159461     -95.7666 
         -50      59.3597     0.999997   0.00159498     -95.7611 
         -50      59.8336     0.999997   0.00159505     -95.7557 
         -50      60.3096     0.999997   0.00159485     -95.7504 
         -50      60.7872     0.999997    0.0015946     -95.7453 
         -50      61.2667     0.999997   0.00159491     -95.7403 
         -50      61.7484     0.999996   0.00159687     -95.7355 
         -50      62.2317     0.999998   0.00159765     -95.7308 
         -50      62.7168            1   0.00159627     -95.7262 
         -50      63.2039            1    0.0015964     -95.7217 
         -50      63.6931            1   0.00159726     -95.7174 
         -50      64.1839            1   0.00159828     -95.7132 
         -50      64.6766     0.999998   0.00159915     -95.7093 
         -50      65.1712     0.999997    0.0015997     -95.7054 
         -50      65.6679     0.999997   0.00159989     -95.7018 
         -50      66.1663     0.999997   0.00159979     -95.6983 
         -50      66.6665     0.999997    0.0015995      -95.695 
         -50      67.1687     0.999998   0.00159916     -95.6919 
         -50      67.6729     0.999999   0.00159891     -95.6889 
         -50      68.1788            1   0.00159888     -95.6861 
         -50      68.6866            1   0.00159912     -95.6835 
         -50      69.1963            1   0.00159965      -95.681 
         -50      69.7081            1   0.00160042     -95.6788 
         -50      70.2215            1   0.00160133     -95.6767 
         -50      70.7368            1   0.00160217     -95.6749 
         -50      71.2543            1   0.00160274     -95.6733 
         -50      71.7734      1.00001   0.00160275      -95.672 
         -50      72.2943      1.00001   0.00160193     -95.6709 
         -50      72.8172      1.00001   0.00160109     -95.6704 
         -50      73.3422      1.00001   0.00160278     -95.6704 
         -50      73.8688      1.00001   0.00160404     -95.6706 
         -50      74.3973            1   0.00160462     -95.6707 
         -50      74.9277            1   0.00160421     -95.6709 
         -50      75.4602            0            0            0 
         -50      75.9944            0            0            0 
         -50      76.5305            0            0            0 
         -50      77.0684            0            0            0 
         -50      77.6084            0            0            0 
         -50      78.1502            0            0            0 
         -50      78.6937            0            0            0 
         -50      79.2394            0            0            0 
         -50      79.7868            0            0            0 
         -50      80.3361            0            0            0 
         -50      80.8872            0            0            0 
         -50      81.4404            0            0            0 
         -50      81.9953            0            0            0 
         -50      82.5521            0            0            0 
         -50      83.1108            0            0            0 
         -50      83.6715            0            0            0 
         -50       84.234            0            0            0 
         -50      84.7983            0            0            0 
         -50      85.3645            0            0            0 
         -50      85.9328            0            0            0 
         -50      86.5028            0            0            0 
         -50      87.0747            0            0            0 
         -50      87.6486            0            0            0 
         -50      88.2243            0            0            0 
         -50      88.8018            0            0            0 
         -50      89.3812            0            0            0 
         -50      89.9627            0            0            0 
         -50      90.5458            0            0            0 
         -50      91.1309            0            0            0 
         -50      91.7178            0            0            0 
         -50      92.3069            0            0            0 
         -50      92.8976            0            0            0 
         -50      93.4901            0            0            0 
         -50      94.0846            0            0            0 
         -50      94.6812            0            0            0 
         -50      95.2794            0            0            0 
         -50      95.8796            0            0            0 
         -50      96.4818            0            0            0 
         -50      97.0857            0            0            0 
         -50      97.6915            0            0            0 
         -50      98.2991            0            0            0 
         -50      98.9089            0            0            0 
         -50      99.5203            0            0            0 
         -50      100.134            0            0            0 
         -50      100.749            0            0            0 
         -50      101.366            0            0            0 
         -50      101.985            0            0            0 
         -50      102.606            0            0            0 
         -50      103.229            0            0            0 
         -50      103.854            0            0            0 
         -50       104.48            0            0            0 
         -50      105.108            0            0            0 
         -50      105.739            0            0            0 
         -50      106.371            0            0            0 
         -50      107.005            0            0            0 
         -50      107.641            0            0            0 
         -50      108.279            0            0            0 
         -50      108.919            0            0            0 
         -50       109.56            0            0            0 
         -50      110.204            0            0            0 
         -50      110.849            0            0            0 
         -50      111.497            0            0            0 
         -50      112.146            0            0            0 
         -50      112.797            0            0            0 
         -50       113.45            0            0            0 
         -50      114.105            0            0            0 
         -50      114.761            0            0            0 
         -50       115.42            0            0            0 
         -50      116.081            0            0            0 
         -50      116.743            0            0            0 
         -50      117.407            0            0            0 
         -50      118.073            0            0            0 
         -50      118.741            0            0            0 
         -50      119.411            0            0            0 
         -50      120.083            0            0            0 
         -50      120.757            0            0            0 
         -50      121.432            0            0            0 
         -50       122.11            0            0            0 
         -50      122.789            0            0            0 
         -50       123.47            0            0            0 
         -50      124.153            0            0            0 
         -50      124.838            0            0            0 
         -50      125.525            0            0            0 
         -50      126.214            0            0            0 
         -50      126.905            0            0            0 
         -50      127.597            0            0            0 
         -50      128.292            0            0            0 
         -50      128.988            0            0            0 
         -50      129.686            0            0            0 
         -50      130.386            0            0            0 
         -50      131.088            0            0            0 
         -50      131.792            0            0            0 
         -50      132.497            0            0            0 
         -50      133.205            0            0            0 
         -50      133.915            0            0            0 
         -50      134.626            0            0            0 
         -50      135.339            0            0            0 
         -50      136.054            0            0            0 
         -50      136.771            0            0            0 
         -50       137.49            0            0            0 
         -50      138.211            0            0            0 
         -50      138.934            0            0            0 
         -50      139.658            0            0            0 
         -50      140.385            0            0            0 
         -50      141.113            0            0            0 
         -50      141.843            0            0            0 
         -50      142.575            0            0            0 
         -50      143.309            0            0            0 
         -50      144.045            0            0            0 
         -50      144.783            0            0            0 
         -50      145.523            0            0            0 
         -50      146.264            0            0            0 
         -50      147.007            0            0            0 
         -50      147.753            0            0            0 
         -50        148.5            0            0            0 
         -50      149.249            0            0            0 
         -50          150            0            0            0 
         -25            0  2.76877e-18 -3.28077e-24     -94.1474 
         -25     0.000942   0.00056366 -2.26558e-10     -94.1474 
         -25     0.003768   0.00225296  4.33309e-09     -94.1474 
         -25     0.008478   0.00506422  2.90097e-08     -94.1474 
         -25     0.015075   0.00899655   9.8399e-08     -94.1474 
         -25     0.023553    0.0140468  2.45532e-07     -94.1474 
         -25     0.033916    0.0202199  5.12032e-07     -94.1474 
         -25     0.046163    0.0275167   9.4828e-07     -94.1474 
         -25       0.0603    0.0359386  1.61376e-06     -94.1474 
         -25     0.076315    0.0454769  2.57589e-06     -94.1474 
         -25     0.094215    0.0561363  3.91252e-06     -94.1474 
         -25     0.113999    0.0679144  5.70719e-06     -94.1474 
         -25     0.135675    0.0808154  8.05565e-06     -94.1474 
         -25     0.159228    0.0948286  1.10595e-05     -94.1474 
         -25     0.184664     0.109955  1.48322e-05     -94.1474 
         -25     0.211985     0.126193  1.94977e-05     -94.1474 
         -25     0.241201     0.143543  2.51923e-05     -94.1474 
         -25      0.27229     0.161986  3.20543e-05     -94.1474 
         -25     0.305263     0.181521  4.02483e-05     -94.1474 
         -25     0.340135     0.202147  4.99469e-05     -94.1474 
         -25     0.376877     0.223831  6.13158e-05     -94.1474 
         -25     0.415503     0.246566  7.45367e-05     -94.1474 
         -25     0.456013     0.270328  8.97901e-05     -94.1474 
         -25     0.498424       0.2951  0.000107265     -94.1474 
         -25     0.542703     0.320827  0.000127134     -94.1474 
         -25     0.588866     0.347476  0.000149591     -94.1474 
         -25     0.636912     0.374995  0.000174882     -94.1474 
         -25     0.686864     0.403334  0.000203158     -94.1474 
         -25     0.738679     0.432395  0.000234478     -94.1473 
         -25     0.792379     0.462104  0.000268954     -94.1473 
         -25     0.847962     0.492358  0.000306663     -94.1473 
         -25     0.905453     0.523054  0.000347664     -94.1473 
         -25     0.964806     0.554037  0.000391922     -94.1473 
         -25      1.02604     0.585169  0.000439386     -94.1473 
         -25      1.08919     0.616302  0.000489941     -94.1472 
         -25      1.15419     0.647233  0.000543325     -94.1472 
         -25      1.22108     0.677787  0.000599248     -94.1472 
         -25      1.28985     0.707763   0.00065731     -94.1472 
         -25      1.36054      0.73697  0.000717062     -94.1471 
         -25      1.43308     0.765176  0.000777934     -94.1471 
         -25      1.50751     0.792193  0.000839435     -94.1471 
         -25      1.58382     0.817821   0.00090081      -94.147 
         -25      1.66204     0.841913  0.000961422      -94.147 
         -25      1.74212     0.864289   0.00102047     -94.1469 
         -25      1.82409     0.884832   0.00107727     -94.1469 
         -25      1.90793      0.90346   0.00113117     -94.1468 
         -25       1.9937     0.920136   0.00118163     -94.1468 
         -25      2.08131     0.934843    0.0012281     -94.1467 
         -25      2.17081     0.947627   0.00127024     -94.1467 
         -25      2.26223     0.958566   0.00130778     -94.1466 
         -25       2.3555     0.967761   0.00134053     -94.1465 
         -25      2.45065     0.975354   0.00136847     -94.1465 
         -25      2.54769     0.981502   0.00139169     -94.1464 