Variables = x, y, u, v, p

Zone, I=6400, F=POINT
         -50            0            0            0       218.69 
         -50     0.000471  7.10487e-05  4.70136e-09       218.69 
         -50     0.001884  0.000251591  1.82574e-08       218.69 
         -50     0.004239  0.000460945  3.92836e-08       218.69 
         -50     0.007537  0.000613135  6.62177e-08       218.69 
         -50     0.011776  0.000662808  9.80008e-08       218.69 
         -50     0.016958  0.000628585  1.34517e-07       218.69 
         -50     0.023081  0.000576206  1.76335e-07       218.69 
         -50      0.03015  0.000567213  2.24066e-07       218.69 
         -50     0.038157  0.000605454  2.77453e-07       218.69 
         -50     0.047107  0.000631655  3.35402e-07       218.69 
         -50     0.056999  0.000599733  3.96801e-07       218.69 
         -50     0.067837  0.000580972  4.61729e-07       218.69 
         -50     0.079614  0.000634444  5.28704e-07       218.69 
         -50     0.092332  0.000603079  5.94682e-07       218.69 
         -50     0.105992  0.000610587  6.62239e-07       218.69 
         -50       0.1206  0.000610174  7.27173e-07       218.69 
         -50     0.136145   0.00061054  7.88263e-07       218.69 
         -50     0.152631  0.000613974  8.45559e-07       218.69 
         -50     0.170067  0.000618438  8.98917e-07       218.69 
         -50     0.188438  0.000621384  9.46488e-07       218.69 
         -50     0.207751  0.000623486  9.84738e-07       218.69 
         -50     0.228006   0.00062841  1.01192e-06       218.69 
         -50     0.249212  0.000632107  1.03911e-06       218.69 
         -50     0.271351  0.000636841  1.04814e-06       218.69 
         -50     0.294433  0.000641547   1.0452e-06       218.69 
         -50     0.318456  0.000646058  1.06136e-06       218.69 
         -50     0.343432  0.000650524  1.10735e-06       218.69 
         -50     0.369339  0.000654988   1.1753e-06       218.69 
         -50     0.396189  0.000659419  1.24297e-06       218.69 
         -50     0.423981  0.000663737  1.27994e-06       218.69 
         -50     0.452726   0.00066786  1.25548e-06       218.69 
         -50     0.482403   0.00067173  1.14642e-06       218.69 
         -50     0.513021  0.000675351  9.42948e-07       218.69 
         -50     0.544594  0.000678759  6.49014e-07       218.69 
         -50     0.577096  0.000681941  2.73753e-07       218.69 
         -50     0.610541  0.000684667 -1.65389e-07      218.689 
         -50     0.644927  0.000687135 -1.01315e-07      218.689 
         -50      0.68027  0.000689201 -5.67232e-08      218.689 
         -50     0.716541  0.000690865 -8.02041e-09      218.689 
         -50     0.753754  0.000692124  5.72623e-08      218.689 
         -50     0.791909  0.000692971  1.41551e-07      218.689 
         -50     0.831022  0.000693399  2.39179e-07      218.689 
         -50     0.871061  0.000693401  3.38784e-07      218.689 
         -50     0.912043  0.000692971  4.26667e-07      218.689 
         -50     0.953966  0.000692114  4.90085e-07      218.689 
         -50     0.996849  0.000690838  5.20822e-07      218.689 
         -50      1.04066  0.000689166  5.18333e-07      218.688 
         -50      1.08541   0.00068713  4.92158e-07      218.688 
         -50      1.13112  0.000684775  4.62702e-07      218.688 
         -50      1.17775  0.000682156  4.59854e-07      218.688 
         -50      1.22533  0.000679329  5.18176e-07      218.688 
         -50      1.27384  0.000676347  6.67758e-07      218.688 
         -50      1.32333  0.000673242  9.19266e-07      218.688 
         -50      1.37373   0.00067001  1.24088e-06      218.687 
         -50      1.42507  0.000666575  1.52682e-06      218.687 
         -50      1.47736  0.000662757  1.55316e-06      218.687 
         -50      1.53061  0.000657049  1.67889e-06      218.687 
         -50      1.58478  0.000649077  2.17976e-06      218.686 
         -50      1.63989  0.000640746  2.41117e-06      218.686 
         -50      1.69595  0.000632529  2.50625e-06      218.686 
         -50      1.75297  0.000624801  2.57389e-06      218.686 
         -50      1.81091  0.000617846  2.69827e-06      218.685 
         -50      1.86979  0.000611843  2.93902e-06      218.685 
         -50      1.92964  0.000606882  3.33204e-06      218.685 
         -50       1.9904  0.000602975   3.8901e-06      218.684 
         -50      2.05211  0.000600053  4.60562e-06      218.684 
         -50      2.11476  0.000597986  5.45252e-06      218.684 
         -50      2.17838  0.000596595  6.38965e-06      218.683 
         -50      2.24291  0.000595666  7.36275e-06      218.683 
         -50      2.30839   0.00059497  8.31051e-06      218.682 
         -50       2.3748  0.000594274  9.16737e-06      218.682 
         -50      2.44219  0.000593366  9.86841e-06      218.682 
         -50      2.51049  0.000592068  1.03529e-05      218.681 
         -50      2.57974  0.000590254  1.05704e-05      218.681 
         -50      2.64993  0.000587861  1.04837e-05       218.68 
         -50      2.72108  0.000584902  1.00723e-05       218.68 
         -50      2.79315  0.000581475  9.33643e-06      218.679 
         -50      2.86617  0.000577755  8.29748e-06      218.678 
         -50      2.94012  0.000573992  6.99888e-06      218.678 
         -50      3.01505  0.000570485  5.50374e-06      218.677 
         -50      3.09089  0.000567564  3.89343e-06      218.677 
         -50      3.16767  0.000565532  2.25719e-06      218.676 
         -50      3.24542  0.000564611  6.83566e-07      218.675 
         -50      3.32409  0.000564855 -7.51738e-07      218.674 
         -50       3.4037  0.000566045 -2.00889e-06      218.674 
         -50      3.48425  0.000567557 -3.10575e-06      218.673 
         -50      3.56577  0.000568195 -4.15005e-06      218.672 
         -50       3.6482  0.000565988 -5.37611e-06      218.671 
         -50      3.73158  0.000557954 -7.19397e-06       218.67 
         -50       3.8159  0.000554177   -5.206e-06      218.669 
         -50      3.90119  0.000554811 -2.90983e-06      218.669 
         -50       3.9874   0.00055727 -4.72084e-06      218.668 
         -50      4.07454   0.00056001 -5.82911e-06      218.667 
         -50      4.16263  0.000562618 -6.20576e-06      218.666 
         -50      4.25169  0.000564866 -5.98351e-06      218.665 
         -50      4.34166   0.00056665 -5.33448e-06      218.663 
         -50      4.43258  0.000567973 -4.44365e-06      218.662 
         -50      4.52447  0.000568909 -3.48494e-06      218.661 
         -50      4.61726  0.000569569  -2.6022e-06       218.66 
         -50        4.711  0.000570084 -1.89083e-06      218.659 
         -50      4.80569  0.000570571 -1.38919e-06      218.658 
         -50      4.90135  0.000571115 -1.07549e-06      218.656 
         -50      4.99791  0.000571756 -8.74757e-07      218.655 
         -50      5.09542   0.00057248 -6.75775e-07      218.654 
         -50      5.19387  0.000573217  -3.6255e-07      218.652 
         -50       5.2933  0.000573858  1.39681e-07      218.651 
         -50      5.39364  0.000574275  7.99085e-07      218.649 
         -50      5.49491  0.000574362  1.39323e-06      218.648 
         -50      5.59713  0.000574096  1.39944e-06      218.646 
         -50      5.70033   0.00057391  1.29356e-06      218.644 
         -50      5.80443  0.000573823  3.06444e-06      218.643 
         -50      5.90948  0.000573334  4.41133e-06      218.641 
         -50      6.01551  0.000572803  5.41304e-06      218.639 
         -50      6.12244  0.000572471  6.16201e-06      218.637 
         -50      6.23031  0.000572474  6.75184e-06      218.636 
         -50      6.33912  0.000572843  7.25411e-06      218.634 
         -50      6.44892   0.00057351  7.68997e-06      218.632 
         -50      6.55962  0.000574312  7.99187e-06       218.63 
         -50      6.67126  0.000574998  7.95731e-06      218.628 
         -50      6.78384  0.000575211  7.33698e-06      218.626 
         -50      6.89741  0.000574584  8.78793e-06      218.624 
         -50      7.01187  0.000573953   9.5018e-06      218.621 
         -50      7.12728  0.000573656  9.87609e-06      218.619 
         -50      7.24363  0.000573819  1.02398e-05      218.617 
         -50      7.36097  0.000574378  1.08392e-05      218.614 
         -50       7.4792  0.000575115  1.18248e-05      218.612 
         -50      7.59838  0.000575725  1.32435e-05       218.61 
         -50      7.71854  0.000575897  1.50345e-05      218.607 
         -50       7.8396  0.000575434  1.70264e-05      218.605 
         -50      7.96161  0.000574396  1.89487e-05      218.602 
         -50      8.08455  0.000573284  2.04413e-05      218.599 
         -50      8.20849  0.000573257  2.10764e-05      218.596 
         -50      8.33332  0.000574989  2.11758e-05      218.594 
         -50      8.45909  0.000575593  2.22762e-05      218.591 
         -50       8.5858  0.000575687  2.37042e-05      218.588 
         -50      8.71351  0.000575524  2.52566e-05      218.585 
         -50       8.8421  0.000575271  2.67916e-05      218.582 
         -50      8.97164  0.000575027  2.82242e-05      218.579 
         -50      9.10212  0.000574834   2.9516e-05      218.576 
         -50       9.2336  0.000574693  3.06673e-05      218.572 
         -50      9.36596  0.000574581   3.1707e-05      218.569 
         -50      9.49927   0.00057446  3.26873e-05      218.566 
         -50      9.63352  0.000574296  3.36728e-05      218.562 
         -50      9.76877  0.000574067  3.47344e-05      218.559 
         -50       9.9049  0.000573775  3.59392e-05      218.555 
         -50       10.042  0.000573457  3.73465e-05      218.551 
         -50      10.1801  0.000573189  3.90008e-05      218.548 
         -50       10.319  0.000573093  4.09238e-05      218.544 
         -50      10.4589  0.000572573  4.09413e-05       218.54 
         -50      10.5998  0.000572146  4.10355e-05      218.536 
         -50      10.7416   0.00057219  4.22599e-05      218.532 
         -50      10.8843  0.000572594  4.43825e-05      218.528 
         -50       11.028   0.00057293  4.66251e-05      218.524 
         -50      11.1726  0.000572357  4.75645e-05       218.52 
         -50      11.3182  0.000569498  4.50246e-05      218.515 
         -50      11.4647   0.00057094  4.74791e-05      218.511 
         -50      11.6122  0.000571681  4.97464e-05      218.506 
         -50      11.7605  0.000571404  5.11385e-05      218.502 
         -50      11.9099  0.000570623   5.1994e-05      218.497 
         -50      12.0602  0.000569829  5.26351e-05      218.493 
         -50      12.2114  0.000569496  5.33666e-05      218.488 
         -50      12.3636  0.000570052  5.44584e-05      218.483 
         -50      12.5167  0.000569521  5.53245e-05      218.478 
         -50      12.6707  0.000568897   5.6179e-05      218.473 
         -50      12.8257  0.000568168  5.70493e-05      218.468 
         -50      12.9817  0.000567339  5.79498e-05      218.463 
         -50      13.1386  0.000566436  5.88814e-05      218.458 
         -50      13.2964  0.000565499  5.98362e-05      218.452 
         -50      13.4551  0.000564581  6.07974e-05      218.447 
         -50      13.6149  0.000563743   6.1743e-05      218.441 
         -50      13.7755  0.000563051  6.26472e-05      218.436 
         -50      13.9371  0.000562561   6.3486e-05       218.43 
         -50      14.0996  0.000562313  6.42396e-05      218.424 
         -50      14.2631  0.000562319  6.48974e-05      218.419 
         -50      14.4275  0.000562549   6.5462e-05      218.413 
         -50      14.5928  0.000562912  6.59564e-05      218.407 
         -50      14.7592  0.000563237  6.64289e-05      218.401 
         -50      14.9264  0.000563253  6.69602e-05      218.394 
         -50      15.0946  0.000562558  6.76713e-05      218.388 
         -50      15.2637  0.000560597  6.87316e-05      218.382 
         -50      15.4338  0.000556621  7.03691e-05      218.375 
         -50      15.6048  0.000555936  7.12698e-05      218.369 
         -50      15.7767  0.000557411  7.17819e-05      218.362 
         -50      15.9496  0.000557916  7.26104e-05      218.355 
         -50      16.1235  0.000557639  7.36328e-05      218.349 
         -50      16.2982  0.000556799   7.4757e-05      218.342 
         -50      16.4739  0.000555619  7.59188e-05      218.335 
         -50      16.6506  0.000554307   7.7076e-05      218.328 
         -50      16.8282  0.000553036  7.82036e-05      218.321 
         -50      17.0068  0.000551936  7.92878e-05      218.313 
         -50      17.1862  0.000551074  8.03227e-05      218.306 
         -50      17.3667  0.000550459  8.13044e-05      218.299 
         -50      17.5481  0.000550037  8.22241e-05      218.291 
         -50      17.7304  0.000549701  8.30654e-05      218.284 
         -50      17.9136  0.000549304  8.37977e-05      218.276 
         -50      18.0979  0.000548681  8.43714e-05      218.268 
         -50       18.283  0.000547681  8.47117e-05       218.26 
         -50      18.4691  0.000546201  8.47156e-05      218.252 
         -50      18.6561  0.000544302    8.438e-05      218.244 
         -50      18.8441  0.000543002   8.5852e-05      218.236 
         -50       19.033  0.000541721  8.72062e-05      218.228 
         -50      19.2228  0.000540783  8.83941e-05      218.219 
         -50      19.4136  0.000540381  8.94211e-05      218.211 
         -50      19.6054  0.000540463  9.03485e-05      218.203 
         -50       19.798  0.000540594  9.12936e-05      218.194 
         -50      19.9917  0.000539798  9.24337e-05      218.185 
         -50      20.1862  0.000536793   9.2988e-05      218.176 
         -50      20.3818  0.000534531  9.34717e-05      218.168 
         -50      20.5782  0.000533184  9.42149e-05      218.159 
         -50      20.7756  0.000532371  9.50925e-05       218.15 
         -50       20.974  0.000531826  9.60162e-05       218.14 
         -50      21.1732  0.000531371   9.6927e-05      218.131 
         -50      21.3734  0.000530901  9.77914e-05      218.122 
         -50      21.5745  0.000530365  9.85954e-05      218.113 
         -50      21.7767  0.000529747  9.93388e-05      218.103 
         -50      21.9797  0.000529057   0.00010003      218.093 
         -50      22.1837  0.000528313  0.000100685      218.084 
         -50      22.3886   0.00052753  0.000101317      218.074 
         -50      22.5945  0.000526718  0.000101941      218.064 
         -50      22.8013   0.00052587  0.000102565      218.054 
         -50      23.0091  0.000524962  0.000103191      218.044 
         -50      23.2177  0.000523952  0.000103814      218.034 
         -50      23.4274  0.000522786  0.000104421      218.024 
         -50       23.638  0.000521409  0.000104989      218.014 
         -50      23.8495   0.00051977  0.000105495      218.003 
         -50       24.062  0.000517847  0.000105909      217.993 
         -50      24.2754  0.000515666  0.000106205      217.983 
         -50      24.4897  0.000513327  0.000106364      217.972 
         -50       24.705  0.000511044  0.000106383      217.961 
         -50      24.9213  0.000509176   0.00010628      217.951 
         -50      25.1385  0.000508287  0.000106108       217.94 
         -50      25.3566   0.00051063  0.000106861      217.929 
         -50      25.5756   0.00051815  0.000107673      217.918 
         -50      25.7957  0.000517081  0.000107335      217.907 
         -50      26.0166  0.000514178  0.000108932      217.896 
         -50      26.2385  0.000510474  0.000110295      217.884 
         -50      26.4613  0.000506652   0.00011128      217.873 
         -50      26.6851  0.000503183  0.000111851      217.862 
         -50      26.9098  0.000500359  0.000112048       217.85 
         -50      27.1354  0.000498308   0.00011196      217.839 
         -50      27.3621  0.000497031  0.000111706      217.827 
         -50      27.5896  0.000496426   0.00011141      217.816 
         -50      27.8181  0.000496313  0.000111181      217.804 
         -50      28.0475  0.000496466  0.000111105      217.792 
         -50      28.2779  0.000496637   0.00011123       217.78 
         -50      28.5092  0.000496586  0.000111565      217.769 
         -50      28.7414  0.000496106  0.000112072      217.757 
         -50      28.9746  0.000495049   0.00011268      217.745 
         -50      29.2088  0.000493356  0.000113286      217.732 
         -50      29.4439  0.000491079   0.00011378       217.72 
         -50      29.6799   0.00048841  0.000114062      217.708 
         -50      29.9168  0.000485697  0.000114077      217.696 
         -50      30.1548  0.000483475  0.000113851      217.683 
         -50      30.3936  0.000482486  0.000113539      217.671 
         -50      30.6334  0.000483695  0.000113479      217.659 
         -50      30.8742  0.000486779   0.00011402      217.646 
         -50      31.1158  0.000484127  0.000114035      217.634 
         -50      31.3584  0.000481055   0.00011403      217.621 
         -50       31.602  0.000478138  0.000113982      217.608 
         -50      31.8465  0.000475705  0.000113883      217.596 
         -50      32.0919  0.000473894  0.000113731      217.583 
         -50      32.3383  0.000472694  0.000113534       217.57 
         -50      32.5856  0.000471993  0.000113304      217.557 
         -50       32.834  0.000471619  0.000113057      217.545 
         -50      33.0831   0.00047137  0.000112811      217.532 
         -50      33.3333  0.000471054  0.000112583      217.519 
         -50      33.5843  0.000470505  0.000112388      217.506 
         -50      33.8364  0.000469611  0.000112238      217.493 
         -50      34.0894  0.000468324  0.000112143       217.48 
         -50      34.3433  0.000466666  0.000112104      217.467 
         -50      34.5981  0.000464732  0.000112119      217.454 
         -50       34.854  0.000462676  0.000112178       217.44 
         -50      35.1107  0.000460699  0.000112264      217.427 
         -50      35.3684  0.000459017  0.000112353      217.414 
         -50      35.6271   0.00045783  0.000112417      217.401 
         -50      35.8867  0.000457269  0.000112421      217.388 
         -50      36.1472  0.000457339  0.000112324      217.374 
         -50      36.4086  0.000457849  0.000112085      217.361 
         -50      36.6711  0.000458539  0.000111625      217.348 
         -50      36.9344  0.000457588  0.000111267      217.335 
         -50      37.1987  0.000452592  0.000111779      217.321 
         -50      37.4639  0.000450432  0.000111254      217.308 
         -50      37.7301  0.000449172  0.000111342      217.295 
         -50      37.9972  0.000447774  0.000110974      217.281 
         -50      38.2652  0.000446834  0.000110187      217.268 
         -50      38.5342  0.000446121  0.000109335      217.255 
         -50      38.8042  0.000445455  0.000108634      217.241 
         -50      39.0751    0.0004447  0.000108192      217.228 
         -50      39.3469  0.000443086  0.000108035      217.215 
         -50      39.6197  0.000441307  0.000107991      217.201 
         -50      39.8934   0.00043953  0.000107991      217.188 
         -50       40.168  0.000437777   0.00010798      217.174 
         -50      40.4436  0.000436067  0.000107903      217.161 
         -50      40.7202  0.000434415   0.00010772      217.148 
         -50      40.9977  0.000432834  0.000107404      217.135 
         -50      41.2761  0.000431334  0.000106944      217.121 
         -50      41.5554  0.000429925  0.000106351      217.108 
         -50      41.8358  0.000428614  0.000105653      217.095 
         -50       42.117  0.000427407  0.000104895      217.081 
         -50      42.3992  0.000426309  0.000104131      217.068 
         -50      42.6823  0.000425324   0.00010342      217.055 
         -50      42.9664  0.000424454  0.000102818      217.042 
         -50      43.2514  0.000423699   0.00010236      217.029 
         -50      43.5373  0.000423057  0.000102053      217.016 
         -50      43.8243  0.000422521  0.000101851      217.003 
         -50      44.1121  0.000422082  0.000101642       216.99 
         -50      44.4009  0.000421721  0.000101216      216.977 
         -50      44.6906  0.000421416  0.000100247      216.964 
         -50      44.9813  0.000420601  9.85424e-05      216.951 
         -50      45.2729  0.000416559  9.84207e-05      216.938 
         -50      45.5654   0.00041396  9.80844e-05      216.925 
         -50      45.8589  0.000412313  9.75248e-05      216.912 
         -50      46.1534   0.00041122  9.67708e-05        216.9 
         -50      46.4488  0.000410377  9.58797e-05      216.887 
         -50      46.7451  0.000409572  9.49244e-05      216.874 
         -50      47.0423  0.000408692  9.39851e-05      216.862 
         -50      47.3406  0.000407712   9.3141e-05      216.849 
         -50      47.6397  0.000406695  9.24638e-05      216.837 
         -50      47.9398  0.000405837  9.15277e-05      216.824 
         -50      48.2409  0.000404632  9.06347e-05      216.812 
         -50      48.5428  0.000403206  8.97946e-05        216.8 
         -50      48.8457  0.000401703  8.90017e-05      216.788 
         -50      49.1496   0.00040029  8.82381e-05      216.776 
         -50      49.4545  0.000399139  8.74763e-05      216.764 
         -50      49.7602  0.000398413  8.66862e-05      216.752 
         -50      50.0668   0.00039822  8.58425e-05       216.74 
         -50      50.3744  0.000398568  8.49381e-05      216.728 
         -50      50.6831  0.000399297  8.39985e-05      216.716 
         -50      50.9926  0.000399992  8.31028e-05      216.705 
         -50       51.303  0.000399889  8.24041e-05      216.693 
         -50      51.6144  0.000397751  8.21577e-05      216.682 
         -50      51.9268  0.000394787  8.19289e-05       216.67 
         -50        52.24  0.000396883  7.99526e-05      216.659 
         -50      52.5542  0.000395977  7.85225e-05      216.648 
         -50      52.8694  0.000393372  7.74991e-05      216.637 
         -50      53.1856  0.000390152  7.67669e-05      216.626 
         -50      53.5026  0.000387215  7.62314e-05      216.615 
         -50      53.8205  0.000385295  7.58129e-05      216.604 
         -50      54.1396  0.000384617  7.53388e-05      216.593 
         -50      54.4594   0.00038362  7.44518e-05      216.583 
         -50      54.7802  0.000383014  7.34484e-05      216.572 
         -50      55.1019  0.000382753  7.23223e-05      216.562 
         -50      55.4247  0.000382748  7.10914e-05      216.552 
         -50      55.7483  0.000382886  6.97906e-05      216.542 
         -50      56.0729  0.000383045  6.84606e-05      216.532 
         -50      56.3984  0.000383115  6.71431e-05      216.522 
         -50       56.725  0.000383008  6.58735e-05      216.512 
         -50      57.0523  0.000382664  6.46788e-05      216.503 
         -50      57.3807  0.000382061  6.35713e-05      216.493 
         -50      57.7099  0.000381217  6.25488e-05      216.484 
         -50      58.0403  0.000380183  6.15936e-05      216.475 
         -50      58.3714  0.000379044  6.06755e-05      216.466 
         -50      58.7035  0.000377904  5.97525e-05      216.457 
         -50      59.0367  0.000376871  5.87774e-05      216.448 
         -50      59.3707  0.000376042   5.7706e-05       216.44 
         -50      59.7056   0.00037547  5.65031e-05      216.431 
         -50      60.0414  0.000375141  5.51565e-05      216.423 
         -50      60.3784  0.000374933  5.36886e-05      216.415 
         -50      60.7161  0.000374578  5.21748e-05      216.407 
         -50      61.0548  0.000373611  5.07592e-05      216.399 
         -50      61.3944  0.000371313  4.96769e-05      216.391 
         -50      61.7351  0.000366652  4.92784e-05      216.383 
         -50      62.0767  0.000365247  4.90928e-05      216.376 
         -50      62.4191  0.000379276  4.65756e-05      216.369 
         -50      62.7625  0.000383404  4.47893e-05      216.362 
         -50       63.107  0.000381716  4.34897e-05      216.355 
         -50      63.4523  0.000377236   4.2484e-05      216.348 
         -50      63.7985  0.000372079  4.16224e-05      216.342 
         -50      64.1458  0.000367598  4.07943e-05      216.335 
         -50      64.4939  0.000364532  3.99239e-05      216.329 
         -50       64.843  0.000363128  3.89634e-05      216.323 
         -50      65.1929  0.000363269  3.78892e-05      216.317 
         -50       65.544   0.00036459  3.66966e-05      216.311 
         -50      65.8959  0.000366575  3.53971e-05      216.306 
         -50      66.2487  0.000368652  3.40116e-05      216.301 
         -50      66.6025  0.000370271  3.25681e-05      216.295 
         -50      66.9573  0.000370968  3.10972e-05      216.291 
         -50       67.313  0.000370418  2.96308e-05      216.286 
         -50      67.6695  0.000368474   2.8196e-05      216.281 
         -50      68.0271  0.000365185  2.68143e-05      216.277 
         -50      68.3857  0.000360802  2.54985e-05      216.273 
         -50      68.7451   0.00035577  2.42528e-05      216.269 
         -50      69.1055  0.000350687  2.30682e-05      216.265 
         -50      69.4669  0.000346258   2.1923e-05      216.262 
         -50      69.8291  0.000343228  2.07837e-05      216.258 
         -50      70.1923  0.000342283  1.96023e-05      216.255 
         -50      70.5564  0.000343932  1.83182e-05      216.253 
         -50      70.9217  0.000348379  1.68587e-05       216.25 
         -50      71.2877  0.000355339  1.51426e-05      216.247 
         -50      71.6546  0.000363867  1.30793e-05      216.245 
         -50      72.0225   0.00037213  1.05738e-05      216.243 
         -50      72.3915  0.000377163  7.52832e-06      216.242 
         -50      72.7613  0.000378506  4.60641e-06       216.24 
         -50       73.132  0.000388288  4.40812e-06      216.239 
         -50      73.5036  0.000387312  4.11011e-06      216.239 
         -50      73.8764  0.000364855  3.61624e-06      216.238 
         -50      74.2499  0.000306416  2.82884e-06      216.238 
         -50      74.6244   0.00019295  1.65259e-06      216.238 
         -50           75           -0  4.96139e-17      216.238 
         -25            0  6.19818e-19  1.12858e-23      212.708 
         -25     0.000471  6.06196e-05  1.11932e-09      212.708 
         -25     0.001884  0.000214727  4.13099e-09      212.708 
         -25     0.004239  0.000393651  8.07291e-09      212.708 
         -25     0.007537  0.000524214  1.15662e-08      212.708 
         -25     0.011776  0.000567814  1.30478e-08      212.708 
         -25     0.016958  0.000540304  1.09506e-08      212.708 
         -25     0.023081  0.000497638  3.74467e-09      212.708 
         -25      0.03015   0.00049219 -1.01522e-08      212.708 
         -25     0.038157  0.000527214  -3.2437e-08      212.708 
         -25     0.047107   0.00055223 -6.49216e-08      212.708 
         -25     0.056999  0.000527969 -1.09186e-07      212.708 
         -25     0.067837  0.000515058 -1.66244e-07      212.708 
         -25     0.079614  0.000563719 -2.36967e-07      212.708 
         -25     0.092332   0.00054019 -3.22312e-07      212.708 
         -25     0.105992  0.000549706 -4.21812e-07      212.708 
         -25       0.1206   0.00055237 -5.35379e-07      212.708 
         -25     0.136145  0.000555524 -6.62159e-07      212.708 
         -25     0.152631  0.000561062 -8.01166e-07      212.708 
         -25     0.170067  0.000567208 -9.51186e-07      212.708 
         -25     0.188438  0.000571759 -1.11051e-06      212.708 
         -25     0.207751  0.000575271 -1.27739e-06      212.708 
         -25     0.228006  0.000580859 -1.45009e-06      212.708 
         -25     0.249212  0.000585088 -1.62781e-06      212.708 
         -25     0.271351  0.000589906  -1.8083e-06      212.708 
         -25     0.294433  0.000594421 -1.98854e-06      212.708 
         -25     0.318456  0.000598538 -2.16917e-06      212.708 
         -25     0.343432  0.000602423 -2.35077e-06      212.708 
         -25     0.369339  0.000606147 -2.53359e-06      212.708 
         -25     0.396189  0.000609709  -2.7183e-06      212.708 
         -25     0.423981   0.00061306  -2.9058e-06      212.708 
         -25     0.452726   0.00061614 -3.09748e-06      212.708 
         -25     0.482403  0.000618908 -3.29479e-06      212.708 
         -25     0.513021  0.000621369  -3.4991e-06      212.708 
         -25     0.544594  0.000623552 -3.71041e-06      212.708 
         -25     0.577096  0.000625435 -3.92492e-06      212.708 
         -25     0.610541  0.000626797 -4.13245e-06      212.708 
         -25     0.644927  0.000627825 -4.34136e-06      212.708 
         -25      0.68027  0.000628392 -4.56288e-06      212.708 
         -25     0.716541  0.000628484 -4.79963e-06      212.708 
         -25     0.753754  0.000628099 -5.05267e-06      212.708 
         -25     0.791909  0.000627247 -5.32121e-06      212.708 
         -25     0.831022  0.000625947 -5.60301e-06      212.708 
         -25     0.871061  0.000624228 -5.89417e-06      212.708 
         -25     0.912043  0.000622123 -6.19026e-06      212.708 
         -25     0.953966  0.000619674 -6.48623e-06      212.708 
         -25     0.996849  0.000616918 -6.77722e-06      212.708 
         -25      1.04066  0.000613899 -7.05856e-06      212.708 
         -25      1.08541  0.000610648 -7.32702e-06      212.707 
         -25      1.13112   0.00060719 -7.58079e-06      212.707 
         -25      1.17775   0.00060354 -7.81947e-06      212.707 
         -25      1.22533  0.000599695 -8.04457e-06      212.707 
         -25      1.27384  0.000595634 -8.25875e-06      212.707 