Variables = x, y, u, v, p

Zone, I=6400, F=POINT
         -50            0            0            0     -69.8467 
         -50     0.000471 -6.34157e-06 -7.74491e-10     -69.8467 
         -50     0.001884 -2.23597e-05  -2.8537e-09     -69.8467 
         -50     0.004239 -4.06817e-05 -5.65609e-09     -69.8467 
         -50     0.007537 -5.36506e-05 -8.64363e-09     -69.8467 
         -50     0.011776 -5.76032e-05 -1.17349e-08     -69.8467 
         -50     0.016958 -5.48232e-05 -1.55341e-08     -69.8467 
         -50     0.023081 -5.15437e-05 -2.11989e-08     -69.8467 
         -50      0.03015  -5.2776e-05 -2.99969e-08     -69.8467 
         -50     0.038157 -5.74146e-05 -4.27486e-08     -69.8467 
         -50     0.047107 -5.87279e-05 -5.96407e-08     -69.8467 
         -50     0.056999 -5.31335e-05 -8.05654e-08     -69.8467 
         -50     0.067837 -5.03244e-05 -1.05644e-07     -69.8467 
         -50     0.079614 -5.49526e-05 -1.33709e-07     -69.8467 
         -50     0.092332  -4.9443e-05 -1.62795e-07     -69.8467 
         -50     0.105992 -4.91078e-05 -1.92791e-07     -69.8467 
         -50       0.1206 -4.74775e-05 -2.21515e-07     -69.8467 
         -50     0.136145 -4.60011e-05 -2.47396e-07     -69.8467 
         -50     0.152631 -4.50454e-05 -2.68844e-07     -69.8467 
         -50     0.170067 -4.42536e-05 -2.84926e-07     -69.8467 
         -50     0.188438  -4.3197e-05  -2.9614e-07     -69.8467 
         -50     0.207751 -4.20015e-05  -3.0499e-07     -69.8467 
         -50     0.228006 -4.13061e-05  -3.1559e-07     -69.8467 
         -50     0.249212 -4.04358e-05 -3.31395e-07     -69.8467 
         -50     0.271351 -3.97841e-05 -3.62339e-07     -69.8467 
         -50     0.294433 -3.91775e-05 -4.11404e-07     -69.8467 
         -50     0.318456 -3.85876e-05 -4.77399e-07     -69.8466 
         -50     0.343432 -3.80383e-05 -5.50671e-07     -69.8466 
         -50     0.369339 -3.75362e-05 -6.15556e-07     -69.8466 
         -50     0.396189 -3.70734e-05 -6.54823e-07     -69.8466 
         -50     0.423981 -3.66342e-05  -6.5485e-07     -69.8466 
         -50     0.452726 -3.62022e-05 -6.11318e-07     -69.8466 
         -50     0.482403 -3.57681e-05 -5.34209e-07     -69.8466 
         -50     0.513021  -3.5333e-05 -4.50165e-07     -69.8466 
         -50     0.544594  -3.4907e-05 -4.00182e-07     -69.8466 
         -50     0.577096 -3.44971e-05 -4.29381e-07     -69.8465 
         -50     0.610541 -3.40827e-05  -5.6371e-07     -69.8465 
         -50     0.644927 -3.37756e-05 -6.69203e-07     -69.8465 
         -50      0.68027 -3.34823e-05 -6.91768e-07     -69.8465 
         -50     0.716541 -3.32201e-05  -6.7158e-07     -69.8465 
         -50     0.753754 -3.29977e-05 -6.35936e-07     -69.8464 
         -50     0.791909 -3.28156e-05 -5.99874e-07     -69.8464 
         -50     0.831022 -3.26671e-05 -5.67668e-07     -69.8464 
         -50     0.871061 -3.25396e-05 -5.35129e-07     -69.8464 
         -50     0.912043 -3.24162e-05 -4.92456e-07     -69.8463 
         -50     0.953966 -3.22784e-05 -4.27712e-07     -69.8463 
         -50     0.996849  -3.2108e-05 -3.30411e-07     -69.8462 
         -50      1.04066 -3.18907e-05 -1.95231e-07     -69.8462 
         -50      1.08541 -3.16179e-05 -2.46756e-08     -69.8462 
         -50      1.13112 -3.12896e-05  1.69155e-07     -69.8461 
         -50      1.17775 -3.09165e-05  3.64621e-07     -69.8461 
         -50      1.22533 -3.05196e-05  5.34273e-07      -69.846 
         -50      1.27384 -3.01303e-05  6.51983e-07      -69.846 
         -50      1.32333 -2.97864e-05  7.05903e-07     -69.8459 
         -50      1.37373 -2.95268e-05  7.18479e-07     -69.8458 
         -50      1.42507 -2.93801e-05  7.75674e-07     -69.8458 
         -50      1.47736 -2.93508e-05  1.06727e-06     -69.8457 
         -50      1.53061 -3.09762e-05  1.27722e-06     -69.8456 
         -50      1.58478 -3.52365e-05   1.0869e-06     -69.8456 
         -50      1.63989 -4.00796e-05  1.08931e-06     -69.8455 
         -50      1.69595 -4.50868e-05  1.22511e-06     -69.8454 
         -50      1.75297 -4.99273e-05  1.43958e-06     -69.8453 
         -50      1.81091 -5.43502e-05  1.68301e-06     -69.8452 
         -50      1.86979 -5.81925e-05   1.9119e-06     -69.8451 
         -50      1.92964 -6.13685e-05  2.08945e-06      -69.845 
         -50       1.9904  -6.3859e-05  2.18581e-06     -69.8449 
         -50      2.05211 -6.57107e-05  2.17904e-06     -69.8448 
         -50      2.11476 -6.70192e-05  2.05513e-06     -69.8447 
         -50      2.17838 -6.79185e-05   1.8081e-06     -69.8446 
         -50      2.24291 -6.85658e-05  1.44051e-06     -69.8444 
         -50      2.30839 -6.91279e-05  9.62702e-07     -69.8443 
         -50       2.3748  -6.9765e-05  3.92807e-07     -69.8442 
         -50      2.44219 -7.06153e-05 -2.44139e-07      -69.844 
         -50      2.51049 -7.17794e-05 -9.15992e-07     -69.8439 
         -50      2.57974 -7.33087e-05 -1.58609e-06     -69.8437 
         -50      2.64993 -7.51942e-05 -2.21355e-06     -69.8435 
         -50      2.72108 -7.73604e-05 -2.75543e-06     -69.8434 
         -50      2.79315 -7.96603e-05 -3.16778e-06     -69.8432 
         -50      2.86617 -8.18855e-05 -3.40935e-06      -69.843 
         -50      2.94012 -8.37754e-05 -3.44332e-06     -69.8428 
         -50      3.01505 -8.50421e-05 -3.24051e-06     -69.8426 
         -50      3.09089 -8.54036e-05 -2.78327e-06     -69.8424 
         -50      3.16767 -8.46374e-05 -2.06897e-06     -69.8422 
         -50      3.24542 -8.26441e-05 -1.11415e-06      -69.842 
         -50      3.32409 -7.95399e-05   3.8969e-08     -69.8417 
         -50       3.4037 -7.57628e-05  1.31947e-06     -69.8415 
         -50      3.48425 -7.22133e-05  2.62034e-06     -69.8412 
         -50      3.56577 -7.04235e-05  3.79281e-06      -69.841 
         -50       3.6482 -7.27643e-05  4.63753e-06     -69.8407 
         -50      3.73158 -8.26838e-05  4.89984e-06     -69.8404 
         -50       3.8159 -8.65675e-05  4.19211e-06     -69.8402 
         -50      3.90119 -8.48471e-05  3.69254e-06     -69.8399 
         -50       3.9874 -8.15178e-05   5.0514e-06     -69.8396 
         -50      4.07454 -7.80372e-05  6.13055e-06     -69.8392 
         -50      4.16263 -7.48957e-05  6.90805e-06     -69.8389 
         -50      4.25169  -7.2361e-05  7.42907e-06     -69.8386 
         -50      4.34166 -7.05344e-05  7.75255e-06     -69.8382 
         -50      4.43258 -6.93869e-05  7.94108e-06     -69.8379 
         -50      4.52447 -6.88041e-05  8.04997e-06     -69.8375 
         -50      4.61726 -6.86255e-05  8.11933e-06     -69.8371 
         -50        4.711 -6.86791e-05  8.16887e-06     -69.8368 
         -50      4.80569  -6.8813e-05   8.1956e-06     -69.8364 
         -50      4.90135 -6.89188e-05  8.17594e-06     -69.8359 
         -50      4.99791 -6.89462e-05  8.07288e-06     -69.8355 
         -50      5.09542 -6.89054e-05  7.84916e-06     -69.8351 
         -50      5.19387 -6.88552e-05  7.48752e-06     -69.8346 
         -50       5.2933 -6.88745e-05  7.01914e-06     -69.8342 
         -50      5.39364  -6.9012e-05  6.56273e-06     -69.8337 
         -50      5.49491 -6.92129e-05  6.37254e-06     -69.8332 
         -50      5.59713 -6.92171e-05  6.90091e-06     -69.8327 
         -50      5.70033 -6.84777e-05  7.36511e-06     -69.8322 
         -50      5.80443 -6.79575e-05  5.55769e-06     -69.8317 
         -50      5.90948 -6.79961e-05  4.16676e-06     -69.8311 
         -50      6.01551 -6.82883e-05  3.25566e-06     -69.8306 
         -50      6.12244 -6.85818e-05  2.77247e-06       -69.83 
         -50      6.23031 -6.86841e-05  2.59712e-06     -69.8294 
         -50      6.33912 -6.84703e-05  2.59126e-06     -69.8288 
         -50      6.44892 -6.78946e-05   2.6438e-06     -69.8282 
         -50      6.55962 -6.70059e-05  2.71333e-06     -69.8275 
         -50      6.67126 -6.59649e-05  2.86586e-06     -69.8269 
         -50      6.78384 -6.52016e-05  3.26893e-06     -69.8262 
         -50      6.89741  -6.6991e-05  3.51922e-06     -69.8256 
         -50      7.01187 -6.79161e-05  4.10771e-06     -69.8249 
         -50      7.12728  -6.8116e-05  4.58723e-06     -69.8241 
         -50      7.24363  -6.7749e-05  4.72472e-06     -69.8234 
         -50      7.36097 -6.70001e-05  4.46126e-06     -69.8227 
         -50       7.4792 -6.60809e-05  3.86886e-06     -69.8219 
         -50      7.59838 -6.52173e-05  3.10186e-06     -69.8211 
         -50      7.71854 -6.46291e-05  2.34497e-06     -69.8203 
         -50       7.8396 -6.44963e-05  1.75849e-06     -69.8195 
         -50      7.96161 -6.49092e-05  1.41661e-06     -69.8187 
         -50      8.08455 -6.58048e-05  1.24501e-06     -69.8178 
         -50      8.20849 -6.68834e-05  9.53053e-07     -69.8169 
         -50      8.33332 -6.65174e-05  1.13855e-06      -69.816 
         -50      8.45909 -6.56968e-05  1.66009e-06     -69.8151 
         -50       8.5858 -6.58215e-05   1.3813e-06     -69.8142 
         -50      8.71351 -6.62661e-05  7.93922e-07     -69.8133 
         -50       8.8421 -6.66158e-05  2.40034e-07     -69.8123 
         -50      8.97164 -6.66363e-05 -7.13604e-08     -69.8113 
         -50      9.10212 -6.62419e-05 -4.42528e-08     -69.8103 
         -50       9.2336 -6.54635e-05  3.24131e-07     -69.8092 
         -50      9.36596 -6.44195e-05  9.62851e-07     -69.8082 
         -50      9.49927 -6.32845e-05   1.7488e-06     -69.8071 
         -50      9.63352 -6.22625e-05  2.52688e-06      -69.806 
         -50      9.76877 -6.15616e-05  3.13088e-06     -69.8049 
         -50       9.9049 -6.13718e-05  3.40269e-06     -69.8038 
         -50       10.042 -6.18459e-05  3.21331e-06     -69.8026 
         -50      10.1801 -6.30864e-05  2.47982e-06     -69.8014 
         -50       10.319 -6.51351e-05  1.18414e-06     -69.8002 
         -50      10.4589  -6.3973e-05  1.48324e-06      -69.799 
         -50      10.5998 -6.21182e-05  2.30176e-06     -69.7977 
         -50      10.7416 -6.09273e-05  2.94725e-06     -69.7965 
         -50      10.8843 -6.04354e-05  3.46443e-06     -69.7952 
         -50       11.028 -6.07686e-05  3.78832e-06     -69.7939 
         -50      11.1726 -6.21118e-05   3.5688e-06     -69.7925 
         -50      11.3182 -6.46717e-05  1.95133e-06     -69.7911 
         -50      11.4647 -6.30788e-05  2.98379e-06     -69.7898 
         -50      11.6122 -6.16869e-05  3.56471e-06     -69.7883 
         -50      11.7605 -6.10742e-05  3.53127e-06     -69.7869 
         -50      11.9099  -6.1089e-05  3.19731e-06     -69.7854 
         -50      12.0602 -6.14647e-05  2.80721e-06     -69.7839 
         -50      12.2114 -6.18015e-05  2.53272e-06     -69.7824 
         -50      12.3636 -6.15507e-05  2.46656e-06     -69.7809 
         -50      12.5167 -6.11275e-05  2.26101e-06     -69.7793 
         -50      12.6707 -6.08447e-05  2.04163e-06     -69.7777 
         -50      12.8257 -6.07051e-05  1.83552e-06     -69.7761 
         -50      12.9817 -6.06912e-05  1.65937e-06     -69.7745 
         -50      13.1386 -6.07668e-05  1.52161e-06     -69.7728 
         -50      13.2964 -6.08801e-05   1.4238e-06     -69.7711 
         -50      13.4551 -6.09685e-05  1.36261e-06     -69.7694 
         -50      13.6149 -6.09641e-05  1.33126e-06     -69.7676 
         -50      13.7755 -6.08009e-05   1.3209e-06     -69.7659 
         -50      13.9371  -6.0424e-05  1.32156e-06     -69.7641 
         -50      14.0996 -5.97998e-05  1.32309e-06     -69.7622 
         -50      14.2631 -5.89287e-05  1.31558e-06     -69.7604 
         -50      14.4275 -5.78607e-05  1.28948e-06     -69.7585 
         -50      14.5928 -5.67109e-05  1.23537e-06     -69.7566 
         -50      14.7592 -5.56793e-05  1.14307e-06     -69.7547 
         -50      14.9264 -5.50746e-05  1.00061e-06     -69.7527 
         -50      15.0946 -5.53361e-05   7.9212e-07     -69.7507 
         -50      15.2637 -5.70636e-05  4.95509e-07     -69.7487 
         -50      15.4338 -6.10505e-05  7.90443e-08     -69.7466 
         -50      15.6048  -6.1244e-05 -6.36637e-08     -69.7446 
         -50      15.7767 -5.87961e-05 -1.03274e-07     -69.7425 
         -50      15.9496 -5.72875e-05 -2.31521e-07     -69.7403 
         -50      16.1235 -5.65733e-05   -4.004e-07     -69.7382 
         -50      16.2982 -5.64605e-05 -5.80522e-07      -69.736 
         -50      16.4739  -5.6734e-05 -7.58939e-07     -69.7338 
         -50      16.6506 -5.71835e-05 -9.35923e-07     -69.7315 
         -50      16.8282 -5.76238e-05 -1.12176e-06     -69.7292 
         -50      17.0068 -5.79116e-05  -1.3327e-06     -69.7269 
         -50      17.1862 -5.79588e-05 -1.58723e-06     -69.7246 
         -50      17.3667 -5.77378e-05 -1.90126e-06     -69.7223 
         -50      17.5481 -5.72831e-05 -2.28259e-06     -69.7199 
         -50      17.7304 -5.66843e-05 -2.72599e-06     -69.7175 
         -50      17.9136 -5.60723e-05 -3.20663e-06      -69.715 
         -50      18.0979 -5.55966e-05 -3.67357e-06     -69.7125 
         -50       18.283 -5.53948e-05 -4.04182e-06       -69.71 
         -50      18.4691 -5.55495e-05 -4.18547e-06     -69.7075 
         -50      18.6561 -5.60633e-05 -4.01696e-06     -69.7049 
         -50      18.8441 -5.70416e-05  -4.8206e-06     -69.7023 
         -50       19.033 -5.76928e-05  -5.3606e-06     -69.6997 
         -50      19.2228 -5.77791e-05 -5.70541e-06     -69.6971 
         -50      19.4136 -5.71823e-05 -5.90278e-06     -69.6944 
         -50      19.6054 -5.60026e-05 -5.95049e-06     -69.6917 
         -50       19.798 -5.46783e-05  -5.7611e-06      -69.689 
         -50      19.9917 -5.41191e-05  -5.1212e-06     -69.6862 
         -50      20.1862 -5.55976e-05 -5.70947e-06     -69.6834 
         -50      20.3818 -5.64539e-05 -6.71843e-06     -69.6806 
         -50      20.5782 -5.65159e-05 -7.33004e-06     -69.6777 
         -50      20.7756 -5.61412e-05 -7.64525e-06     -69.6749 
         -50       20.974  -5.5579e-05 -7.74604e-06      -69.672 
         -50      21.1732 -5.49903e-05 -7.69817e-06      -69.669 
         -50      21.3734 -5.44652e-05 -7.55372e-06     -69.6661 
         -50      21.5745 -5.40408e-05 -7.35303e-06     -69.6631 
         -50      21.7767 -5.37172e-05 -7.12675e-06     -69.6601 
         -50      21.9797 -5.34721e-05 -6.89814e-06      -69.657 
         -50      22.1837  -5.3273e-05 -6.68424e-06      -69.654 
         -50      22.3886 -5.30881e-05 -6.49777e-06     -69.6509 
         -50      22.5945 -5.28947e-05 -6.34834e-06     -69.6477 
         -50      22.8013 -5.26854e-05 -6.24366e-06     -69.6446 
         -50      23.0091 -5.24707e-05 -6.19002e-06     -69.6414 
         -50      23.2177 -5.22792e-05 -6.19291e-06     -69.6382 
         -50      23.4274 -5.21541e-05 -6.25715e-06     -69.6349 
         -50       23.638 -5.21461e-05 -6.38636e-06     -69.6317 
         -50      23.8495 -5.23018e-05 -6.58245e-06     -69.6284 
         -50       24.062 -5.26488e-05  -6.8444e-06     -69.6251 
         -50      24.2754 -5.31736e-05 -7.16608e-06     -69.6217 
         -50      24.4897 -5.37978e-05 -7.53465e-06     -69.6184 
         -50       24.705 -5.43456e-05 -7.92723e-06      -69.615 
         -50      24.9213 -5.45066e-05 -8.30761e-06     -69.6116 
         -50      25.1385 -5.37924e-05 -8.62141e-06     -69.6081 
         -50      25.3566 -5.09218e-05 -8.37853e-06     -69.6047 
         -50      25.5756 -4.38164e-05 -8.20808e-06     -69.6012 
         -50      25.7957 -4.40711e-05 -9.07806e-06     -69.5977 
         -50      26.0166 -4.59396e-05 -8.31983e-06     -69.5941 
         -50      26.2385 -4.83327e-05 -7.52043e-06     -69.5906 
         -50      26.4613 -5.07023e-05  -7.0158e-06      -69.587 
         -50      26.6851 -5.26656e-05 -6.94995e-06     -69.5834 
         -50      26.9098 -5.39857e-05 -7.32443e-06     -69.5797 
         -50      27.1354  -5.4558e-05 -8.04392e-06     -69.5761 
         -50      27.3621  -5.4388e-05 -8.95819e-06     -69.5724 
         -50      27.5896  -5.3572e-05 -9.89675e-06     -69.5687 
         -50      27.8181 -5.22759e-05 -1.07018e-05      -69.565 
         -50      28.0475 -5.07128e-05 -1.12514e-05     -69.5612 
         -50      28.2779 -4.91191e-05  -1.1477e-05     -69.5575 
         -50      28.5092 -4.77324e-05 -1.13737e-05     -69.5537 
         -50      28.7414 -4.67622e-05 -1.10023e-05     -69.5499 
         -50      28.9746 -4.63659e-05 -1.04813e-05      -69.546 
         -50      29.2088 -4.66202e-05 -9.97002e-06     -69.5422 
         -50      29.4439 -4.74917e-05 -9.64183e-06     -69.5383 
         -50      29.6799 -4.88073e-05 -9.64329e-06     -69.5344 
         -50      29.9168 -5.02229e-05 -1.00438e-05     -69.5305 
         -50      30.1548 -5.11912e-05  -1.0771e-05     -69.5266 
         -50      30.3936 -5.09266e-05 -1.15305e-05     -69.5227 
         -50      30.6334 -4.83735e-05 -1.17139e-05     -69.5187 
         -50      30.8742  -4.3867e-05 -1.09855e-05     -69.5148 
         -50      31.1158 -4.54846e-05 -1.19082e-05     -69.5108 
         -50      31.3584 -4.72693e-05 -1.22521e-05     -69.5068 
         -50       31.602 -4.87577e-05 -1.22639e-05     -69.5027 
         -50      31.8465 -4.97002e-05 -1.21163e-05     -69.4987 
         -50      32.0919 -5.00136e-05 -1.19209e-05     -69.4947 
         -50      32.3383 -4.97406e-05 -1.17403e-05     -69.4906 
         -50      32.5856 -4.90082e-05 -1.15999e-05     -69.4865 
         -50       32.834 -4.79916e-05 -1.14983e-05     -69.4824 
         -50      33.0831 -4.68836e-05 -1.14174e-05     -69.4783 
         -50      33.3333  -4.5865e-05  -1.1331e-05     -69.4742 
         -50      33.5843  -4.5083e-05 -1.12125e-05     -69.4701 
         -50      33.8364 -4.46341e-05 -1.10413e-05     -69.4659 
         -50      34.0894 -4.45529e-05 -1.08082e-05     -69.4618 
         -50      34.3433 -4.48067e-05 -1.05183e-05     -69.4576 
         -50      34.5981 -4.52981e-05 -1.01935e-05     -69.4535 
         -50       34.854 -4.58752e-05 -9.87219e-06     -69.4493 
         -50      35.1107 -4.63484e-05  -9.6083e-06     -69.4451 
         -50      35.3684 -4.65183e-05 -9.46643e-06     -69.4409 
         -50      35.6271 -4.62108e-05  -9.5166e-06     -69.4367 
         -50      35.8867 -4.53238e-05 -9.82552e-06     -69.4325 
         -50      36.1472 -4.38832e-05 -1.04458e-05     -69.4283 
         -50      36.4086 -4.21114e-05 -1.14023e-05      -69.424 
         -50      36.6711 -4.02883e-05 -1.23527e-05     -69.4198 
         -50      36.9344  -3.9936e-05 -1.20177e-05     -69.4156 
         -50      37.1987 -4.32324e-05 -1.06027e-05     -69.4113 
         -50      37.4639 -4.50654e-05 -1.13953e-05     -69.4071 
         -50      37.7301 -4.56232e-05 -1.08976e-05     -69.4028 
         -50      37.9972  -4.5826e-05  -1.0525e-05     -69.3986 
         -50      38.2652 -4.55813e-05 -1.08447e-05     -69.3943 
         -50      38.5342 -4.51087e-05 -1.14229e-05     -69.3901 
         -50      38.8042 -4.45811e-05 -1.19775e-05     -69.3858 
         -50      39.0751 -4.41266e-05 -1.23486e-05     -69.3816 
         -50      39.3469 -4.39455e-05 -1.21866e-05     -69.3773 
         -50      39.6197 -4.38664e-05  -1.1813e-05     -69.3731 
         -50      39.8934 -4.38567e-05 -1.13372e-05     -69.3688 
         -50       40.168 -4.39084e-05  -1.0821e-05     -69.3646 
         -50      40.4436  -4.4009e-05 -1.03273e-05     -69.3603 
         -50      40.7202 -4.41423e-05 -9.91241e-06     -69.3561 
         -50      40.9977 -4.42885e-05 -9.62066e-06     -69.3518 
         -50      41.2761 -4.44257e-05  -9.4783e-06     -69.3476 
         -50      41.5554 -4.45302e-05 -9.49158e-06     -69.3434 
         -50      41.8358 -4.45774e-05 -9.64561e-06     -69.3391 
         -50       42.117 -4.45429e-05 -9.90513e-06     -69.3349 
         -50      42.3992 -4.44035e-05 -1.02181e-05     -69.3307 
         -50      42.6823  -4.4138e-05 -1.05212e-05     -69.3265 
         -50      42.9664 -4.37288e-05 -1.07476e-05     -69.3223 
         -50      43.2514 -4.31632e-05 -1.08379e-05     -69.3181 
         -50      43.5373 -4.24345e-05 -1.07539e-05      -69.314 
         -50      43.8243  -4.1543e-05 -1.04944e-05     -69.3098 
         -50      44.1121 -4.04998e-05 -1.01159e-05     -69.3056 
         -50      44.4009 -3.93253e-05  -9.7547e-06     -69.3015 
         -50      44.6906 -3.80533e-05 -9.65375e-06     -69.2974 
         -50      44.9813 -3.76441e-05  -1.0104e-05     -69.2932 
         -50      45.2729 -4.24276e-05 -1.01675e-05     -69.2891 
         -50      45.5654 -4.43541e-05 -1.01694e-05     -69.2851 
         -50      45.8589 -4.45029e-05 -1.02106e-05      -69.281 
         -50      46.1534 -4.37217e-05 -1.03286e-05     -69.2769 
         -50      46.4488 -4.26424e-05 -1.05108e-05     -69.2729 
         -50      46.7451 -4.16945e-05 -1.07073e-05     -69.2689 
         -50      47.0423 -4.11237e-05 -1.08427e-05     -69.2648 
         -50      47.3406  -4.1011e-05 -1.08261e-05     -69.2609 
         -50      47.6397 -4.12932e-05 -1.05604e-05     -69.2569 
         -50      47.9398 -4.15821e-05 -1.02607e-05     -69.2529 
         -50      48.2409 -4.19169e-05 -1.00834e-05      -69.249 
         -50      48.5428 -4.21868e-05 -9.93096e-06     -69.2451 
         -50      48.8457 -4.23226e-05 -9.73132e-06     -69.2412 
         -50      49.1496 -4.22841e-05 -9.44483e-06     -69.2374 
         -50      49.4545 -4.20495e-05 -9.06657e-06     -69.2335 
         -50      49.7602  -4.1611e-05 -8.62492e-06     -69.2297 
         -50      50.0668 -4.09727e-05 -8.17351e-06     -69.2259 
         -50      50.3744 -4.01549e-05 -7.77954e-06     -69.2221 
         -50      50.6831 -3.92025e-05 -7.50567e-06     -69.2184 
         -50      50.9926 -3.82005e-05 -7.38662e-06     -69.2147 
         -50       51.303  -3.7292e-05 -7.39842e-06      -69.211 
         -50      51.6144 -3.67055e-05 -7.42227e-06     -69.2074 
         -50      51.9268 -3.66473e-05 -7.63575e-06     -69.2038 
         -50        52.24 -3.71791e-05 -8.68576e-06     -69.2002 
         -50      52.5542 -3.84066e-05 -9.25353e-06     -69.1966 
         -50      52.8694 -3.98219e-05 -9.42685e-06     -69.1931 
         -50      53.1856 -4.09365e-05 -9.25353e-06     -69.1895 
         -50      53.5026 -4.12698e-05 -8.74494e-06      -69.186 
         -50      53.8205 -4.03433e-05 -7.87919e-06     -69.1825 
         -50      54.1396 -3.88451e-05 -6.89472e-06     -69.1791 
         -50      54.4594  -3.9964e-05 -6.74495e-06     -69.1757 
         -50      54.7802 -4.02548e-05 -6.63723e-06     -69.1723 
         -50      55.1019 -4.00327e-05 -6.60147e-06      -69.169 
         -50      55.4247 -3.95334e-05  -6.6387e-06     -69.1658 
         -50      55.7483 -3.89254e-05 -6.73022e-06     -69.1626 
         -50      56.0729 -3.83215e-05 -6.84607e-06     -69.1594 
         -50      56.3984 -3.77895e-05 -6.95225e-06     -69.1563 
         -50       56.725 -3.73627e-05 -7.01683e-06     -69.1532 
         -50      57.0523 -3.70496e-05 -7.01479e-06     -69.1501 
         -50      57.3807 -3.68408e-05 -6.93177e-06     -69.1471 
         -50      57.7099 -3.67171e-05  -6.7661e-06     -69.1441 
         -50      58.0403 -3.66554e-05 -6.52947e-06     -69.1412 
         -50      58.3714 -3.66333e-05 -6.24644e-06     -69.1383 
         -50      58.7035  -3.6633e-05 -5.95128e-06     -69.1354 
         -50      59.0367 -3.66428e-05 -5.68392e-06     -69.1326 
         -50      59.3707 -3.66584e-05 -5.48406e-06     -69.1298 
         -50      59.7056 -3.66815e-05 -5.38231e-06     -69.1271 
         -50      60.0414 -3.67173e-05 -5.39036e-06     -69.1244 
         -50      60.3784 -3.67706e-05 -5.48842e-06     -69.1218 
         -50      60.7161 -3.68389e-05  -5.6102e-06     -69.1192 
         -50      61.0548 -3.69046e-05 -5.62599e-06     -69.1166 
         -50      61.3944 -3.69249e-05 -5.32267e-06     -69.1141 
         -50      61.7351  -3.6819e-05 -4.38079e-06     -69.1117 
         -50      62.0767 -3.56198e-05 -3.31975e-06     -69.1093 
         -50      62.4191 -3.23937e-05 -4.62574e-06      -69.107 
         -50      62.7625  -3.0772e-05 -5.15924e-06     -69.1047 
         -50       63.107 -3.03849e-05 -5.17548e-06     -69.1024 
         -50      63.4523 -3.08992e-05 -4.87764e-06     -69.1003 
         -50      63.7985 -3.20191e-05  -4.4225e-06     -69.0981 
         -50      64.1458 -3.34891e-05 -3.92572e-06     -69.0961 
         -50      64.4939 -3.50908e-05 -3.46817e-06      -69.094 
         -50       64.843 -3.66473e-05 -3.09995e-06     -69.0921 
         -50      65.1929 -3.80201e-05 -2.84626e-06     -69.0902 
         -50       65.544  -3.9109e-05   -2.712e-06     -69.0883 
         -50      65.8959 -3.98489e-05 -2.68648e-06     -69.0866 
         -50      66.2487 -4.02105e-05 -2.74744e-06     -69.0848 
         -50      66.6025 -4.01959e-05 -2.86536e-06     -69.0832 
         -50      66.9573 -3.98351e-05 -3.00707e-06     -69.0816 
         -50       67.313  -3.9183e-05 -3.13896e-06     -69.0801 
         -50      67.6695  -3.8314e-05 -3.23031e-06     -69.0786 
         -50      68.0271 -3.73168e-05 -3.25568e-06     -69.0772 
         -50      68.3857 -3.62879e-05 -3.19715e-06     -69.0758 
         -50      68.7451 -3.53263e-05 -3.04622e-06     -69.0745 
         -50      69.1055 -3.45235e-05 -2.80496e-06     -69.0733 
         -50      69.4669 -3.39559e-05 -2.48675e-06     -69.0722 
         -50      69.8291 -3.36762e-05 -2.11711e-06     -69.0711 
         -50      70.1923 -3.37011e-05 -1.73264e-06     -69.0701 
         -50      70.5564 -3.40016e-05 -1.38066e-06     -69.0692 
         -50      70.9217   -3.449e-05 -1.11756e-06     -69.0683 
         -50      71.2877 -3.50056e-05 -1.00706e-06     -69.0675 
         -50      71.6546 -3.53019e-05 -1.11676e-06     -69.0668 
         -50      72.0225 -3.50297e-05 -1.51514e-06     -69.0662 
         -50      72.3915 -3.37199e-05 -2.26747e-06     -69.0657 
         -50      72.7613 -3.22325e-05 -2.91499e-06     -69.0653 
         -50       73.132 -3.53531e-05 -1.70195e-06     -69.0652 
         -50      73.5036 -3.70849e-05 -6.10928e-07     -69.0651 
         -50      73.8764 -3.62294e-05  2.34834e-07     -69.0651 
         -50      74.2499 -3.12057e-05  7.05045e-07     -69.0651 
         -50      74.6244 -1.99835e-05  6.69208e-07     -69.0652 
         -50           75           -0  4.96139e-17     -69.0653 
         -25            0 -5.52698e-20 -2.91085e-24     -67.9465 
         -25     0.000471 -5.39782e-06 -2.62904e-10     -67.9465 
         -25     0.001884   -1.904e-05 -6.57018e-10     -67.9465 
         -25     0.004239 -3.46743e-05 -4.81978e-11     -67.9465 
         -25     0.007537 -4.58207e-05  3.30842e-09     -67.9465 
         -25     0.011776 -4.94108e-05  1.16014e-08     -67.9465 
         -25     0.016958 -4.74466e-05  2.73367e-08     -67.9465 
         -25     0.023081 -4.52953e-05  5.32521e-08     -67.9465 
         -25      0.03015 -4.72834e-05  9.23538e-08     -67.9465 
         -25     0.038157 -5.25212e-05  1.47809e-07     -67.9465 
         -25     0.047107 -5.53191e-05  2.22991e-07     -67.9465 
         -25     0.056999 -5.26502e-05  3.21123e-07     -67.9465 
         -25     0.067837 -5.27707e-05  4.45079e-07     -67.9465 
         -25     0.079614 -5.96239e-05  5.97425e-07     -67.9465 
         -25     0.092332 -5.82114e-05  7.80439e-07     -67.9465 
         -25     0.105992 -6.15121e-05  9.95222e-07     -67.9465 
         -25       0.1206 -6.39486e-05  1.24275e-06     -67.9465 
         -25     0.136145  -6.6667e-05  1.52294e-06     -67.9465 
         -25     0.152631   -6.989e-05  1.83543e-06     -67.9465 
         -25     0.170067 -7.32233e-05  2.17939e-06     -67.9465 
         -25     0.188438 -7.62095e-05  2.55289e-06     -67.9465 
         -25     0.207751 -7.88759e-05  2.95389e-06     -67.9465 
         -25     0.228006  -8.1696e-05  3.38009e-06     -67.9465 
         -25     0.249212 -8.40406e-05  3.83017e-06     -67.9465 
         -25     0.271351 -8.62024e-05  4.29979e-06     -67.9465 
         -25     0.294433  -8.8002e-05  4.78611e-06     -67.9465 
         -25     0.318456 -8.94036e-05  5.28851e-06     -67.9465 
         -25     0.343432 -9.04234e-05  5.80423e-06     -67.9465 
         -25     0.369339 -9.10671e-05  6.32823e-06     -67.9465 
         -25     0.396189 -9.13355e-05  6.85578e-06     -67.9465 
         -25     0.423981 -9.12268e-05  7.38288e-06     -67.9465 
         -25     0.452726 -9.07425e-05  7.90806e-06     -67.9465 
         -25     0.482403 -8.98927e-05  8.43246e-06     -67.9465 
         -25     0.513021 -8.86984e-05  8.96073e-06     -67.9465 
         -25     0.544594 -8.71882e-05  9.49836e-06     -67.9465 
         -25     0.577096 -8.53893e-05  1.00459e-05     -67.9465 
         -25     0.610541 -8.33014e-05  1.05934e-05     -67.9465 
         -25     0.644927 -8.09815e-05  1.11899e-05     -67.9465 
         -25      0.68027  -7.8415e-05  1.17862e-05     -67.9465 
         -25     0.716541  -7.5655e-05  1.23818e-05     -67.9465 
         -25     0.753754 -7.27547e-05  1.29762e-05     -67.9465 
         -25     0.791909 -6.97702e-05  1.35678e-05     -67.9465 
         -25     0.831022 -6.67563e-05  1.41547e-05     -67.9464 
         -25     0.871061 -6.37701e-05  1.47337e-05     -67.9464 
         -25     0.912043 -6.08616e-05  1.53021e-05     -67.9464 
         -25     0.953966 -5.80773e-05  1.58566e-05     -67.9464 
         -25     0.996849  -5.5456e-05  1.63944e-05     -67.9464 
         -25      1.04066  -5.3032e-05  1.69122e-05     -67.9464 
         -25      1.08541 -5.08277e-05  1.74079e-05     -67.9464 
         -25      1.13112 -4.88574e-05  1.78799e-05     -67.9464 
         -25      1.17775 -4.71297e-05  1.83263e-05     -67.9464 
         -25      1.22533  -4.5645e-05  1.87466e-05     -67.9464 
         -25      1.27384  -4.4402e-05  1.91395e-05     -67.9463 