Variables = x, y, u, v, p

Zone, I=6400, F=POINT
         -50            0            0            0     -99.5439 
         -50     0.000471 -2.77441e-05 -1.73116e-09     -99.5439 
         -50     0.001884 -9.82027e-05 -6.62194e-09     -99.5439 
         -50     0.004239 -0.000179814 -1.39527e-08     -99.5439 
         -50     0.007537 -0.000239088 -2.30557e-08     -99.5439 
         -50     0.011776 -0.000258607 -3.37913e-08     -99.5439 
         -50     0.016958 -0.000246008 -4.67749e-08     -99.5439 
         -50     0.023081 -0.000227027 -6.30933e-08     -99.5439 
         -50      0.03015 -0.000225082 -8.36671e-08     -99.5439 
         -50     0.038157 -0.000240433 -1.08502e-07     -99.5439 
         -50     0.047107 -0.000248939 -1.36639e-07     -99.5439 
         -50     0.056999 -0.000233373 -1.66931e-07     -99.5439 
         -50     0.067837 -0.000224373 -1.99246e-07     -99.5439 
         -50     0.079614  -0.00024356 -2.32898e-07     -99.5439 
         -50     0.092332 -0.000227295 -2.64405e-07     -99.5439 
         -50     0.105992 -0.000227558 -2.93531e-07     -99.5439 
         -50       0.1206 -0.000223865 -3.18162e-07     -99.5439 
         -50     0.136145 -0.000220462 -3.36587e-07     -99.5439 
         -50     0.152631 -0.000218453 -3.47149e-07     -99.5439 
         -50     0.170067 -0.000216829 -3.48674e-07     -99.5439 
         -50     0.188438 -0.000214351 -3.40892e-07     -99.5439 
         -50     0.207751 -0.000211376 -3.24424e-07     -99.5439 
         -50     0.228006 -0.000209728 -2.99712e-07     -99.5439 
         -50     0.249212  -0.00020741 -2.63914e-07     -99.5439 
         -50     0.271351 -0.000205605 -2.20057e-07     -99.5439 
         -50     0.294433 -0.000203769 -1.65986e-07     -99.5439 
         -50     0.318456 -0.000201848 -8.48602e-08     -99.5439 
         -50     0.343432 -0.000199938  2.15313e-08     -99.5438 
         -50     0.369339  -0.00019808  1.35867e-07     -99.5438 
         -50     0.396189 -0.000196275  2.31737e-07     -99.5438 
         -50     0.423981 -0.000194502  2.81698e-07     -99.5438 
         -50     0.452726 -0.000192746  2.66514e-07     -99.5438 
         -50     0.482403 -0.000191022  1.83417e-07     -99.5438 
         -50     0.513021 -0.000189381  5.03983e-08     -99.5437 
         -50     0.544594 -0.000187903 -9.75634e-08     -99.5437 
         -50     0.577096 -0.000186638   -2.255e-07     -99.5437 
         -50     0.610541 -0.000185501 -3.27688e-07     -99.5437 
         -50     0.644927 -0.000184723 -2.14058e-07     -99.5437 
         -50      0.68027 -0.000184192 -6.00316e-08     -99.5436 
         -50     0.716541 -0.000183925  9.75057e-08     -99.5436 
         -50     0.753754 -0.000183925  2.32129e-07     -99.5436 
         -50     0.791909 -0.000184188  3.27414e-07     -99.5435 
         -50     0.831022 -0.000184699  3.76194e-07     -99.5435 
         -50     0.871061 -0.000185435  3.79122e-07     -99.5434 
         -50     0.912043 -0.000186366  3.42882e-07     -99.5434 
         -50     0.953966 -0.000187457  2.77789e-07     -99.5433 
         -50     0.996849 -0.000188668  1.95241e-07     -99.5433 
         -50      1.04066  -0.00018996  1.05342e-07     -99.5432 
         -50      1.08541 -0.000191292  1.45093e-08     -99.5432 
         -50      1.13112 -0.000192633 -7.58282e-08     -99.5431 
         -50      1.17775 -0.000193954 -1.69236e-07      -99.543 
         -50      1.22533 -0.000195238 -2.72609e-07      -99.543 
         -50      1.27384 -0.000196478 -3.91404e-07     -99.5429 
         -50      1.32333  -0.00019768  -5.2134e-07     -99.5428 
         -50      1.37373 -0.000198861 -6.34914e-07     -99.5427 
         -50      1.42507 -0.000200047 -6.62219e-07     -99.5426 
         -50      1.47736 -0.000201268  -4.6343e-07     -99.5425 
         -50      1.53061 -0.000204124 -4.78142e-07     -99.5424 
         -50      1.58478 -0.000209569 -9.80886e-07     -99.5423 
         -50      1.63989 -0.000215478 -1.28709e-06     -99.5422 
         -50      1.69595 -0.000221383   -1.437e-06     -99.5421 
         -50      1.75297  -0.00022692 -1.47083e-06      -99.542 
         -50      1.81091 -0.000231814 -1.42815e-06     -99.5418 
         -50      1.86979  -0.00023589  -1.3472e-06     -99.5417 
         -50      1.92964 -0.000239065 -1.26415e-06     -99.5415 
         -50       1.9904 -0.000241331 -1.21248e-06     -99.5414 
         -50      2.05211  -0.00024276 -1.22208e-06     -99.5412 
         -50      2.11476 -0.000243479 -1.31865e-06     -99.5411 
         -50      2.17838 -0.000243663 -1.52311e-06     -99.5409 
         -50      2.24291 -0.000243517 -1.85055e-06     -99.5407 
         -50      2.30839  -0.00024326 -2.31015e-06     -99.5405 
         -50       2.3748 -0.000243107 -2.90439e-06     -99.5403 
         -50      2.44219  -0.00024325 -3.62903e-06     -99.5401 
         -50      2.51049 -0.000243843 -4.47171e-06     -99.5399 
         -50      2.57974 -0.000244985  -5.4136e-06     -99.5397 
         -50      2.64993 -0.000246706 -6.42842e-06     -99.5394 
         -50      2.72108 -0.000248961 -7.48363e-06     -99.5392 
         -50      2.79315  -0.00025162 -8.53938e-06     -99.5389 
         -50      2.86617 -0.000254478 -9.55217e-06     -99.5387 
         -50      2.94012 -0.000257261 -1.04747e-05     -99.5384 
         -50      3.01505 -0.000259651 -1.12584e-05     -99.5381 
         -50      3.09089 -0.000261314  -1.1855e-05     -99.5378 
         -50      3.16767 -0.000261962 -1.22215e-05     -99.5375 
         -50      3.24542 -0.000261411 -1.23224e-05     -99.5372 
         -50      3.32409 -0.000259678 -1.21351e-05     -99.5369 
         -50       3.4037 -0.000257094 -1.16553e-05     -99.5365 
         -50      3.48425 -0.000254447 -1.09036e-05     -99.5362 
         -50      3.56577 -0.000253161 -9.93248e-06     -99.5358 
         -50       3.6482 -0.000255513 -8.83702e-06     -99.5354 
         -50      3.73158 -0.000264886 -7.76273e-06     -99.5351 
         -50       3.8159 -0.000270918 -8.60031e-06     -99.5347 
         -50      3.90119 -0.000270346 -1.02038e-05     -99.5342 
         -50       3.9874 -0.000267506  -9.0703e-06     -99.5338 
         -50      4.07454  -0.00026432 -8.04173e-06     -99.5334 
         -50      4.16263 -0.000261406 -7.21349e-06     -99.5329 
         -50      4.25169 -0.000259121 -6.58462e-06     -99.5324 
         -50      4.34166 -0.000257616 -6.13538e-06     -99.5319 
         -50      4.43258 -0.000256876 -5.83708e-06     -99.5314 
         -50      4.52447 -0.000256774 -5.66323e-06     -99.5309 
         -50      4.61726 -0.000257116 -5.59778e-06     -99.5304 
         -50        4.711 -0.000257681 -5.64034e-06     -99.5298 
         -50      4.80569 -0.000258265 -5.80902e-06     -99.5293 
         -50      4.90135  -0.00025871 -6.13884e-06     -99.5287 
         -50      4.99791 -0.000258929 -6.67459e-06     -99.5281 
         -50      5.09542 -0.000258916 -7.45906e-06     -99.5275 
         -50      5.19387 -0.000258749  -8.5131e-06     -99.5268 
         -50       5.2933 -0.000258566 -9.80846e-06     -99.5262 
         -50      5.39364 -0.000258526 -1.12284e-05     -99.5255 
         -50      5.49491 -0.000258748 -1.25228e-05     -99.5248 
         -50      5.59713 -0.000259219 -1.32454e-05     -99.5241 
         -50      5.70033 -0.000258881 -1.37159e-05     -99.5234 
         -50      5.80443 -0.000257862 -1.54455e-05     -99.5226 
         -50      5.90948 -0.000257866 -1.67812e-05     -99.5218 
         -50      6.01551 -0.000258308  -1.7721e-05     -99.5211 
         -50      6.12244 -0.000258752 -1.82629e-05     -99.5202 
         -50      6.23031 -0.000258919 -1.84328e-05     -99.5194 
         -50      6.33912 -0.000258694  -1.8315e-05     -99.5186 
         -50      6.44892 -0.000258123 -1.80924e-05     -99.5177 
         -50      6.55962 -0.000257423 -1.80973e-05     -99.5168 
         -50      6.67126 -0.000256974 -1.88687e-05     -99.5159 
         -50      6.78384 -0.000257327 -2.09991e-05     -99.5149 
         -50      6.89741 -0.000258363 -1.98678e-05      -99.514 
         -50      7.01187 -0.000259053 -1.95299e-05      -99.513 
         -50      7.12728 -0.000259385 -1.98136e-05      -99.512 
         -50      7.24363 -0.000259366 -2.04861e-05     -99.5109 
         -50      7.36097 -0.000259032 -2.12929e-05     -99.5099 
         -50       7.4792 -0.000258463 -2.19952e-05     -99.5088 
         -50      7.59838 -0.000257779 -2.24102e-05     -99.5077 
         -50      7.71854 -0.000257155  -2.2446e-05     -99.5065 
         -50       7.8396 -0.000256812 -2.21362e-05     -99.5054 
         -50      7.96161 -0.000257016 -2.16709e-05     -99.5042 
         -50      8.08455 -0.000258068 -2.14231e-05      -99.503 
         -50      8.20849 -0.000260289 -2.19712e-05     -99.5017 
         -50      8.33332 -0.000260605 -2.25505e-05     -99.5005 
         -50      8.45909 -0.000257999 -2.23414e-05     -99.4992 
         -50       8.5858 -0.000256603 -2.27426e-05     -99.4979 
         -50      8.71351 -0.000255963 -2.33712e-05     -99.4965 
         -50       8.8421 -0.000255753 -2.39734e-05     -99.4951 
         -50      8.97164 -0.000255753 -2.44066e-05     -99.4937 
         -50      9.10212 -0.000255829 -2.46181e-05     -99.4923 
         -50       9.2336 -0.000255909 -2.46258e-05     -99.4908 
         -50      9.36596 -0.000255964 -2.44984e-05     -99.4893 
         -50      9.49927 -0.000255989 -2.43363e-05     -99.4878 
         -50      9.63352 -0.000255984 -2.42532e-05     -99.4863 
         -50      9.76877 -0.000255942 -2.43596e-05     -99.4847 
         -50       9.9049 -0.000255832  -2.4747e-05     -99.4831 
         -50       10.042 -0.000255593 -2.54751e-05     -99.4814 
         -50      10.1801 -0.000255123 -2.65616e-05     -99.4798 
         -50       10.319 -0.000254287 -2.79724e-05      -99.478 
         -50      10.4589 -0.000253966 -2.81857e-05     -99.4763 
         -50      10.5998 -0.000253786 -2.86453e-05     -99.4745 
         -50      10.7416 -0.000253559 -2.95743e-05     -99.4727 
         -50      10.8843 -0.000253461 -3.05539e-05     -99.4709 
         -50       11.028  -0.00025368 -3.12779e-05      -99.469 
         -50      11.1726 -0.000254411 -3.17041e-05     -99.4671 
         -50      11.3182 -0.000255847 -3.22449e-05     -99.4652 
         -50      11.4647 -0.000253562  -3.1978e-05     -99.4632 
         -50      11.6122 -0.000251979 -3.22083e-05     -99.4612 
         -50      11.7605 -0.000251244 -3.26698e-05     -99.4592 
         -50      11.9099 -0.000251041 -3.30632e-05     -99.4571 
         -50      12.0602 -0.000251145 -3.32463e-05      -99.455 
         -50      12.2114 -0.000251377 -3.32195e-05     -99.4528 
         -50      12.3636 -0.000251548 -3.31077e-05     -99.4506 
         -50      12.5167 -0.000250929 -3.33088e-05     -99.4484 
         -50      12.6707 -0.000250424  -3.3784e-05     -99.4462 
         -50      12.8257 -0.000250068 -3.44192e-05     -99.4439 
         -50      12.9817 -0.000249866 -3.51248e-05     -99.4415 
         -50      13.1386 -0.000249794 -3.58324e-05     -99.4392 
         -50      13.2964 -0.000249805 -3.64948e-05     -99.4368 
         -50      13.4551 -0.000249831 -3.70825e-05     -99.4343 
         -50      13.6149 -0.000249795 -3.75823e-05     -99.4319 
         -50      13.7755 -0.000249615 -3.79938e-05     -99.4293 
         -50      13.9371 -0.000249218 -3.83278e-05     -99.4268 
         -50      14.0996 -0.000248549 -3.86027e-05     -99.4242 
         -50      14.2631 -0.000247587 -3.88416e-05     -99.4216 
         -50      14.4275 -0.000246362 -3.90684e-05     -99.4189 
         -50      14.5928 -0.000244974 -3.93051e-05     -99.4162 
         -50      14.7592 -0.000243612 -3.95673e-05     -99.4135 
         -50      14.9264 -0.000242583 -3.98601e-05     -99.4107 
         -50      15.0946 -0.000242335 -4.01741e-05     -99.4078 
         -50      15.2637 -0.000243488 -4.04809e-05      -99.405 
         -50      15.4338 -0.000246875 -4.07281e-05     -99.4021 
         -50      15.6048  -0.00024688 -4.14177e-05     -99.3991 
         -50      15.7767 -0.000244347  -4.2104e-05     -99.3962 
         -50      15.9496 -0.000242621 -4.25033e-05     -99.3931 
         -50      16.1235 -0.000241597 -4.27144e-05     -99.3901 
         -50      16.2982 -0.000241117 -4.28212e-05      -99.387 
         -50      16.4739 -0.000241001 -4.28928e-05     -99.3838 
         -50      16.6506 -0.000241072  -4.2982e-05     -99.3806 
         -50      16.8282 -0.000241171 -4.31256e-05     -99.3774 
         -50      17.0068 -0.000241176 -4.33441e-05     -99.3742 
         -50      17.1862  -0.00024101 -4.36419e-05     -99.3709 
         -50      17.3667  -0.00024065 -4.40086e-05     -99.3675 
         -50      17.5481 -0.000240124  -4.4419e-05     -99.3641 
         -50      17.7304 -0.000239503 -4.48362e-05     -99.3607 
         -50      17.9136 -0.000238888 -4.52126e-05     -99.3572 
         -50      18.0979 -0.000238385  -4.5493e-05     -99.3537 
         -50       18.283 -0.000238075 -4.56175e-05     -99.3502 
         -50      18.4691 -0.000237968 -4.55261e-05     -99.3466 
         -50      18.6561 -0.000237979 -4.53093e-05      -99.343 
         -50      18.8441 -0.000238233 -4.69011e-05     -99.3393 
         -50       19.033 -0.000238143 -4.78705e-05     -99.3356 
         -50      19.2228 -0.000237536 -4.83285e-05     -99.3318 
         -50      19.4136 -0.000236348 -4.84361e-05      -99.328 
         -50      19.6054 -0.000234708 -4.83867e-05     -99.3242 
         -50       19.798 -0.000233038 -4.83863e-05     -99.3203 
         -50      19.9917 -0.000232176 -4.86317e-05     -99.3164 
         -50      20.1862 -0.000233147 -4.89561e-05     -99.3124 
         -50      20.3818 -0.000233694 -4.93216e-05     -99.3084 
         -50      20.5782  -0.00023366 -4.97893e-05     -99.3044 
         -50      20.7756 -0.000233298 -5.03141e-05     -99.3003 
         -50       20.974 -0.000232773 -5.08604e-05     -99.2962 
         -50      21.1732 -0.000232187 -5.14013e-05     -99.2921 
         -50      21.3734 -0.000231591 -5.19179e-05     -99.2879 
         -50      21.5745 -0.000230999 -5.23977e-05     -99.2836 
         -50      21.7767 -0.000230406 -5.28344e-05     -99.2793 
         -50      21.9797 -0.000229793 -5.32255e-05      -99.275 
         -50      22.1837 -0.000229142 -5.35724e-05     -99.2707 
         -50      22.3886 -0.000228444 -5.38789e-05     -99.2663 
         -50      22.5945 -0.000227701 -5.41502e-05     -99.2618 
         -50      22.8013 -0.000226935 -5.43913e-05     -99.2574 
         -50      23.0091 -0.000226184 -5.46068e-05     -99.2529 
         -50      23.2177 -0.000225503 -5.47993e-05     -99.2483 
         -50      23.4274 -0.000224954 -5.49686e-05     -99.2437 
         -50       23.638 -0.000224606 -5.51105e-05     -99.2391 
         -50      23.8495  -0.00022451 -5.52161e-05     -99.2345 
         -50       24.062 -0.000224692 -5.52708e-05     -99.2298 
         -50      24.2754 -0.000225126 -5.52536e-05      -99.225 
         -50      24.4897  -0.00022571 -5.51362e-05     -99.2203 
         -50       24.705  -0.00022623 -5.48823e-05     -99.2154 
         -50      24.9213 -0.000226327 -5.44469e-05     -99.2106 
         -50      25.1385 -0.000225451 -5.37765e-05     -99.2057 
         -50      25.3566 -0.000221925 -5.33654e-05     -99.2008 
         -50      25.5756 -0.000213917  -5.3823e-05     -99.1959 
         -50      25.7957 -0.000213459 -5.50636e-05     -99.1909 
         -50      26.0166  -0.00021441 -5.55313e-05     -99.1859 
         -50      26.2385 -0.000216132 -5.58172e-05     -99.1808 
         -50      26.4613 -0.000217987  -5.6018e-05     -99.1757 
         -50      26.6851  -0.00021953 -5.61816e-05     -99.1706 
         -50      26.9098 -0.000220486 -5.63211e-05     -99.1655 
         -50      27.1354 -0.000220727  -5.6428e-05     -99.1603 
         -50      27.3621 -0.000220247 -5.64826e-05     -99.1551 
         -50      27.5896 -0.000219135  -5.6464e-05     -99.1498 
         -50      27.8181 -0.000217552 -5.63575e-05     -99.1445 
         -50      28.0475 -0.000215703   -5.616e-05     -99.1392 
         -50      28.2779 -0.000213814 -5.58832e-05     -99.1339 
         -50      28.5092 -0.000212109 -5.55547e-05     -99.1285 
         -50      28.7414 -0.000210778 -5.52149e-05     -99.1232 
         -50      28.9746 -0.000209961 -5.49131e-05     -99.1177 
         -50      29.2088 -0.000209719 -5.46981e-05     -99.1123 
         -50      29.4439 -0.000210012 -5.46074e-05     -99.1068 
         -50      29.6799 -0.000210677 -5.46507e-05     -99.1013 
         -50      29.9168 -0.000211405  -5.4791e-05     -99.0958 
         -50      30.1548 -0.000211725 -5.49202e-05     -99.0902 
         -50      30.3936 -0.000210976 -5.48307e-05     -99.0846 
         -50      30.6334 -0.000208299 -5.41821e-05      -99.079 
         -50      30.8742 -0.000203948 -5.30979e-05     -99.0734 
         -50      31.1158  -0.00020461  -5.3872e-05     -99.0678 
         -50      31.3584 -0.000205685 -5.41563e-05     -99.0621 
         -50       31.602 -0.000206656 -5.41445e-05     -99.0564 
         -50      31.8465 -0.000207217 -5.39756e-05     -99.0507 
         -50      32.0919 -0.000207237 -5.37431e-05     -99.0449 
         -50      32.3383 -0.000206714 -5.35034e-05     -99.0392 
         -50      32.5856 -0.000205736 -5.32844e-05     -99.0334 
         -50       32.834 -0.000204448 -5.30935e-05     -99.0276 
         -50      33.0831  -0.00020302 -5.29247e-05     -99.0218 
         -50      33.3333 -0.000201616  -5.2765e-05      -99.016 
         -50      33.5843 -0.000200378    -5.26e-05     -99.0101 
         -50      33.8364 -0.000199401 -5.24185e-05     -99.0043 
         -50      34.0894 -0.000198731  -5.2217e-05     -98.9984 
         -50      34.3433 -0.000198348 -5.20016e-05     -98.9925 
         -50      34.5981 -0.000198177 -5.17902e-05     -98.9866 
         -50       34.854 -0.000198089 -5.16124e-05     -98.9807 
         -50      35.1107 -0.000197923 -5.15089e-05     -98.9747 
         -50      35.3684 -0.000197506 -5.15286e-05     -98.9688 
         -50      35.6271 -0.000196685  -5.1725e-05     -98.9628 
         -50      35.8867 -0.000195376 -5.21499e-05     -98.9569 
         -50      36.1472  -0.00019361 -5.28463e-05     -98.9509 
         -50      36.4086 -0.000191602  -5.3839e-05     -98.9449 
         -50      36.6711 -0.000189754 -5.46426e-05     -98.9389 
         -50      36.9344 -0.000189638 -5.38104e-05     -98.9329 
         -50      37.1987 -0.000192402 -5.22328e-05     -98.9269 
         -50      37.4639 -0.000194113 -5.35548e-05     -98.9209 
         -50      37.7301 -0.000194029 -5.31564e-05     -98.9149 
         -50      37.9972 -0.000193124  -5.2291e-05     -98.9089 
         -50      38.2652 -0.000191722 -5.20362e-05     -98.9028 
         -50      38.5342  -0.00019024 -5.20538e-05     -98.8968 
         -50      38.8042 -0.000188967 -5.21316e-05     -98.8908 
         -50      39.0751 -0.000188088 -5.21582e-05     -98.8848 
         -50      39.3469 -0.000188061 -5.18626e-05     -98.8788 
         -50      39.6197 -0.000188223 -5.14672e-05     -98.8727 
         -50      39.8934 -0.000188404 -5.10324e-05     -98.8667 
         -50       40.168  -0.00018854 -5.05839e-05     -98.8607 
         -50      40.4436 -0.000188579 -5.01518e-05     -98.8547 
         -50      40.7202 -0.000188486  -4.9765e-05     -98.8487 
         -50      40.9977 -0.000188239 -4.94461e-05     -98.8427 
         -50      41.2761 -0.000187836 -4.92076e-05     -98.8367 
         -50      41.5554 -0.000187285 -4.90501e-05     -98.8307 
         -50      41.8358 -0.000186608 -4.89608e-05     -98.8247 
         -50       42.117 -0.000185837 -4.89143e-05     -98.8188 
         -50      42.3992 -0.000185009 -4.88744e-05     -98.8128 
         -50      42.6823  -0.00018416  -4.8798e-05     -98.8068 
         -50      42.9664 -0.000183319 -4.86404e-05     -98.8009 
         -50      43.2514 -0.000182503 -4.83628e-05      -98.795 
         -50      43.5373 -0.000181704 -4.79419e-05     -98.7891 
         -50      43.8243 -0.000180877 -4.73806e-05     -98.7832 
         -50      44.1121 -0.000179933 -4.67234e-05     -98.7773 
         -50      44.4009 -0.000178724 -4.60709e-05     -98.7715 
         -50      44.6906 -0.000177021 -4.55995e-05     -98.7656 
         -50      44.9813 -0.000175449  -4.5601e-05     -98.7598 
         -50      45.2729 -0.000179257 -4.57407e-05      -98.754 
         -50      45.5654 -0.000180769 -4.55361e-05     -98.7482 
         -50      45.8589 -0.000180843 -4.52063e-05     -98.7424 
         -50      46.1534 -0.000180129 -4.48809e-05     -98.7367 
         -50      46.4488 -0.000179093 -4.46186e-05      -98.731 
         -50      46.7451 -0.000178037  -4.4423e-05     -98.7253 
         -50      47.0423 -0.000177121 -4.42582e-05     -98.7196 
         -50      47.3406  -0.00017638 -4.40622e-05      -98.714 
         -50      47.6397 -0.000175754 -4.37602e-05     -98.7084 
         -50      47.9398 -0.000175186 -4.35645e-05     -98.7028 
         -50      48.2409  -0.00017508  -4.3268e-05     -98.6972 
         -50      48.5428 -0.000175191 -4.28228e-05     -98.6917 
         -50      48.8457 -0.000175303 -4.22196e-05     -98.6862 
         -50      49.1496 -0.000175249 -4.14854e-05     -98.6808 
         -50      49.4545 -0.000174905 -4.06776e-05     -98.6753 
         -50      49.7602 -0.000174205 -3.98752e-05       -98.67 
         -50      50.0668 -0.000173137 -3.91625e-05     -98.6646 
         -50      50.3744 -0.000171744 -3.86109e-05     -98.6593 
         -50      50.6831  -0.00017012 -3.82543e-05      -98.654 
         -50      50.9926 -0.000168411 -3.80598e-05     -98.6488 
         -50       51.303   -0.0001668 -3.78917e-05     -98.6436 
         -50      51.6144 -0.000165502 -3.74704e-05     -98.6384 
         -50      51.9268 -0.000165096 -3.69144e-05     -98.6333 
         -50        52.24 -0.000166143 -3.73551e-05     -98.6282 
         -50      52.5542 -0.000167241 -3.72652e-05     -98.6232 
         -50      52.8694 -0.000168204 -3.68527e-05     -98.6182 
         -50      53.1856 -0.000168797 -3.62769e-05     -98.6132 
         -50      53.5026 -0.000168737 -3.56535e-05     -98.6083 
         -50      53.8205 -0.000167692 -3.50572e-05     -98.6034 
         -50      54.1396 -0.000166335 -3.44302e-05     -98.5986 
         -50      54.4594 -0.000167252 -3.35299e-05     -98.5938 
         -50      54.7802 -0.000167266 -3.27379e-05     -98.5891 
         -50      55.1019 -0.000166756 -3.20856e-05     -98.5845 
         -50      55.4247 -0.000165993 -3.15712e-05     -98.5799 
         -50      55.7483 -0.000165158 -3.11707e-05     -98.5753 
         -50      56.0729  -0.00016436 -3.08453e-05     -98.5708 
         -50      56.3984 -0.000163656 -3.05513e-05     -98.5664 
         -50       56.725 -0.000163065 -3.02459e-05      -98.562 
         -50      57.0523  -0.00016258 -2.98934e-05     -98.5577 
         -50      57.3807 -0.000162181 -2.94692e-05     -98.5534 
         -50      57.7099 -0.000161846 -2.89624e-05     -98.5492 
         -50      58.0403 -0.000161554 -2.83771e-05     -98.5451 
         -50      58.3714 -0.000161292 -2.77326e-05      -98.541 
         -50      58.7035 -0.000161058 -2.70599e-05      -98.537 
         -50      59.0367 -0.000160856 -2.63981e-05      -98.533 
         -50      59.3707 -0.000160694 -2.57893e-05     -98.5291 
         -50      59.7056  -0.00016058 -2.52684e-05     -98.5253 
         -50      60.0414 -0.000160506 -2.48545e-05     -98.5215 
         -50      60.3784 -0.000160435 -2.45368e-05     -98.5178 
         -50      60.7161 -0.000160287 -2.42609e-05     -98.5142 
         -50      61.0548 -0.000159914 -2.39094e-05     -98.5106 
         -50      61.3944 -0.000159071 -2.32826e-05     -98.5071 
         -50      61.7351 -0.000157394 -2.20742e-05     -98.5037 
         -50      62.0767 -0.000155462 -2.06836e-05     -98.5003 
         -50      62.4191 -0.000155718 -2.12781e-05     -98.4971 
         -50      62.7625 -0.000154892 -2.11982e-05     -98.4939 
         -50       63.107 -0.000153816  -2.0676e-05     -98.4907 
         -50      63.4523 -0.000153026 -1.98949e-05     -98.4877 
         -50      63.7985 -0.000152818  -1.8994e-05     -98.4847 
         -50      64.1458 -0.000153295 -1.80739e-05     -98.4818 
         -50      64.4939  -0.00015441 -1.72037e-05     -98.4789 
         -50       64.843 -0.000156012 -1.64233e-05     -98.4762 
         -50      65.1929 -0.000157882 -1.57505e-05     -98.4736 
         -50       65.544 -0.000159771 -1.51846e-05      -98.471 
         -50      65.8959 -0.000161427  -1.4712e-05     -98.4685 
         -50      66.2487 -0.000162624 -1.43086e-05     -98.4661 
         -50      66.6025 -0.000163186 -1.39451e-05     -98.4638 
         -50      66.9573 -0.000162999 -1.35895e-05     -98.4616 
         -50       67.313 -0.000162025 -1.32112e-05     -98.4595 
         -50      67.6695 -0.000160311 -1.27827e-05     -98.4574 
         -50      68.0271 -0.000157984 -1.22827e-05     -98.4555 
         -50      68.3857 -0.000155248 -1.16973e-05     -98.4536 
         -50      68.7451 -0.000152374 -1.10227e-05     -98.4518 
         -50      69.1055 -0.000149675 -1.02645e-05     -98.4502 
         -50      69.4669 -0.000147482 -9.43881e-06     -98.4486 
         -50      69.8291 -0.000146111 -8.57317e-06     -98.4471 
         -50      70.1923 -0.000145817 -7.70392e-06     -98.4457 
         -50      70.5564 -0.000146747  -6.8761e-06     -98.4444 
         -50      70.9217 -0.000148876 -6.14089e-06     -98.4431 
         -50      71.2877 -0.000151941  -5.5541e-06      -98.442 
         -50      71.6546 -0.000155362 -5.17104e-06      -98.441 
         -50      72.0225 -0.000158152 -5.04356e-06     -98.4401 
         -50      72.3915 -0.000158819 -5.21501e-06     -98.4393 
         -50      72.7613 -0.000157938 -5.23234e-06     -98.4386 
         -50       73.132 -0.000164113 -3.53299e-06     -98.4382 
         -50      73.5036 -0.000165356 -2.02945e-06     -98.4379 
         -50      73.8764 -0.000156928 -8.22161e-07     -98.4377 
         -50      74.2499 -0.000132472 -1.57104e-08     -98.4375 
         -50      74.6244  -8.3694e-05  2.89343e-07     -98.4375 
         -50           75           -0  4.96139e-17     -98.4375 
         -25            0 -2.45195e-19 -5.07394e-24     -96.8448 
         -25     0.000471 -2.39885e-05 -5.16819e-10     -96.8448 
         -25     0.001884 -8.50692e-05 -2.07767e-09     -96.8448 
         -25     0.004239 -0.000156344 -4.76882e-09     -96.8448 
         -25     0.007537 -0.000209252 -8.89244e-09     -96.8448 
         -25     0.011776 -0.000228902 -1.51152e-08     -96.8448 
         -25     0.016958 -0.000221714 -2.45649e-08     -96.8448 
         -25     0.023081 -0.000209504 -3.87843e-08     -96.8448 
         -25      0.03015 -0.000212106 -5.96142e-08     -96.8448 
         -25     0.038157 -0.000229619 -8.89779e-08     -96.8448 
         -25     0.047107 -0.000241373  -1.2893e-07     -96.8448 
         -25     0.056999 -0.000232577 -1.81794e-07     -96.8448 
         -25     0.067837 -0.000229194 -2.50475e-07     -96.8448 
         -25     0.079614 -0.000249513 -3.37875e-07     -96.8448 
         -25     0.092332 -0.000239254 -4.46373e-07     -96.8448 
         -25     0.105992 -0.000242584 -5.79256e-07     -96.8448 
         -25       0.1206 -0.000241996 -7.39113e-07     -96.8448 
         -25     0.136145  -0.00024106 -9.28337e-07     -96.8448 
         -25     0.152631 -0.000240694 -1.14919e-06     -96.8448 
         -25     0.170067 -0.000240042 -1.40365e-06     -96.8448 
         -25     0.188438 -0.000238074 -1.69293e-06     -96.8448 
         -25     0.207751 -0.000235136 -2.01806e-06     -96.8448 
         -25     0.228006 -0.000232846 -2.37961e-06     -96.8448 
         -25     0.249212 -0.000229575  -2.7781e-06     -96.8448 
         -25     0.271351 -0.000226412 -3.21273e-06     -96.8448 
         -25     0.294433 -0.000222986  -3.6839e-06     -96.8448 
         -25     0.318456 -0.000219333 -4.19132e-06     -96.8448 
         -25     0.343432 -0.000215618 -4.73584e-06     -96.8448 
         -25     0.369339 -0.000211957 -5.31806e-06     -96.8448 
         -25     0.396189  -0.00020842  -5.9392e-06     -96.8448 
         -25     0.423981 -0.000205049 -6.59929e-06     -96.8448 
         -25     0.452726 -0.000201872 -7.29714e-06     -96.8448 
         -25     0.482403 -0.000198929  -8.0287e-06     -96.8448 
         -25     0.513021 -0.000196268  -8.7887e-06     -96.8448 
         -25     0.544594 -0.000193946 -9.57104e-06     -96.8448 
         -25     0.577096 -0.000191984 -1.03702e-05     -96.8448 
         -25     0.610541 -0.000190278 -1.11889e-05     -96.8448 
         -25     0.644927 -0.000188923  -1.2036e-05     -96.8448 
         -25      0.68027 -0.000187846 -1.28873e-05     -96.8448 
         -25     0.716541 -0.000186991 -1.37473e-05     -96.8448 
         -25     0.753754 -0.000186305 -1.46175e-05     -96.8447 
         -25     0.791909 -0.000185741 -1.54955e-05     -96.8447 
         -25     0.831022 -0.000185256 -1.63767e-05     -96.8447 
         -25     0.871061 -0.000184817 -1.72527e-05     -96.8447 
         -25     0.912043 -0.000184396 -1.81157e-05     -96.8447 
         -25     0.953966 -0.000183974  -1.8957e-05     -96.8447 
         -25     0.996849 -0.000183541 -1.97696e-05     -96.8447 
         -25      1.04066 -0.000183095 -2.05478e-05     -96.8447 
         -25      1.08541 -0.000182641   -2.129e-05     -96.8446 
         -25      1.13112 -0.000182195 -2.19982e-05     -96.8446 
         -25      1.17775 -0.000181782 -2.26771e-05     -96.8446 
         -25      1.22533 -0.000181437 -2.33347e-05     -96.8446 
         -25      1.27384 -0.000181207 -2.39786e-05     -96.8446 