Variables = x, y, u, v, p

Zone, I=6400, F=POINT
         -50            0            0            0     -90.9505 
         -50     0.000471 -2.76771e-05 -1.54803e-09     -90.9505 
         -50     0.001884  -9.7903e-05  -5.7855e-09     -90.9505 
         -50     0.004239 -0.000179044 -1.17326e-08     -90.9505 
         -50     0.007537 -0.000237555 -1.84372e-08     -90.9505 
         -50     0.011776 -0.000256074  -2.5613e-08     -90.9505 
         -50     0.016958 -0.000242471 -3.39776e-08     -90.9505 
         -50     0.023081  -0.00022292 -4.50081e-08     -90.9505 
         -50      0.03015  -0.00022141 -6.02572e-08     -90.9505 
         -50     0.038157 -0.000238666 -8.05936e-08     -90.9505 
         -50     0.047107 -0.000250585  -1.0625e-07     -90.9505 
         -50     0.056999  -0.00023926 -1.37966e-07     -90.9505 
         -50     0.067837 -0.000234173 -1.78673e-07     -90.9505 
         -50     0.079614 -0.000257019  -2.3189e-07     -90.9505 
         -50     0.092332 -0.000245226 -2.97533e-07     -90.9505 
         -50     0.105992 -0.000249252 -3.79011e-07     -90.9505 
         -50       0.1206 -0.000248871 -4.79118e-07     -90.9505 
         -50     0.136145 -0.000248199 -6.00797e-07     -90.9505 
         -50     0.152631 -0.000248276 -7.46761e-07     -90.9505 
         -50     0.170067 -0.000248095 -9.19759e-07     -90.9505 
         -50     0.188438 -0.000246461 -1.12265e-06     -90.9505 
         -50     0.207751 -0.000243786 -1.35904e-06     -90.9505 
         -50     0.228006 -0.000241932 -1.63242e-06     -90.9505 
         -50     0.249212 -0.000238915 -1.94423e-06     -90.9505 
         -50     0.271351 -0.000236054 -2.29149e-06     -90.9504 
         -50     0.294433 -0.000232842 -2.69718e-06     -90.9504 
         -50     0.318456 -0.000229304 -3.16187e-06     -90.9504 
         -50     0.343432 -0.000225622 -3.67523e-06     -90.9504 
         -50     0.369339 -0.000221926 -4.21862e-06     -90.9504 
         -50     0.396189 -0.000218295 -4.77128e-06     -90.9504 
         -50     0.423981 -0.000214773 -5.31541e-06     -90.9504 
         -50     0.452726 -0.000211394 -5.84293e-06     -90.9504 
         -50     0.482403 -0.000208194 -6.35979e-06     -90.9504 
         -50     0.513021 -0.000205224  -6.8891e-06     -90.9503 
         -50     0.544594 -0.000202543 -7.46638e-06     -90.9503 
         -50     0.577096 -0.000200179 -8.12455e-06     -90.9503 
         -50     0.610541 -0.000198034 -8.88049e-06     -90.9503 
         -50     0.644927 -0.000196168 -9.93035e-06     -90.9502 
         -50      0.68027 -0.000194598 -1.09182e-05     -90.9502 
         -50     0.716541  -0.00019327 -1.18378e-05     -90.9502 
         -50     0.753754 -0.000192135 -1.26901e-05     -90.9502 
         -50     0.791909 -0.000191155 -1.34812e-05     -90.9501 
         -50     0.831022 -0.000190295 -1.42216e-05     -90.9501 
         -50     0.871061 -0.000189531 -1.49245e-05       -90.95 
         -50     0.912043 -0.000188848  -1.5605e-05       -90.95 
         -50     0.953966 -0.000188232 -1.62779e-05       -90.95 
         -50     0.996849  -0.00018768 -1.69561e-05     -90.9499 
         -50      1.04066 -0.000187189 -1.76472e-05     -90.9499 
         -50      1.08541  -0.00018676 -1.83542e-05     -90.9498 
         -50      1.13112 -0.000186394 -1.90727e-05     -90.9497 
         -50      1.17775 -0.000186093 -1.97905e-05     -90.9497 
         -50      1.22533 -0.000185857 -2.04898e-05     -90.9496 
         -50      1.27384 -0.000185689 -2.11485e-05     -90.9495 
         -50      1.32333 -0.000185593  -2.1746e-05     -90.9495 
         -50      1.37373 -0.000185583 -2.22701e-05     -90.9494 
         -50      1.42507 -0.000185689 -2.27298e-05     -90.9493 
         -50      1.47736 -0.000185972 -2.31708e-05     -90.9492 
         -50      1.53061 -0.000188893  -2.3798e-05     -90.9491 
         -50      1.58478  -0.00019421 -2.43248e-05      -90.949 
         -50      1.63989 -0.000198788 -2.45817e-05     -90.9489 
         -50      1.69595  -0.00020267 -2.46731e-05     -90.9488 
         -50      1.75297  -0.00020592 -2.46865e-05     -90.9487 
         -50      1.81091 -0.000208617 -2.46919e-05     -90.9486 
         -50      1.86979 -0.000210854 -2.47422e-05     -90.9484 
         -50      1.92964 -0.000212733 -2.48728e-05     -90.9483 
         -50       1.9904 -0.000214361 -2.51029e-05     -90.9482 
         -50      2.05211 -0.000215846 -2.54364e-05      -90.948 
         -50      2.11476 -0.000217292 -2.58635e-05     -90.9479 
         -50      2.17838 -0.000218792 -2.63629e-05     -90.9477 
         -50      2.24291 -0.000220423 -2.69032e-05     -90.9475 
         -50      2.30839 -0.000222246 -2.74465e-05     -90.9473 
         -50       2.3748 -0.000224293 -2.79508e-05     -90.9472 
         -50      2.44219 -0.000226572  -2.8373e-05      -90.947 
         -50      2.51049 -0.000229053 -2.86715e-05     -90.9468 
         -50      2.57974  -0.00023168 -2.88104e-05     -90.9466 
         -50      2.64993  -0.00023436 -2.87613e-05     -90.9464 
         -50      2.72108 -0.000236972  -2.8506e-05     -90.9461 
         -50      2.79315 -0.000239368 -2.80393e-05     -90.9459 
         -50      2.86617 -0.000241385 -2.73692e-05     -90.9457 
         -50      2.94012 -0.000242858 -2.65179e-05     -90.9454 
         -50      3.01505 -0.000243634 -2.55203e-05     -90.9451 
         -50      3.09089 -0.000243601 -2.44231e-05     -90.9449 
         -50      3.16767 -0.000242711  -2.3278e-05     -90.9446 
         -50      3.24542 -0.000241026  -2.2136e-05     -90.9443 
         -50      3.32409 -0.000238756 -2.10395e-05      -90.944 
         -50       3.4037 -0.000236324 -2.00066e-05     -90.9437 
         -50      3.48425 -0.000234427 -1.90167e-05     -90.9433 
         -50      3.56577 -0.000234118 -1.79885e-05      -90.943 
         -50       3.6482 -0.000236907 -1.67558e-05     -90.9427 
         -50      3.73158 -0.000244864 -1.50335e-05     -90.9423 
         -50       3.8159 -0.000248065 -1.48995e-05     -90.9419 
         -50      3.90119 -0.000246395 -1.53874e-05     -90.9415 
         -50       3.9874 -0.000243018 -1.31031e-05     -90.9411 
         -50      4.07454 -0.000239662 -1.14043e-05     -90.9407 
         -50      4.16263 -0.000236778 -1.01932e-05     -90.9403 
         -50      4.25169 -0.000234586 -9.33088e-06     -90.9399 
         -50      4.34166 -0.000233143 -8.71052e-06     -90.9394 
         -50      4.43258  -0.00023237 -8.25515e-06      -90.939 
         -50      4.52447 -0.000232109 -7.91749e-06     -90.9385 
         -50      4.61726 -0.000232154  -7.6775e-06      -90.938 
         -50        4.711 -0.000232299 -7.53752e-06     -90.9375 
         -50      4.80569 -0.000232362  -7.5172e-06      -90.937 
         -50      4.90135 -0.000232221 -7.64592e-06     -90.9364 
         -50      4.99791 -0.000231828 -7.95294e-06     -90.9359 
         -50      5.09542  -0.00023122 -8.45582e-06     -90.9353 
         -50      5.19387 -0.000230513 -9.14575e-06     -90.9347 
         -50       5.2933  -0.00022988 -9.97045e-06     -90.9341 
         -50      5.39364 -0.000229512 -1.08122e-05     -90.9335 
         -50      5.49491 -0.000229553 -1.14655e-05     -90.9328 
         -50      5.59713 -0.000230013 -1.16079e-05     -90.9322 
         -50      5.70033 -0.000230062  -1.1522e-05     -90.9315 
         -50      5.80443 -0.000229239  -1.2384e-05     -90.9308 
         -50      5.90948 -0.000228723 -1.30383e-05     -90.9301 
         -50      6.01551 -0.000228313 -1.35067e-05     -90.9294 
         -50      6.12244 -0.000227915 -1.37877e-05     -90.9286 
         -50      6.23031  -0.00022751 -1.38812e-05     -90.9278 
         -50      6.33912 -0.000227106  -1.3811e-05     -90.9271 
         -50      6.44892 -0.000226693 -1.36492e-05     -90.9263 
         -50      6.55962 -0.000226183 -1.35408e-05     -90.9254 
         -50      6.67126 -0.000225351 -1.37263e-05     -90.9246 
         -50      6.78384 -0.000223932 -1.44561e-05     -90.9237 
         -50      6.89741 -0.000225523 -1.38542e-05     -90.9228 
         -50      7.01187 -0.000226565 -1.40179e-05     -90.9219 
         -50      7.12728 -0.000226942  -1.4602e-05      -90.921 
         -50      7.24363 -0.000226666 -1.53309e-05       -90.92 
         -50      7.36097 -0.000225876  -1.6001e-05      -90.919 
         -50       7.4792  -0.00022482 -1.64811e-05      -90.918 
         -50      7.59838 -0.000223817  -1.6714e-05      -90.917 
         -50      7.71854 -0.000223196 -1.67144e-05      -90.916 
         -50       7.8396 -0.000223218 -1.65662e-05     -90.9149 
         -50      7.96161 -0.000223955 -1.64185e-05     -90.9138 
         -50      8.08455 -0.000225154 -1.64786e-05     -90.9127 
         -50      8.20849 -0.000226054 -1.70042e-05     -90.9115 
         -50      8.33332 -0.000225213 -1.78587e-05     -90.9104 
         -50      8.45909 -0.000224094   -1.838e-05     -90.9092 
         -50       8.5858 -0.000223462 -1.88495e-05     -90.9079 
         -50      8.71351  -0.00022312 -1.92483e-05     -90.9067 
         -50       8.8421 -0.000222927 -1.95773e-05     -90.9054 
         -50      8.97164 -0.000222781 -1.98517e-05     -90.9041 
         -50      9.10212 -0.000222622 -2.00957e-05     -90.9028 
         -50       9.2336 -0.000222416 -2.03374e-05     -90.9014 
         -50      9.36596 -0.000222161 -2.06046e-05     -90.9001 
         -50      9.49927 -0.000221867 -2.09213e-05     -90.8987 
         -50      9.63352 -0.000221562 -2.13054e-05     -90.8972 
         -50      9.76877 -0.000221279 -2.17665e-05     -90.8958 
         -50       9.9049 -0.000221054 -2.23057e-05     -90.8943 
         -50       10.042 -0.000220919 -2.29173e-05     -90.8927 
         -50      10.1801 -0.000220902 -2.35914e-05     -90.8912 
         -50       10.319 -0.000221023 -2.43178e-05     -90.8896 
         -50      10.4589 -0.000221483 -2.43977e-05      -90.888 
         -50      10.5998 -0.000220923 -2.43787e-05     -90.8864 
         -50      10.7416 -0.000219426 -2.44964e-05     -90.8847 
         -50      10.8843 -0.000217576 -2.47261e-05      -90.883 
         -50       11.028 -0.000216266 -2.50865e-05     -90.8813 
         -50      11.1726 -0.000216813 -2.56879e-05     -90.8795 
         -50      11.3182 -0.000221113 -2.67926e-05     -90.8777 
         -50      11.4647 -0.000219152 -2.72299e-05     -90.8759 
         -50      11.6122 -0.000217702 -2.72385e-05      -90.874 
         -50      11.7605 -0.000217339 -2.69311e-05     -90.8721 
         -50      11.9099 -0.000217535 -2.64358e-05     -90.8702 
         -50      12.0602 -0.000217867 -2.60122e-05     -90.8683 
         -50      12.2114 -0.000217989 -2.60449e-05     -90.8663 
         -50      12.3636 -0.000217573 -2.70169e-05     -90.8643 
         -50      12.5167 -0.000216222 -2.76166e-05     -90.8622 
         -50      12.6707 -0.000215341 -2.79906e-05     -90.8601 
         -50      12.8257 -0.000214839 -2.82152e-05      -90.858 
         -50      12.9817 -0.000214619 -2.83566e-05     -90.8559 
         -50      13.1386 -0.000214582 -2.84679e-05     -90.8537 
         -50      13.2964 -0.000214633 -2.85869e-05     -90.8515 
         -50      13.4551  -0.00021468 -2.87352e-05     -90.8492 
         -50      13.6149  -0.00021464 -2.89178e-05     -90.8469 
         -50      13.7755 -0.000214441 -2.91242e-05     -90.8446 
         -50      13.9371 -0.000214032 -2.93312e-05     -90.8422 
         -50      14.0996 -0.000213388 -2.95071e-05     -90.8398 
         -50      14.2631 -0.000212516 -2.96172e-05     -90.8374 
         -50      14.4275 -0.000211467 -2.96318e-05     -90.8349 
         -50      14.5928 -0.000210347 -2.95365e-05     -90.8324 
         -50      14.7592 -0.000209326 -2.93436e-05     -90.8299 
         -50      14.9264 -0.000208654 -2.91075e-05     -90.8273 
         -50      15.0946 -0.000208677 -2.89418e-05     -90.8247 
         -50      15.2637 -0.000209854   -2.904e-05     -90.8221 
         -50      15.4338 -0.000212774 -2.96991e-05     -90.8194 
         -50      15.6048 -0.000212865 -3.02308e-05     -90.8167 
         -50      15.7767 -0.000210662 -3.05177e-05     -90.8139 
         -50      15.9496 -0.000208983 -3.09023e-05     -90.8111 
         -50      16.1235 -0.000207878 -3.12801e-05     -90.8083 
         -50      16.2982 -0.000207298 -3.15893e-05     -90.8054 
         -50      16.4739 -0.000207128 -3.18056e-05     -90.8025 
         -50      16.6506 -0.000207218 -3.19348e-05     -90.7995 
         -50      16.8282 -0.000207406 -3.20049e-05     -90.7966 
         -50      17.0068 -0.000207542 -3.20579e-05     -90.7935 
         -50      17.1862 -0.000207509 -3.21414e-05     -90.7905 
         -50      17.3667 -0.000207232 -3.22982e-05     -90.7874 
         -50      17.5481 -0.000206692  -3.2556e-05     -90.7843 
         -50      17.7304 -0.000205926 -3.29165e-05     -90.7811 
         -50      17.9136 -0.000205023 -3.33429e-05     -90.7779 
         -50      18.0979  -0.00020411 -3.37474e-05     -90.7746 
         -50       18.283 -0.000203336 -3.39768e-05     -90.7714 
         -50      18.4691 -0.000202841 -3.37989e-05      -90.768 
         -50      18.6561 -0.000202819 -3.29567e-05     -90.7647 
         -50      18.8441 -0.000204395 -3.27511e-05     -90.7613 
         -50       19.033 -0.000205299 -3.26009e-05     -90.7579 
         -50      19.2228 -0.000205253 -3.25753e-05     -90.7544 
         -50      19.4136 -0.000204176 -3.26941e-05     -90.7509 
         -50      19.6054 -0.000202286 -3.28995e-05     -90.7473 
         -50       19.798 -0.000200228 -3.30249e-05     -90.7437 
         -50      19.9917 -0.000199209 -3.27595e-05     -90.7401 
         -50      20.1862  -0.00020107 -3.34991e-05     -90.7365 
         -50      20.3818 -0.000202446 -3.47355e-05     -90.7328 
         -50      20.5782 -0.000202895 -3.57201e-05      -90.729 
         -50      20.7756 -0.000202759 -3.64905e-05     -90.7253 
         -50       20.974 -0.000202278 -3.70782e-05     -90.7215 
         -50      21.1732 -0.000201608 -3.75091e-05     -90.7176 
         -50      21.3734 -0.000200843 -3.78066e-05     -90.7137 
         -50      21.5745 -0.000200029 -3.79917e-05     -90.7098 
         -50      21.7767 -0.000199185 -3.80842e-05     -90.7059 
         -50      21.9797 -0.000198316 -3.81032e-05     -90.7019 
         -50      22.1837 -0.000197422 -3.80685e-05     -90.6978 
         -50      22.3886 -0.000196511 -3.80005e-05     -90.6938 
         -50      22.5945 -0.000195606 -3.79203e-05     -90.6897 
         -50      22.8013 -0.000194745 -3.78503e-05     -90.6855 
         -50      23.0091 -0.000193986 -3.78134e-05     -90.6814 
         -50      23.2177 -0.000193402 -3.78326e-05     -90.6772 
         -50      23.4274 -0.000193072   -3.793e-05     -90.6729 
         -50       23.638 -0.000193071 -3.81255e-05     -90.6686 
         -50      23.8495 -0.000193453 -3.84356e-05     -90.6643 
         -50       24.062 -0.000194229 -3.88707e-05       -90.66 
         -50      24.2754 -0.000195338 -3.94326e-05     -90.6556 
         -50      24.4897 -0.000196613 -4.01123e-05     -90.6512 
         -50       24.705 -0.000197745 -4.08855e-05     -90.6468 
         -50      24.9213 -0.000198229 -4.17096e-05     -90.6423 
         -50      25.1385 -0.000197314 -4.25172e-05     -90.6378 
         -50      25.3566 -0.000192148  -4.1848e-05     -90.6332 
         -50      25.5756 -0.000182131 -4.09555e-05     -90.6286 
         -50      25.7957 -0.000181699 -4.02052e-05      -90.624 
         -50      26.0166 -0.000183698 -3.97408e-05     -90.6194 
         -50      26.2385 -0.000185906 -3.96473e-05     -90.6147 
         -50      26.4613  -0.00018798 -3.98406e-05       -90.61 
         -50      26.6851 -0.000189656 -4.02321e-05     -90.6053 
         -50      26.9098 -0.000190755 -4.07345e-05     -90.6005 
         -50      27.1354 -0.000191181 -4.12675e-05     -90.5957 
         -50      27.3621  -0.00019092 -4.17624e-05     -90.5909 
         -50      27.5896 -0.000190028 -4.21647e-05     -90.5861 
         -50      27.8181 -0.000188631 -4.24379e-05     -90.5812 
         -50      28.0475 -0.000186906 -4.25644e-05     -90.5763 
         -50      28.2779 -0.000185065 -4.25455e-05     -90.5713 
         -50      28.5092  -0.00018334 -4.24008e-05     -90.5664 
         -50      28.7414 -0.000181957 -4.21656e-05     -90.5614 
         -50      28.9746 -0.000181103 -4.18866e-05     -90.5564 
         -50      29.2088 -0.000180902 -4.16167e-05     -90.5513 
         -50      29.4439 -0.000181369 -4.14073e-05     -90.5463 
         -50      29.6799 -0.000182372 -4.12987e-05     -90.5412 
         -50      29.9168 -0.000183579 -4.13089e-05     -90.5361 
         -50      30.1548  -0.00018441   -4.142e-05     -90.5309 
         -50      30.3936 -0.000183967  -4.1562e-05     -90.5258 
         -50      30.6334 -0.000180973 -4.15944e-05     -90.5206 
         -50      30.8742 -0.000175672  -4.1303e-05     -90.5154 
         -50      31.1158 -0.000177246 -4.09708e-05     -90.5102 
         -50      31.3584 -0.000178834 -4.07792e-05     -90.5049 
         -50       31.602  -0.00018003 -4.07009e-05     -90.4996 
         -50      31.8465 -0.000180626 -4.07075e-05     -90.4944 
         -50      32.0919 -0.000180566 -4.07715e-05      -90.489 
         -50      32.3383 -0.000179911 -4.08666e-05     -90.4837 
         -50      32.5856 -0.000178797 -4.09693e-05     -90.4784 
         -50       32.834 -0.000177402 -4.10595e-05      -90.473 
         -50      33.0831 -0.000175919 -4.11213e-05     -90.4676 
         -50      33.3333 -0.000174525 -4.11443e-05     -90.4623 
         -50      33.5843 -0.000173365 -4.11232e-05     -90.4568 
         -50      33.8364 -0.000172531 -4.10594e-05     -90.4514 
         -50      34.0894 -0.000172058 -4.09603e-05      -90.446 
         -50      34.3433 -0.000171915 -4.08402e-05     -90.4405 
         -50      34.5981 -0.000172007 -4.07199e-05     -90.4351 
         -50       34.854  -0.00017219 -4.06267e-05     -90.4296 
         -50      35.1107 -0.000172282  -4.0594e-05     -90.4241 
         -50      35.3684 -0.000172095 -4.06604e-05     -90.4186 
         -50      35.6271 -0.000171463 -4.08696e-05     -90.4131 
         -50      35.8867 -0.000170291 -4.12682e-05     -90.4076 
         -50      36.1472 -0.000168609 -4.19056e-05     -90.4021 
         -50      36.4086 -0.000166634 -4.28316e-05     -90.3965 
         -50      36.6711 -0.000164773 -4.37416e-05      -90.391 
         -50      36.9344 -0.000164487 -4.32345e-05     -90.3855 
         -50      37.1987  -0.00016666 -4.17218e-05     -90.3799 
         -50      37.4639 -0.000167431 -4.25142e-05     -90.3744 
         -50      37.7301  -0.00016786 -4.23548e-05     -90.3688 
         -50      37.9972 -0.000167835 -4.19163e-05     -90.3632 
         -50      38.2652 -0.000167112 -4.17787e-05     -90.3577 
         -50      38.5342 -0.000166058 -4.17179e-05     -90.3521 
         -50      38.8042 -0.000164954 -4.16066e-05     -90.3465 
         -50      39.0751 -0.000163998 -4.13939e-05      -90.341 
         -50      39.3469 -0.000163814 -4.10939e-05     -90.3354 
         -50      39.6197 -0.000163819 -4.07657e-05     -90.3298 
         -50      39.8934 -0.000163864 -4.04327e-05     -90.3243 
         -50       40.168 -0.000163909 -4.01203e-05     -90.3187 
         -50      40.4436  -0.00016392 -3.98535e-05     -90.3132 
         -50      40.7202 -0.000163866 -3.96523e-05     -90.3076 
         -50      40.9977 -0.000163724 -3.95291e-05     -90.3021 
         -50      41.2761 -0.000163478 -3.94854e-05     -90.2965 
         -50      41.5554  -0.00016312 -3.95111e-05      -90.291 
         -50      41.8358 -0.000162649 -3.95844e-05     -90.2855 
         -50       42.117 -0.000162071 -3.96729e-05       -90.28 
         -50      42.3992 -0.000161399 -3.97365e-05     -90.2745 
         -50      42.6823 -0.000160649 -3.97315e-05      -90.269 
         -50      42.9664 -0.000159841 -3.96157e-05     -90.2635 
         -50      43.2514 -0.000158995 -3.93568e-05      -90.258 
         -50      43.5373 -0.000158128 -3.89405e-05     -90.2525 
         -50      43.8243 -0.000157252 -3.83817e-05     -90.2471 
         -50      44.1121 -0.000156366 -3.77385e-05     -90.2417 
         -50      44.4009 -0.000155455 -3.71259e-05     -90.2363 
         -50      44.6906 -0.000154484 -3.67335e-05     -90.2309 
         -50      44.9813 -0.000153872  -3.6735e-05     -90.2255 
         -50      45.2729  -0.00015597 -3.62078e-05     -90.2201 
         -50      45.5654 -0.000156675 -3.57843e-05     -90.2148 
         -50      45.8589 -0.000156613 -3.55056e-05     -90.2095 
         -50      46.1534 -0.000156227 -3.53732e-05     -90.2042 
         -50      46.4488 -0.000155793 -3.53582e-05     -90.1989 
         -50      46.7451 -0.000155446 -3.54077e-05     -90.1936 
         -50      47.0423 -0.000155201 -3.54526e-05     -90.1884 
         -50      47.3406 -0.000154974 -3.54137e-05     -90.1832 
         -50      47.6397 -0.000154608 -3.52072e-05      -90.178 
         -50      47.9398 -0.000153072 -3.51043e-05     -90.1729 
         -50      48.2409 -0.000152277 -3.50057e-05     -90.1678 
         -50      48.5428 -0.000152034 -3.48334e-05     -90.1627 
         -50      48.8457 -0.000152135 -3.45468e-05     -90.1576 
         -50      49.1496 -0.000152365 -3.41425e-05     -90.1526 
         -50      49.4545 -0.000152516 -3.36496e-05     -90.1476 
         -50      49.7602   -0.0001524  -3.3122e-05     -90.1426 
         -50      50.0668  -0.00015187 -3.26239e-05     -90.1377 
         -50      50.3744 -0.000150835 -3.22122e-05     -90.1327 
         -50      50.6831 -0.000149295 -3.19132e-05     -90.1279 
         -50      50.9926 -0.000147366 -3.16939e-05      -90.123 
         -50       51.303 -0.000145315 -3.14262e-05     -90.1182 
         -50      51.6144 -0.000143599  -3.0847e-05     -90.1135 
         -50      51.9268 -0.000143112 -3.02356e-05     -90.1088 
         -50        52.24 -0.000144153 -3.11229e-05     -90.1041 
         -50      52.5542 -0.000145452 -3.14996e-05     -90.0994 
         -50      52.8694  -0.00014668 -3.14396e-05     -90.0948 
         -50      53.1856 -0.000147489 -3.09797e-05     -90.0903 
         -50      53.5026 -0.000147504  -3.0126e-05     -90.0858 
         -50      53.8205 -0.000146329 -2.88584e-05     -90.0813 
         -50      54.1396 -0.000144781 -2.75059e-05     -90.0769 
         -50      54.4594 -0.000145969 -2.72268e-05     -90.0725 
         -50      54.7802 -0.000146117 -2.69427e-05     -90.0682 
         -50      55.1019  -0.00014563 -2.66811e-05     -90.0639 
         -50      55.4247 -0.000144813 -2.64474e-05     -90.0597 
         -50      55.7483 -0.000143884 -2.62319e-05     -90.0555 
         -50      56.0729 -0.000142988 -2.60163e-05     -90.0514 
         -50      56.3984 -0.000142212 -2.57792e-05     -90.0473 
         -50       56.725 -0.000141598 -2.55009e-05     -90.0433 
         -50      57.0523 -0.000141153 -2.51675e-05     -90.0393 
         -50      57.3807  -0.00014086 -2.47728e-05     -90.0354 
         -50      57.7099 -0.000140688 -2.43203e-05     -90.0315 
         -50      58.0403 -0.000140599 -2.38228e-05     -90.0277 
         -50      58.3714 -0.000140554 -2.33026e-05      -90.024 
         -50      58.7035 -0.000140519 -2.27876e-05     -90.0203 
         -50      59.0367 -0.000140468 -2.23077e-05     -90.0166 
         -50      59.3707  -0.00014038 -2.18907e-05     -90.0131 
         -50      59.7056 -0.000140244 -2.15532e-05     -90.0096 
         -50      60.0414 -0.000140056 -2.12933e-05     -90.0061 
         -50      60.3784 -0.000139809 -2.10791e-05     -90.0027 
         -50      60.7161  -0.00013949 -2.08371e-05     -89.9994 
         -50      61.0548 -0.000139072 -2.04367e-05     -89.9962 
         -50      61.3944 -0.000138496 -1.96745e-05      -89.993 
         -50      61.7351 -0.000137662 -1.82542e-05     -89.9899 
         -50      62.0767 -0.000136581 -1.67743e-05     -89.9868 
         -50      62.4191 -0.000135462 -1.77959e-05     -89.9838 
         -50      62.7625 -0.000134124 -1.80192e-05     -89.9809 
         -50       63.107 -0.000133058 -1.77117e-05      -89.978 
         -50      63.4523 -0.000132545  -1.7085e-05     -89.9753 
         -50      63.7985 -0.000132697 -1.63003e-05     -89.9726 
         -50      64.1458 -0.000133494 -1.54746e-05       -89.97 
         -50      64.4939 -0.000134816 -1.46882e-05     -89.9674 
         -50       64.843 -0.000136482 -1.39891e-05     -89.9649 
         -50      65.1929 -0.000138274 -1.33991e-05     -89.9625 
         -50       65.544 -0.000139967 -1.29196e-05     -89.9602 
         -50      65.8959 -0.000141347 -1.25366e-05      -89.958 
         -50      66.2487 -0.000142236 -1.22247e-05     -89.9558 
         -50      66.6025 -0.000142504  -1.1952e-05     -89.9537 
         -50      66.9573 -0.000142081 -1.16841e-05     -89.9517 
         -50       67.313 -0.000140967 -1.13876e-05     -89.9497 
         -50      67.6695  -0.00013923 -1.10326e-05     -89.9479 
         -50      68.0271 -0.000137009 -1.05961e-05     -89.9461 
         -50      68.3857 -0.000134501 -1.00631e-05     -89.9444 
         -50      68.7451 -0.000131955  -9.4297e-06     -89.9428 
         -50      69.1055 -0.000129647 -8.70204e-06     -89.9413 
         -50      69.4669 -0.000127859  -7.8976e-06     -89.9399 
         -50      69.8291 -0.000126852 -7.04578e-06     -89.9386 
         -50      70.1923 -0.000126821 -6.18495e-06     -89.9373 
         -50      70.5564 -0.000127857 -5.36198e-06     -89.9361 
         -50      70.9217 -0.000129896 -4.62912e-06      -89.935 
         -50      71.2877 -0.000132653 -4.04183e-06      -89.934 
         -50      71.6546 -0.000135567 -3.65283e-06     -89.9331 
         -50      72.0225 -0.000137717  -3.5083e-06     -89.9322 
         -50      72.3915 -0.000137742 -3.64167e-06     -89.9314 
         -50      72.7613 -0.000136353 -3.62891e-06     -89.9308 
         -50       73.132 -0.000142019 -2.08375e-06     -89.9303 
         -50      73.5036 -0.000143354  -7.7867e-07     -89.9299 
         -50      73.8764 -0.000136226  1.85345e-07     -89.9297 
         -50      74.2499 -0.000115098   7.0313e-07     -89.9295 
         -50      74.6244 -7.27592e-05  6.72907e-07     -89.9295 
         -50           75           -0  4.96139e-17     -89.9296 
         -25            0 -2.37986e-19 -5.07524e-24     -88.4493 
         -25     0.000471  -2.3253e-05 -5.19047e-10     -88.4493 
         -25     0.001884 -8.21131e-05 -2.11093e-09     -88.4493 
         -25     0.004239 -0.000149658 -4.92832e-09     -88.4493 
         -25     0.007537 -0.000197347  -9.3585e-09     -88.4493 
         -25     0.011776 -0.000210428 -1.61221e-08     -88.4493 
         -25     0.016958 -0.000195644 -2.62868e-08     -88.4493 
         -25     0.023081 -0.000175336 -4.11023e-08     -88.4493 
         -25      0.03015 -0.000169993 -6.17463e-08     -88.4493 
         -25     0.038157 -0.000180319 -8.89869e-08     -88.4493 
         -25     0.047107 -0.000185881 -1.23167e-07     -88.4493 
         -25     0.056999 -0.000171535 -1.64379e-07     -88.4493 
         -25     0.067837  -0.00016249 -2.12875e-07     -88.4493 
         -25     0.079614 -0.000177334 -2.68569e-07     -88.4493 
         -25     0.092332 -0.000162901 -3.30028e-07     -88.4493 
         -25     0.105992 -0.000162257 -3.96385e-07     -88.4493 
         -25       0.1206 -0.000158274 -4.66151e-07     -88.4493 
         -25     0.136145 -0.000154538 -5.37569e-07     -88.4493 
         -25     0.152631 -0.000151991 -6.08726e-07     -88.4493 
         -25     0.170067 -0.000149814 -6.77662e-07     -88.4493 
         -25     0.188438 -0.000147003  -7.4246e-07     -88.4493 
         -25     0.207751 -0.000143899 -8.01595e-07     -88.4493 
         -25     0.228006 -0.000142057 -8.53873e-07     -88.4493 
         -25     0.249212 -0.000139734  -8.9827e-07     -88.4493 
         -25     0.271351  -0.00013799 -9.35467e-07     -88.4493 
         -25     0.294433 -0.000136315 -9.64711e-07     -88.4493 
         -25     0.318456 -0.000134649 -9.87159e-07     -88.4493 
         -25     0.343432  -0.00013306 -1.00381e-06     -88.4493 
         -25     0.369339  -0.00013157 -1.01543e-06     -88.4493 
         -25     0.396189 -0.000130165 -1.02267e-06     -88.4493 
         -25     0.423981 -0.000128814 -1.02613e-06     -88.4493 
         -25     0.452726 -0.000127487 -1.02659e-06     -88.4493 
         -25     0.482403  -0.00012618 -1.02518e-06     -88.4493 
         -25     0.513021  -0.00012492  -1.0236e-06     -88.4493 
         -25     0.544594 -0.000123759 -1.02424e-06     -88.4493 
         -25     0.577096 -0.000122731 -1.03023e-06     -88.4493 
         -25     0.610541 -0.000121764  -1.0443e-06     -88.4493 
         -25     0.644927 -0.000120993 -1.04598e-06     -88.4493 
         -25      0.68027  -0.00012038 -1.05165e-06     -88.4493 
         -25     0.716541  -0.00011994 -1.06388e-06     -88.4493 
         -25     0.753754 -0.000119679 -1.08433e-06     -88.4493 
         -25     0.791909 -0.000119598 -1.11366e-06     -88.4492 
         -25     0.831022 -0.000119696  -1.1517e-06     -88.4492 
         -25     0.871061 -0.000119965 -1.19743e-06     -88.4492 
         -25     0.912043 -0.000120397 -1.24928e-06     -88.4492 
         -25     0.953966 -0.000120984 -1.30524e-06     -88.4492 
         -25     0.996849 -0.000121723 -1.36321e-06     -88.4492 
         -25      1.04066 -0.000122613 -1.42113e-06     -88.4492 
         -25      1.08541 -0.000123661 -1.47738e-06     -88.4492 
         -25      1.13112 -0.000124886   -1.531e-06     -88.4491 
         -25      1.17775 -0.000126315  -1.5818e-06     -88.4491 
         -25      1.22533 -0.000127988 -1.63053e-06     -88.4491 
         -25      1.27384 -0.000129954  -1.6788e-06     -88.4491 