Variables = x, y, u, v, p

Zone, I=6400, F=POINT
         -50            0            0            0      185.701 
         -50     0.000471  4.09476e-05  3.76162e-09      185.701 
         -50     0.001884  0.000144741  1.45037e-08      185.701 
         -50     0.004239  0.000264304  3.08434e-08      185.701 
         -50     0.007537  0.000349682  5.11918e-08      185.701 
         -50     0.011776  0.000374988  7.44638e-08      185.701 
         -50     0.016958  0.000351994  1.00617e-07      185.701 
         -50     0.023081  0.000320004  1.30617e-07      185.701 
         -50      0.03015  0.000315394  1.66018e-07      185.701 
         -50     0.038157  0.000339934  2.08184e-07      185.701 
         -50     0.047107  0.000357605  2.58072e-07      185.701 
         -50     0.056999  0.000339941   3.1648e-07      185.701 
         -50     0.067837  0.000328431  3.84599e-07      185.701 
         -50     0.079614  0.000360196  4.61787e-07      185.701 
         -50     0.092332  0.000341764  5.48336e-07      185.701 
         -50     0.105992  0.000345532  6.47232e-07      185.701 
         -50       0.1206  0.000345045  7.59121e-07      185.701 
         -50     0.136145  0.000344889  8.85189e-07      185.701 
         -50     0.152631  0.000346311  1.02568e-06      185.701 
         -50     0.170067  0.000348287  1.18075e-06      185.701 
         -50     0.188438  0.000349503  1.35121e-06      185.701 
         -50     0.207751  0.000350291  1.53891e-06      185.701 
         -50     0.228006  0.000352545  1.74381e-06      185.701 
         -50     0.249212  0.000354234  1.95607e-06      185.701 
         -50     0.271351   0.00035649  2.18993e-06      185.701 
         -50     0.294433  0.000358801   2.4224e-06      185.701 
         -50     0.318456  0.000361114  2.62431e-06      185.701 
         -50     0.343432  0.000363523  2.78283e-06      185.701 
         -50     0.369339   0.00036605  2.89975e-06      185.701 
         -50     0.396189  0.000368669  2.98909e-06      185.701 
         -50     0.423981  0.000371322   3.0722e-06        185.7 
         -50     0.452726  0.000373943  3.17197e-06        185.7 
         -50     0.482403  0.000376487  3.30641e-06        185.7 
         -50     0.513021  0.000378941  3.48385e-06        185.7 
         -50     0.544594  0.000381315  3.70137e-06        185.7 
         -50     0.577096  0.000383583  3.94936e-06        185.7 
         -50     0.610541  0.000385585  4.20025e-06        185.7 
         -50     0.644927  0.000387488  3.97429e-06        185.7 
         -50      0.68027  0.000389161  3.86895e-06        185.7 
         -50     0.716541  0.000390558  3.86104e-06        185.7 
         -50     0.753754   0.00039165  3.92898e-06        185.7 
         -50     0.791909  0.000392415  4.05316e-06        185.7 
         -50     0.831022  0.000392847  4.21618e-06        185.7 
         -50     0.871061  0.000392952  4.40257e-06        185.7 
         -50     0.912043  0.000392745  4.59912e-06        185.7 
         -50     0.953966  0.000392254  4.79448e-06        185.7 
         -50     0.996849  0.000391514  4.97918e-06      185.699 
         -50      1.04066  0.000390566  5.14511e-06      185.699 
         -50      1.08541  0.000389455  5.28605e-06      185.699 
         -50      1.13112  0.000388221  5.39756e-06      185.699 
         -50      1.17775  0.000386903  5.47746e-06      185.699 
         -50      1.22533  0.000385529  5.52727e-06      185.699 
         -50      1.27384  0.000384111   5.5538e-06      185.699 
         -50      1.32333  0.000382647  5.57207e-06      185.699 
         -50      1.37373  0.000381111  5.60945e-06      185.698 
         -50      1.42507  0.000379454  5.71137e-06      185.698 
         -50      1.47736  0.000377602  5.94916e-06      185.698 
         -50      1.53061    0.0003746  6.26478e-06      185.698 
         -50      1.58478  0.000369171  6.35703e-06      185.698 
         -50      1.63989  0.000362554  6.34531e-06      185.697 
         -50      1.69595  0.000355383  6.27859e-06      185.697 
         -50      1.75297  0.000348181  6.19789e-06      185.697 
         -50      1.81091  0.000341364  6.13602e-06      185.697 
         -50      1.86979  0.000335236  6.11729e-06      185.696 
         -50      1.92964   0.00032999  6.15762e-06      185.696 
         -50       1.9904  0.000325729  6.26469e-06      185.696 
         -50      2.05211   0.00032246   6.4384e-06      185.696 
         -50      2.11476  0.000320111   6.6714e-06      185.695 
         -50      2.17838  0.000318546  6.95003e-06      185.695 
         -50      2.24291  0.000317585   7.2548e-06      185.695 
         -50      2.30839  0.000317009   7.5622e-06      185.694 
         -50       2.3748  0.000316594  7.84554e-06      185.694 
         -50      2.44219  0.000316119  8.07656e-06      185.693 
         -50      2.51049   0.00031539  8.22663e-06      185.693 
         -50      2.57974   0.00031426  8.26887e-06      185.693 
         -50      2.64993  0.000312641   8.1794e-06      185.692 
         -50      2.72108  0.000310516  7.93886e-06      185.692 
         -50      2.79315  0.000307955  7.53435e-06      185.691 
         -50      2.86617  0.000305106  6.96019e-06      185.691 
         -50      2.94012  0.000302195  6.21928e-06       185.69 
         -50      3.01505  0.000299507  5.32334e-06       185.69 
         -50      3.09089  0.000297359  4.29465e-06      185.689 
         -50      3.16767  0.000296051  3.16354e-06      185.689 
         -50      3.24542  0.000295805  1.96814e-06      185.688 
         -50      3.32409   0.00029668  7.54044e-07      185.687 
         -50       3.4037  0.000298463 -4.31733e-07      185.687 
         -50      3.48425  0.000300529 -1.54312e-06      185.686 
         -50      3.56577  0.000301672 -2.54173e-06      185.685 
         -50       3.6482  0.000299888 -3.40289e-06      185.685 
         -50      3.73158  0.000292129 -4.12763e-06      185.684 
         -50       3.8159  0.000288207 -3.79164e-06      185.683 
         -50      3.90119  0.000289714 -3.15641e-06      185.682 
         -50       3.9874  0.000293717 -3.99964e-06      185.682 
         -50      4.07454  0.000297657 -4.60252e-06      185.681 
         -50      4.16263  0.000301075 -4.97094e-06       185.68 
         -50      4.25169  0.000303764 -5.15694e-06      185.679 
         -50      4.34166  0.000305686 -5.21641e-06      185.678 
         -50      4.43258  0.000306929 -5.20088e-06      185.677 
         -50      4.52447   0.00030766 -5.14975e-06      185.676 
         -50      4.61726  0.000308076 -5.08481e-06      185.675 
         -50        4.711  0.000308368 -5.00679e-06      185.674 
         -50      4.80569   0.00030869 -4.89493e-06      185.673 
         -50      4.90135   0.00030913    -4.71e-06      185.672 
         -50      4.99791    0.0003097 -4.40197e-06      185.671 
         -50      5.09542  0.000310337 -3.92206e-06       185.67 
         -50      5.19387  0.000310924 -3.24153e-06      185.668 
         -50       5.2933  0.000311327  -2.3766e-06      185.667 
         -50      5.39364  0.000311463 -1.42342e-06      185.666 
         -50      5.49491  0.000311392 -5.98518e-07      185.664 
         -50      5.59713  0.000311445 -2.93155e-07      185.663 
         -50      5.70033  0.000312813 -5.39943e-07      185.662 
         -50      5.80443  0.000314382 -3.12154e-07       185.66 
         -50      5.90948  0.000314747 -2.77104e-07      185.659 
         -50      6.01551  0.000314522 -2.94208e-07      185.657 
         -50      6.12244  0.000314158 -2.49104e-07      185.656 
         -50      6.23031  0.000313953 -5.26243e-08      185.654 
         -50      6.33912   0.00031406  3.44696e-07      185.653 
         -50      6.44892  0.000314497  9.19591e-07      185.651 
         -50      6.55962  0.000315154  1.51984e-06      185.649 
         -50      6.67126  0.000315814  1.78509e-06      185.648 
         -50      6.78384  0.000316104  1.23928e-06      185.646 
         -50      6.89741  0.000315104  3.44816e-06      185.644 
         -50      7.01187  0.000314499  4.53917e-06      185.642 
         -50      7.12728  0.000314317  5.01521e-06       185.64 
         -50      7.24363  0.000314547  5.26914e-06      185.638 
         -50      7.36097   0.00031513   5.5776e-06      185.636 
         -50       7.4792  0.000315956  6.09915e-06      185.634 
         -50      7.59838   0.00031687  6.88062e-06      185.632 
         -50      7.71854  0.000317679  7.87115e-06       185.63 
         -50       7.8396  0.000318171  8.94424e-06      185.628 
         -50      7.96161  0.000318149  9.93452e-06      185.625 
         -50      8.08455  0.000317471  1.06828e-05      185.623 
         -50      8.20849  0.000316103  1.10971e-05      185.621 
         -50      8.33332  0.000315939  1.20264e-05      185.618 
         -50      8.45909  0.000317202  1.34722e-05      185.616 
         -50       8.5858  0.000317684  1.44331e-05      185.614 
         -50      8.71351  0.000317749  1.51425e-05      185.611 
         -50       8.8421  0.000317649  1.57743e-05      185.608 
         -50      8.97164  0.000317543  1.64513e-05      185.606 
         -50      9.10212  0.000317515  1.72501e-05      185.603 
         -50       9.2336  0.000317591  1.82071e-05        185.6 
         -50      9.36596  0.000317759  1.93224e-05      185.597 
         -50      9.49927  0.000317979  2.05659e-05      185.595 
         -50      9.63352  0.000318202  2.18789e-05      185.592 
         -50      9.76877  0.000318382  2.31767e-05      185.589 
         -50       9.9049  0.000318483  2.43468e-05      185.586 
         -50       10.042   0.00031849  2.52503e-05      185.582 
         -50      10.1801  0.000318409  2.57161e-05      185.579 
         -50       10.319  0.000318271  2.55351e-05      185.576 
         -50      10.4589  0.000318664  2.56587e-05      185.573 
         -50      10.5998  0.000319142  2.60732e-05      185.569 
         -50      10.7416  0.000319482  2.66432e-05      185.566 
         -50      10.8843  0.000319581  2.74307e-05      185.562 
         -50       11.028  0.000319233  2.82254e-05      185.559 
         -50      11.1726  0.000318111  2.83452e-05      185.555 
         -50      11.3182   0.00031573   2.6387e-05      185.552 
         -50      11.4647  0.000316941  2.82673e-05      185.548 
         -50      11.6122  0.000317379   3.0173e-05      185.544 
         -50      11.7605  0.000316921  3.14291e-05       185.54 
         -50      11.9099  0.000316067  3.20699e-05      185.536 
         -50      12.0602  0.000315319  3.21204e-05      185.532 
         -50      12.2114  0.000315177  3.16224e-05      185.528 
         -50      12.3636  0.000316158   3.0707e-05      185.524 
         -50      12.5167   0.00031718  3.15633e-05       185.52 
         -50      12.6707  0.000317509  3.23953e-05      185.516 
         -50      12.8257  0.000317301  3.31899e-05      185.511 
         -50      12.9817  0.000316711  3.39508e-05      185.507 
         -50      13.1386  0.000315887  3.46911e-05      185.502 
         -50      13.2964   0.00031497  3.54293e-05      185.498 
         -50      13.4551  0.000314086  3.61834e-05      185.493 
         -50      13.6149  0.000313349  3.69669e-05      185.489 
         -50      13.7755  0.000312847  3.77851e-05      185.484 
         -50      13.9371  0.000312643  3.86346e-05      185.479 
         -50      14.0996  0.000312759  3.95019e-05      185.474 
         -50      14.2631  0.000313176  4.03648e-05      185.469 
         -50      14.4275  0.000313816  4.11936e-05      185.464 
         -50      14.5928  0.000314531  4.19586e-05      185.459 
         -50      14.7592  0.000315094  4.26348e-05      185.454 
         -50      14.9264  0.000315177  4.32111e-05      185.449 
         -50      15.0946  0.000314337  4.37033e-05      185.443 
         -50      15.2637  0.000311997  4.41676e-05      185.438 
         -50      15.4338  0.000307417  4.47191e-05      185.432 
         -50      15.6048  0.000307271  4.56573e-05      185.427 
         -50      15.7767  0.000309659  4.65313e-05      185.421 
         -50      15.9496  0.000310763  4.72588e-05      185.415 
         -50      16.1235  0.000310903  4.79208e-05       185.41 
         -50      16.2982  0.000310389  4.85663e-05      185.404 
         -50      16.4739  0.000309507  4.92182e-05      185.398 
         -50      16.6506  0.000308503  4.98768e-05      185.392 
         -50      16.8282  0.000307571  5.05261e-05      185.386 
         -50      17.0068  0.000306844  5.11388e-05       185.38 
         -50      17.1862  0.000306391  5.16845e-05      185.373 
         -50      17.3667  0.000306214  5.21358e-05      185.367 
         -50      17.5481  0.000306251  5.24766e-05      185.361 
         -50      17.7304  0.000306389  5.27108e-05      185.354 
         -50      17.9136  0.000306474  5.28719e-05      185.347 
         -50      18.0979  0.000306335   5.3033e-05      185.341 
         -50       18.283  0.000305808  5.33174e-05      185.334 
         -50      18.4691  0.000304777  5.39108e-05      185.327 
         -50      18.6561  0.000303246  5.49346e-05      185.321 
         -50      18.8441  0.000302091  5.43658e-05      185.314 
         -50       19.033  0.000301151  5.41965e-05      185.307 
         -50      19.2228   0.00030059  5.43516e-05      185.299 
         -50      19.4136  0.000300498  5.47444e-05      185.292 
         -50      19.6054  0.000300802   5.5292e-05      185.285 
         -50       19.798  0.000301152  5.59348e-05      185.278 
         -50      19.9917  0.000300789  5.66591e-05       185.27 
         -50      20.1862  0.000298395   5.6568e-05      185.263 
         -50      20.3818   0.00029663   5.6385e-05      185.255 
         -50      20.5782  0.000295739   5.6481e-05      185.248 
         -50      20.7756  0.000295353   5.6741e-05       185.24 
         -50       20.974  0.000295212  5.70858e-05      185.232 
         -50      21.1732  0.000295142  5.74641e-05      185.224 
         -50      21.3734  0.000295045  5.78478e-05      185.216 
         -50      21.5745  0.000294871  5.82253e-05      185.208 
         -50      21.7767  0.000294611  5.85963e-05        185.2 
         -50      21.9797   0.00029428  5.89664e-05      185.192 
         -50      22.1837    0.0002939  5.93442e-05      185.184 
         -50      22.3886  0.000293496  5.97361e-05      185.176 
         -50      22.5945  0.000293084  6.01449e-05      185.167 
         -50      22.8013  0.000292665  6.05663e-05      185.159 
         -50      23.0091  0.000292225  6.09893e-05       185.15 
         -50      23.2177  0.000291732  6.13956e-05      185.142 
         -50      23.4274  0.000291141  6.17607e-05      185.133 
         -50       23.638  0.000290401  6.20561e-05      185.124 
         -50      23.8495  0.000289468   6.2254e-05      185.115 
         -50       24.062  0.000288319  6.23316e-05      185.107 
         -50      24.2754  0.000286974  6.22789e-05      185.098 
         -50      24.4897  0.000285521  6.21067e-05      185.089 
         -50       24.705  0.000284149  6.18576e-05       185.08 
         -50      24.9213  0.000283184  6.16181e-05       185.07 
         -50      25.1385  0.000283137  6.15344e-05      185.061 
         -50      25.3566  0.000285312  6.16429e-05      185.052 
         -50      25.5756  0.000292146  6.25397e-05      185.043 
         -50      25.7957  0.000291012    6.191e-05      185.033 
         -50      26.0166   0.00028823  6.31047e-05      185.024 
         -50      26.2385  0.000284846  6.40415e-05      185.014 
         -50      26.4613   0.00028145  6.47088e-05      185.005 
         -50      26.6851  0.000278462  6.51241e-05      184.995 
         -50      26.9098  0.000276145  6.53252e-05      184.985 
         -50      27.1354  0.000274622  6.53631e-05      184.975 
         -50      27.3621  0.000273896  6.52945e-05      184.966 
         -50      27.5896  0.000273877  6.51759e-05      184.956 
         -50      27.8181  0.000274395  6.50581e-05      184.946 
         -50      28.0475  0.000275228  6.49817e-05      184.936 
         -50      28.2779  0.000276129  6.49743e-05      184.926 
         -50      28.5092  0.000276844   6.5048e-05      184.916 
         -50      28.7414  0.000277147  6.51991e-05      184.905 
         -50      28.9746  0.000276862  6.54086e-05      184.895 
         -50      29.2088  0.000275893  6.56448e-05      184.885 
         -50      29.4439  0.000274261  6.58668e-05      184.874 
         -50      29.6799  0.000272126  6.60309e-05      184.864 
         -50      29.9168  0.000269827  6.60982e-05      184.854 
         -50      30.1548  0.000267912  6.60447e-05      184.843 
         -50      30.3936   0.00026718  6.58733e-05      184.833 
         -50      30.6334   0.00026871  6.56286e-05      184.822 
         -50      30.8742  0.000272194  6.54852e-05      184.811 
         -50      31.1158  0.000269658  6.57248e-05      184.801 
         -50      31.3584  0.000267117  6.59291e-05       184.79 
         -50       31.602  0.000264968  6.60481e-05      184.779 
         -50      31.8465  0.000263411  6.60621e-05      184.769 
         -50      32.0919  0.000262488   6.5975e-05      184.758 
         -50      32.3383  0.000262128  6.58077e-05      184.747 
         -50      32.5856  0.000262187  6.55915e-05      184.736 
         -50       32.834  0.000262479  6.53624e-05      184.725 
         -50      33.0831  0.000262809  6.51567e-05      184.714 
         -50      33.3333     0.000263  6.50054e-05      184.703 
         -50      33.5843  0.000262911  6.49315e-05      184.692 
         -50      33.8364  0.000262458  6.49466e-05      184.681 
         -50      34.0894   0.00026162  6.50489e-05       184.67 
         -50      34.3433  0.000260443  6.52222e-05      184.659 
         -50      34.5981  0.000259037   6.5436e-05      184.648 
         -50       34.854  0.000257566  6.56466e-05      184.636 
         -50      35.1107  0.000256228  6.57988e-05      184.625 
         -50      35.3684  0.000255226  6.58305e-05      184.614 
         -50      35.6271  0.000254732   6.5677e-05      184.603 
         -50      35.8867   0.00025484  6.52778e-05      184.592 
         -50      36.1472  0.000255508  6.45843e-05       184.58 
         -50      36.4086  0.000256487    6.357e-05      184.569 
         -50      36.6711  0.000257277  6.23745e-05      184.558 
         -50      36.9344   0.00025601  6.21516e-05      184.546 
         -50      37.1987  0.000251391  6.37803e-05      184.535 
         -50      37.4639  0.000249029  6.30799e-05      184.524 
         -50      37.7301  0.000248634  6.32268e-05      184.512 
         -50      37.9972  0.000248312  6.35816e-05      184.501 
         -50      38.2652  0.000248193  6.35974e-05       184.49 
         -50      38.5342   0.00024811  6.34859e-05      184.478 
         -50      38.8042  0.000247923  6.33708e-05      184.467 
         -50      39.0751  0.000247525  6.33083e-05      184.456 
         -50      39.3469  0.000246591  6.32701e-05      184.444 
         -50      39.6197  0.000245537  6.32189e-05      184.433 
         -50      39.8934  0.000244461  6.31489e-05      184.422 
         -50       40.168  0.000243386  6.30445e-05       184.41 
         -50      40.4436  0.000242328  6.28868e-05      184.399 
         -50      40.7202  0.000241299  6.26591e-05      184.388 
         -50      40.9977  0.000240313  6.23514e-05      184.376 
         -50      41.2761  0.000239379  6.19623e-05      184.365 
         -50      41.5554   0.00023851  6.15014e-05      184.354 
         -50      41.8358   0.00023772  6.09888e-05      184.342 
         -50       42.117  0.000237026   6.0455e-05      184.331 
         -50      42.3992  0.000236445  5.99371e-05       184.32 
         -50      42.6823  0.000235995  5.94744e-05      184.309 
         -50      42.9664   0.00023569  5.91028e-05      184.297 
         -50      43.2514  0.000235538  5.88463e-05      184.286 
         -50      43.5373  0.000235539  5.87067e-05      184.275 
         -50      43.8243  0.000235677  5.86512e-05      184.264 
         -50      44.1121  0.000235915  5.85985e-05      184.253 
         -50      44.4009  0.000236189  5.84011e-05      184.242 
         -50      44.6906  0.000236398  5.78261e-05      184.231 
         -50      44.9813  0.000235778  5.67245e-05       184.22 
         -50      45.2729  0.000231492  5.67038e-05      184.209 
         -50      45.5654  0.000229185  5.66198e-05      184.198 
         -50      45.8589  0.000228152  5.64364e-05      184.187 
         -50      46.1534  0.000227823  5.61421e-05      184.176 
         -50      46.4488  0.000227759  5.57457e-05      184.166 
         -50      46.7451  0.000227654  5.52708e-05      184.155 
         -50      47.0423  0.000227327  5.47517e-05      184.144 
         -50      47.3406  0.000226716  5.42295e-05      184.134 
         -50      47.6397  0.000225866  5.37493e-05      184.123 
         -50      47.9398  0.000225313  5.33091e-05      184.112 
         -50      48.2409  0.000224391  5.28133e-05      184.102 
         -50      48.5428  0.000223303  5.23414e-05      184.092 
         -50      48.8457  0.000222229  5.19402e-05      184.081 
         -50      49.1496  0.000221328  5.16177e-05      184.071 
         -50      49.4545  0.000220729  5.13438e-05      184.061 
         -50      49.7602  0.000220526  5.10579e-05       184.05 
         -50      50.0668  0.000220757  5.06841e-05       184.04 
         -50      50.3744  0.000221381  5.01558e-05       184.03 
         -50      50.6831  0.000222251  4.94473e-05       184.02 
         -50      50.9926  0.000223079  4.86176e-05      184.011 
         -50       51.303  0.000223385  4.78603e-05      184.001 
         -50      51.6144  0.000222456  4.75671e-05      183.991 
         -50      51.9268  0.000221045  4.75124e-05      183.981 
         -50        52.24   0.00022216  4.57436e-05      183.972 
         -50      52.5542  0.000221067  4.46065e-05      183.962 
         -50      52.8694  0.000218814    4.398e-05      183.953 
         -50      53.1856  0.000216306  4.37641e-05      183.943 
         -50      53.5026   0.00021433  4.38767e-05      183.934 
         -50      53.8205  0.000213571  4.42495e-05      183.925 
         -50      54.1396  0.000213867  4.44873e-05      183.916 
         -50      54.4594   0.00021274  4.36726e-05      183.907 
         -50      54.7802   0.00021216  4.28937e-05      183.898 
         -50      55.1019  0.000211991  4.21067e-05      183.889 
         -50      55.4247  0.000212097  4.12967e-05       183.88 
         -50      55.7483  0.000212351  4.04699e-05      183.872 
         -50      56.0729   0.00021264  3.96441e-05      183.863 
         -50      56.3984  0.000212872  3.88427e-05      183.855 
         -50       56.725  0.000212979  3.80887e-05      183.847 
         -50      57.0523  0.000212918  3.74006e-05      183.839 
         -50      57.3807  0.000212675  3.67872e-05      183.831 
         -50      57.7099   0.00021226   3.6247e-05      183.823 
         -50      58.0403  0.000211705  3.57663e-05      183.815 
         -50      58.3714  0.000211062  3.53208e-05      183.807 
         -50      58.7035  0.000210393  3.48766e-05        183.8 
         -50      59.0367  0.000209762  3.43947e-05      183.792 
         -50      59.3707  0.000209224  3.38369e-05      183.785 
         -50      59.7056  0.000208811  3.31722e-05      183.778 
         -50      60.0414  0.000208517  3.23871e-05       183.77 
         -50      60.3784  0.000208278  3.14959e-05      183.763 
         -50      60.7161  0.000207948  3.05561e-05      183.757 
         -50      61.0548  0.000207283  2.96821e-05       183.75 
         -50      61.3944  0.000205902  2.90645e-05      183.743 
         -50      61.7351  0.000203265  2.89904e-05      183.737 
         -50      62.0767  0.000202982     2.91e-05       183.73 
         -50      62.4191  0.000212324  2.73709e-05      183.724 
         -50      62.7625  0.000215355  2.62288e-05      183.718 
         -50       63.107  0.000214554  2.54715e-05      183.712 
         -50      63.4523  0.000211783  2.49397e-05      183.706 
         -50      63.7985   0.00020837  2.45108e-05      183.701 
         -50      64.1458  0.000205189  2.40952e-05      183.695 
         -50      64.4939  0.000202754  2.36326e-05       183.69 
         -50       64.843  0.000201278  2.30864e-05      183.685 
         -50      65.1929  0.000200754  2.24405e-05       183.68 
         -50       65.544  0.000201017  2.16947e-05      183.675 
         -50      65.8959  0.000201802  2.08619e-05       183.67 
         -50      66.2487  0.000202799  1.99631e-05      183.666 
         -50      66.6025  0.000203696   1.9025e-05      183.661 
         -50      66.9573   0.00020422  1.80759e-05      183.657 
         -50       67.313  0.000204167  1.71447e-05      183.653 
         -50      67.6695  0.000203424  1.62556e-05      183.649 
         -50      68.0271  0.000201986  1.54275e-05      183.645 
         -50      68.3857  0.000199956  1.46707e-05      183.642 
         -50      68.7451  0.000197544  1.39871e-05      183.638 
         -50      69.1055  0.000195049  1.33663e-05      183.635 
         -50      69.4669  0.000192835  1.27856e-05      183.632 
         -50      69.8291  0.000191293  1.22104e-05      183.629 
         -50      70.1923  0.000190788  1.15916e-05      183.627 
         -50      70.5564    0.0001916  1.08678e-05      183.624 
         -50      70.9217   0.00019385  9.96438e-06      183.622 
         -50      71.2877  0.000197403  8.79624e-06       183.62 
         -50      71.6546  0.000201773  7.26754e-06      183.618 
         -50      72.0225  0.000205998  5.27485e-06      183.616 
         -50      72.3915  0.000208507  2.70845e-06      183.615 
         -50      72.7613  0.000209083  3.28049e-07      183.614 
         -50       73.132  0.000214285  1.06604e-06      183.613 
         -50      73.5036  0.000213672  1.63799e-06      183.613 
         -50      73.8764  0.000201308  1.93406e-06      183.613 
         -50      74.2499  0.000169144  1.83767e-06      183.613 
         -50      74.6244  0.000106586  1.23115e-06      183.613 
         -50           75           -0  4.96139e-17      183.613 
         -25            0  3.55109e-19  8.73664e-24      180.634 
         -25     0.000471  3.47027e-05  8.68657e-10      180.634 
         -25     0.001884  0.000122611  3.23312e-09      180.634 
         -25     0.004239  0.000223695   6.4322e-09      180.634 
         -25     0.007537  0.000295484  9.54799e-09      180.634 
         -25     0.011776  0.000315992  1.15904e-08      180.634 
         -25     0.016958  0.000295279  1.16291e-08      180.634 
         -25     0.023081  0.000266826  8.79147e-09      180.634 
         -25      0.03015   0.00026163  2.14223e-09      180.634 
         -25     0.038157  0.000281246 -9.45305e-09      180.634 
         -25     0.047107  0.000295079 -2.73985e-08      180.634 
         -25     0.056999  0.000278955 -5.31996e-08      180.634 
         -25     0.067837  0.000268205 -8.83106e-08      180.634 
         -25     0.079614  0.000294438 -1.34685e-07      180.634 
         -25     0.092332  0.000278149 -1.93958e-07      180.634 
         -25     0.105992  0.000280929 -2.66527e-07      180.634 
         -25       0.1206  0.000280266  -3.5415e-07      180.634 
         -25     0.136145  0.000280037 -4.57518e-07      180.634 
         -25     0.152631  0.000281272 -5.76967e-07      180.634 
         -25     0.170067  0.000283066 -7.12595e-07      180.634 
         -25     0.188438  0.000284256 -8.64188e-07      180.634 
         -25     0.207751  0.000285085 -1.03163e-06      180.634 
         -25     0.228006  0.000287123 -1.21432e-06      180.634 
         -25     0.249212  0.000288606 -1.41019e-06      180.634 
         -25     0.271351  0.000290463 -1.61937e-06      180.634 
         -25     0.294433  0.000292242 -1.84355e-06      180.634 
         -25     0.318456  0.000293875 -2.07868e-06      180.634 
         -25     0.343432  0.000295431 -2.32264e-06      180.634 
         -25     0.369339  0.000296934 -2.57443e-06      180.634 
         -25     0.396189  0.000298378 -2.83429e-06      180.634 
         -25     0.423981   0.00029974 -3.10247e-06      180.634 
         -25     0.452726  0.000300996 -3.37886e-06      180.634 
         -25     0.482403  0.000302139 -3.66221e-06      180.634 
         -25     0.513021  0.000303188 -3.95125e-06      180.634 
         -25     0.544594  0.000304184 -4.24623e-06      180.634 
         -25     0.577096  0.000305146  -4.5526e-06      180.634 
         -25     0.610541     0.000306 -4.88869e-06      180.634 
         -25     0.644927   0.00030685 -5.22238e-06      180.634 
         -25      0.68027  0.000307689 -5.52341e-06      180.634 
         -25     0.716541   0.00030854 -5.80252e-06      180.634 
         -25     0.753754   0.00030942 -6.06736e-06      180.634 
         -25     0.791909  0.000310333 -6.32216e-06      180.634 
         -25     0.831022  0.000311277 -6.56831e-06      180.634 
         -25     0.871061   0.00031224 -6.80453e-06      180.634 
         -25     0.912043  0.000313204 -7.02826e-06      180.634 
         -25     0.953966  0.000314145 -7.23609e-06      180.634 
         -25     0.996849  0.000315034 -7.42494e-06      180.634 
         -25      1.04066  0.000315841 -7.59263e-06      180.634 
         -25      1.08541  0.000316537 -7.73915e-06      180.634 
         -25      1.13112  0.000317091  -7.8668e-06      180.634 
         -25      1.17775  0.000317478 -7.97998e-06      180.634 
         -25      1.22533  0.000317671 -8.08461e-06      180.634 
         -25      1.27384  0.000317649 -8.18596e-06      180.634 