Variables = x, y, u, v, p

Zone, I=6400, F=POINT
         -50            0            0            0      63.7619 
         -50     0.000471 -2.84051e-06  1.46183e-09      63.7619 
         -50     0.001884 -1.01944e-05  5.41965e-09      63.7619 
         -50     0.004239 -1.91299e-05  1.07499e-08      63.7619 
         -50     0.007537 -2.63994e-05  1.60399e-08      63.7619 
         -50     0.011776 -3.00546e-05  2.00424e-08      63.7619 
         -50     0.016958  -3.0408e-05  2.19732e-08      63.7619 
         -50     0.023081 -2.96911e-05  2.14615e-08      63.7619 
         -50      0.03015 -3.04651e-05  1.81979e-08      63.7619 
         -50     0.038157 -3.36245e-05  1.15114e-08      63.7619 
         -50     0.047107  -3.7532e-05  2.28758e-10      63.7619 
         -50     0.056999 -3.96521e-05 -1.69078e-08      63.7619 
         -50     0.067837  -4.0151e-05  -4.0788e-08      63.7619 
         -50     0.079614 -4.19308e-05 -7.35511e-08      63.7619 
         -50     0.092332 -4.21279e-05 -1.17147e-07      63.7619 
         -50     0.105992  -4.2307e-05 -1.71069e-07      63.7619 
         -50       0.1206 -4.23515e-05 -2.37671e-07      63.7619 
         -50     0.136145 -4.21909e-05 -3.18473e-07      63.7619 
         -50     0.152631 -4.17916e-05 -4.15754e-07      63.7619 
         -50     0.170067 -4.11526e-05 -5.32541e-07      63.7619 
         -50     0.188438 -4.02943e-05 -6.72314e-07      63.7619 
         -50     0.207751   -3.924e-05 -8.39179e-07      63.7619 
         -50     0.228006 -3.80093e-05 -1.03764e-06      63.7619 
         -50     0.249212 -3.66397e-05 -1.27303e-06      63.7619 
         -50     0.271351  -3.5172e-05 -1.53971e-06      63.7619 
         -50     0.294433 -3.36346e-05 -1.84497e-06      63.7619 
         -50     0.318456  -3.2064e-05 -2.18313e-06      63.7619 
         -50     0.343432 -3.04941e-05 -2.54023e-06      63.7619 
         -50     0.369339 -2.89581e-05 -2.89702e-06      63.7619 
         -50     0.396189 -2.74829e-05 -3.23449e-06      63.7619 
         -50     0.423981 -2.60911e-05 -3.53842e-06      63.7619 
         -50     0.452726 -2.47986e-05 -3.80462e-06      63.7619 
         -50     0.482403 -2.36164e-05 -4.04161e-06      63.7618 
         -50     0.513021 -2.25471e-05 -4.27031e-06      63.7618 
         -50     0.544594  -2.1587e-05 -4.51589e-06      63.7618 
         -50     0.577096 -2.07275e-05 -4.78872e-06      63.7618 
         -50     0.610541 -1.99534e-05 -5.06938e-06      63.7618 
         -50     0.644927 -1.92614e-05 -5.67347e-06      63.7618 
         -50      0.68027 -1.86332e-05   -6.221e-06      63.7618 
         -50     0.716541 -1.80454e-05 -6.72192e-06      63.7617 
         -50     0.753754 -1.74816e-05 -7.18329e-06      63.7617 
         -50     0.791909 -1.69327e-05  -7.6088e-06      63.7617 
         -50     0.831022 -1.63963e-05 -7.99981e-06      63.7617 
         -50     0.871061 -1.58753e-05 -8.35562e-06      63.7616 
         -50     0.912043 -1.53756e-05 -8.67549e-06      63.7616 
         -50     0.953966 -1.49046e-05 -8.95911e-06      63.7616 
         -50     0.996849 -1.44687e-05 -9.20804e-06      63.7615 
         -50      1.04066 -1.40718e-05 -9.42624e-06      63.7615 
         -50      1.08541  -1.3713e-05 -9.62126e-06      63.7615 
         -50      1.13112 -1.33857e-05 -9.80379e-06      63.7614 
         -50      1.17775 -1.30791e-05 -9.98652e-06      63.7614 
         -50      1.22533 -1.27787e-05 -1.01821e-05      63.7613 
         -50      1.27384 -1.24723e-05 -1.03988e-05      63.7613 
         -50      1.32333  -1.2158e-05 -1.06341e-05      63.7612 
         -50      1.37373 -1.18567e-05 -1.08648e-05      63.7612 
         -50      1.42507 -1.16301e-05 -1.10343e-05      63.7611 
         -50      1.47736 -1.16063e-05 -1.10342e-05       63.761 
         -50      1.53061 -1.32087e-05 -1.10036e-05       63.761 
         -50      1.58478 -1.68029e-05 -1.11483e-05      63.7609 
         -50      1.63989 -2.05311e-05 -1.11913e-05      63.7608 
         -50      1.69595 -2.39942e-05 -1.11498e-05      63.7608 
         -50      1.75297 -2.68897e-05 -1.10413e-05      63.7607 
         -50      1.81091 -2.90077e-05  -1.0883e-05      63.7606 
         -50      1.86979  -3.0233e-05  -1.0692e-05      63.7605 
         -50      1.92964 -3.05352e-05 -1.04846e-05      63.7604 
         -50       1.9904 -2.99613e-05 -1.02766e-05      63.7603 
         -50      2.05211  -2.8626e-05 -1.00825e-05      63.7602 
         -50      2.11476 -2.66983e-05 -9.91588e-06      63.7601 
         -50      2.17838 -2.43862e-05 -9.78866e-06        63.76 
         -50      2.24291 -2.19248e-05 -9.71131e-06      63.7599 
         -50      2.30839 -1.95533e-05 -9.69231e-06      63.7597 
         -50       2.3748  -1.7501e-05 -9.73813e-06      63.7596 
         -50      2.44219 -1.59679e-05 -9.85308e-06      63.7595 
         -50      2.51049   -1.511e-05  -1.0039e-05      63.7593 
         -50      2.57974 -1.50205e-05 -1.02952e-05      63.7592 
         -50      2.64993 -1.57196e-05 -1.06185e-05      63.7591 
         -50      2.72108 -1.71458e-05 -1.10032e-05      63.7589 
         -50      2.79315 -1.91505e-05 -1.14405e-05      63.7587 
         -50      2.86617 -2.15049e-05 -1.19192e-05      63.7586 
         -50      2.94012 -2.39109e-05 -1.24256e-05      63.7584 
         -50      3.01505 -2.60258e-05 -1.29438e-05      63.7582 
         -50      3.09089 -2.74956e-05 -1.34551e-05       63.758 
         -50      3.16767 -2.80133e-05 -1.39394e-05      63.7578 
         -50      3.24542 -2.73862e-05 -1.43755e-05      63.7576 
         -50      3.32409 -2.56312e-05 -1.47405e-05      63.7574 
         -50       3.4037 -2.30925e-05 -1.50117e-05      63.7572 
         -50      3.48425 -2.05901e-05  -1.5167e-05       63.757 
         -50      3.56577 -1.96017e-05 -1.51853e-05      63.7567 
         -50       3.6482 -2.24836e-05 -1.50482e-05      63.7565 
         -50      3.73158 -3.27311e-05  -1.4741e-05      63.7562 
         -50       3.8159 -3.78825e-05  -1.5107e-05       63.756 
         -50      3.90119 -3.74129e-05 -1.58133e-05      63.7557 
         -50       3.9874 -3.57537e-05 -1.64369e-05      63.7554 
         -50      4.07454 -3.37019e-05 -1.67375e-05      63.7551 
         -50      4.16263 -3.17166e-05  -1.6849e-05      63.7548 
         -50      4.25169 -3.00817e-05 -1.68618e-05      63.7545 
         -50      4.34166 -2.89344e-05  -1.6831e-05      63.7542 
         -50      4.43258 -2.82898e-05 -1.67862e-05      63.7539 
         -50      4.52447 -2.80755e-05 -1.67413e-05      63.7536 
         -50      4.61726 -2.81605e-05 -1.67024e-05      63.7532 
         -50        4.711 -2.83866e-05 -1.66751e-05      63.7529 
         -50      4.80569 -2.85968e-05 -1.66697e-05      63.7525 
         -50      4.90135 -2.86627e-05 -1.67031e-05      63.7521 
         -50      4.99791 -2.85074e-05 -1.67983e-05      63.7517 
         -50      5.09542  -2.8124e-05 -1.69796e-05      63.7513 
         -50      5.19387 -2.75875e-05 -1.72629e-05      63.7509 
         -50       5.2933 -2.70595e-05 -1.76406e-05      63.7505 
         -50      5.39364 -2.67831e-05 -1.80595e-05      63.7501 
         -50      5.49491 -2.70648e-05 -1.83916e-05      63.7496 
         -50      5.59713 -2.82453e-05  -1.8396e-05      63.7492 
         -50      5.70033 -2.95826e-05 -1.80767e-05      63.7487 
         -50      5.80443 -2.95362e-05 -1.73962e-05      63.7482 
         -50      5.90948 -2.97889e-05 -1.60841e-05      63.7477 
         -50      6.01551 -3.01319e-05 -1.46947e-05      63.7472 
         -50      6.12244 -3.04496e-05 -1.35026e-05      63.7467 
         -50      6.23031  -3.0692e-05 -1.25802e-05      63.7462 
         -50      6.33912 -3.08432e-05 -1.18834e-05      63.7456 
         -50      6.44892 -3.08896e-05 -1.13368e-05       63.745 
         -50      6.55962 -3.07865e-05 -1.09201e-05      63.7445 
         -50      6.67126 -3.04242e-05 -1.07531e-05      63.7439 
         -50      6.78384  -2.9694e-05 -1.10427e-05      63.7433 
         -50      6.89741 -3.08934e-05 -9.63084e-06      63.7426 
         -50      7.01187 -3.20006e-05 -9.30528e-06       63.742 
         -50      7.12728 -3.27177e-05 -9.53664e-06      63.7414 
         -50      7.24363 -3.29159e-05 -9.88789e-06      63.7407 
         -50      7.36097 -3.26235e-05 -1.00454e-05        63.74 
         -50       7.4792 -3.20019e-05 -9.83901e-06      63.7393 
         -50      7.59838 -3.13076e-05 -9.24777e-06      63.7386 
         -50      7.71854 -3.08389e-05 -8.38838e-06      63.7379 
         -50       7.8396 -3.08663e-05  -7.4856e-06      63.7371 
         -50      7.96161  -3.1542e-05 -6.81636e-06      63.7364 
         -50      8.08455  -3.2789e-05 -6.63135e-06      63.7356 
         -50      8.20849 -3.41666e-05 -7.04557e-06      63.7348 
         -50      8.33332 -3.36435e-05 -7.77226e-06       63.734 
         -50      8.45909 -3.21711e-05 -8.00933e-06      63.7331 
         -50       8.5858 -3.16656e-05 -7.87534e-06      63.7323 
         -50      8.71351  -3.1768e-05 -7.53596e-06      63.7314 
         -50       8.8421 -3.22012e-05 -7.11205e-06      63.7305 
         -50      8.97164  -3.2761e-05 -6.68579e-06      63.7296 
         -50      9.10212 -3.33061e-05 -6.30834e-06      63.7287 
         -50       9.2336 -3.37486e-05  -6.0064e-06      63.7278 
         -50      9.36596 -3.40456e-05 -5.78936e-06      63.7268 
         -50      9.49927 -3.41919e-05 -5.65473e-06      63.7258 
         -50      9.63352 -3.42131e-05 -5.59435e-06      63.7248 
         -50      9.76877 -3.41608e-05 -5.59925e-06      63.7238 
         -50       9.9049 -3.41093e-05  -5.6637e-06      63.7228 
         -50       10.042 -3.41545e-05 -5.78825e-06      63.7217 
         -50      10.1801 -3.44154e-05 -5.98169e-06      63.7206 
         -50       10.319 -3.50375e-05 -6.26094e-06      63.7195 
         -50      10.4589 -3.55737e-05 -6.80183e-06      63.7184 
         -50      10.5998  -3.5018e-05 -6.97077e-06      63.7173 
         -50      10.7416  -3.3745e-05 -6.71696e-06      63.7161 
         -50      10.8843 -3.23264e-05 -6.24091e-06      63.7149 
         -50       11.028 -3.15494e-05 -5.92659e-06      63.7137 
         -50      11.1726 -3.24937e-05 -6.43428e-06      63.7125 
         -50      11.3182 -3.66364e-05   -8.814e-06      63.7112 
         -50      11.4647 -3.40251e-05 -8.50691e-06        63.71 
         -50      11.6122 -3.24944e-05 -8.12079e-06      63.7087 
         -50      11.7605 -3.24426e-05 -7.87139e-06      63.7073 
         -50      11.9099 -3.31973e-05 -7.57395e-06       63.706 
         -50      12.0602 -3.42304e-05 -7.19092e-06      63.7046 
         -50      12.2114 -3.51038e-05  -6.8227e-06      63.7033 
         -50      12.3636 -3.53729e-05 -6.70115e-06      63.7019 
         -50      12.5167 -3.41139e-05 -7.09823e-06      63.7004 
         -50      12.6707 -3.31721e-05 -7.64888e-06       63.699 
         -50      12.8257  -3.2565e-05 -8.22815e-06      63.6975 
         -50      12.9817 -3.22692e-05 -8.75244e-06       63.696 
         -50      13.1386 -3.22288e-05 -9.17274e-06      63.6945 
         -50      13.2964 -3.23627e-05 -9.46983e-06      63.6929 
         -50      13.4551  -3.2574e-05 -9.64729e-06      63.6914 
         -50      13.6149 -3.27602e-05 -9.72569e-06      63.6898 
         -50      13.7755 -3.28228e-05 -9.73639e-06      63.6881 
         -50      13.9371 -3.26793e-05 -9.71583e-06      63.6865 
         -50      14.0996  -3.2275e-05 -9.69966e-06      63.6848 
         -50      14.2631 -3.15958e-05 -9.71727e-06      63.6831 
         -50      14.4275 -3.06825e-05  -9.7866e-06      63.6814 
         -50      14.5928 -2.96445e-05 -9.90938e-06      63.6797 
         -50      14.7592 -2.86753e-05  -1.0067e-05      63.6779 
         -50      14.9264 -2.80708e-05 -1.02163e-05      63.6761 
         -50      15.0946 -2.82432e-05 -1.02872e-05      63.6743 
         -50      15.2637 -2.97415e-05 -1.01801e-05      63.6724 
         -50      15.4338  -3.3272e-05  -9.7641e-06      63.6706 
         -50      15.6048 -3.36661e-05 -1.04818e-05      63.6687 
         -50      15.7767  -3.1509e-05 -1.14232e-05      63.6668 
         -50      15.9496 -2.99989e-05 -1.18173e-05      63.6648 
         -50      16.1235 -2.91888e-05  -1.1866e-05      63.6628 
         -50      16.2982 -2.90142e-05 -1.17292e-05      63.6608 
         -50      16.4739  -2.9329e-05 -1.15277e-05      63.6588 
         -50      16.6506 -2.99429e-05 -1.13473e-05      63.6568 
         -50      16.8282 -3.06523e-05 -1.12422e-05      63.6547 
         -50      17.0068 -3.12682e-05 -1.12394e-05      63.6526 
         -50      17.1862 -3.16412e-05 -1.13417e-05      63.6505 
         -50      17.3667 -3.16794e-05 -1.15324e-05      63.6483 
         -50      17.5481 -3.13616e-05 -1.17787e-05      63.6461 
         -50      17.7304 -3.07444e-05 -1.20359e-05      63.6439 
         -50      17.9136 -2.99606e-05 -1.22512e-05      63.6417 
         -50      18.0979 -2.92108e-05 -1.23675e-05      63.6394 
         -50       18.283 -2.87464e-05 -1.23266e-05      63.6371 
         -50      18.4691 -2.88408e-05 -1.20736e-05      63.6348 
         -50      18.6561 -2.97724e-05  -1.1574e-05      63.6325 
         -50      18.8441  -3.1229e-05 -1.12588e-05      63.6301 
         -50       19.033 -3.20367e-05 -1.10845e-05      63.6277 
         -50      19.2228 -3.20132e-05 -1.10192e-05      63.6253 
         -50      19.4136 -3.11191e-05 -1.10424e-05      63.6228 
         -50      19.6054 -2.95595e-05 -1.11323e-05      63.6204 
         -50       19.798 -2.79092e-05 -1.12502e-05      63.6179 
         -50      19.9917 -2.72532e-05 -1.13241e-05      63.6153 
         -50      20.1862 -2.91895e-05 -1.15209e-05      63.6128 
         -50      20.3818 -3.06115e-05 -1.18649e-05      63.6102 
         -50      20.5782 -3.11606e-05 -1.22412e-05      63.6076 
         -50      20.7756 -3.11688e-05 -1.26282e-05       63.605 
         -50       20.974  -3.0873e-05  -1.3005e-05      63.6023 
         -50      21.1732 -3.04331e-05 -1.33521e-05      63.5996 
         -50      21.3734 -2.99478e-05 -1.36527e-05      63.5969 
         -50      21.5745 -2.94703e-05 -1.38928e-05      63.5942 
         -50      21.7767 -2.90214e-05 -1.40619e-05      63.5915 
         -50      21.9797 -2.86036e-05 -1.41534e-05      63.5887 
         -50      22.1837 -2.82099e-05 -1.41645e-05      63.5859 
         -50      22.3886 -2.78339e-05 -1.40967e-05       63.583 
         -50      22.5945 -2.74762e-05 -1.39552e-05      63.5802 
         -50      22.8013 -2.71491e-05 -1.37487e-05      63.5773 
         -50      23.0091 -2.68775e-05 -1.34889e-05      63.5744 
         -50      23.2177 -2.66981e-05 -1.31893e-05      63.5714 
         -50      23.4274 -2.66548e-05 -1.28642e-05      63.5685 
         -50       23.638 -2.67908e-05 -1.25278e-05      63.5655 
         -50      23.8495 -2.71364e-05 -1.21917e-05      63.5625 
         -50       24.062 -2.76936e-05 -1.18629e-05      63.5595 
         -50      24.2754 -2.84141e-05 -1.15423e-05      63.5564 
         -50      24.4897 -2.91758e-05 -1.12205e-05      63.5533 
         -50       24.705 -2.97507e-05 -1.08757e-05      63.5502 
         -50      24.9213 -2.97693e-05 -1.04691e-05      63.5471 
         -50      25.1385 -2.86776e-05 -9.94196e-06       63.544 
         -50      25.3566 -2.54896e-05 -9.86955e-06      63.5408 
         -50      25.5756 -1.77577e-05 -1.00144e-05      63.5376 
         -50      25.7957 -1.87974e-05 -1.01594e-05      63.5344 
         -50      26.0166 -2.10626e-05 -1.08678e-05      63.5311 
         -50      26.2385 -2.37292e-05 -1.08412e-05      63.5279 
         -50      26.4613 -2.62532e-05 -1.04824e-05      63.5246 
         -50      26.6851   -2.828e-05 -1.00545e-05      63.5213 
         -50      26.9098 -2.96135e-05 -9.71005e-06       63.518 
         -50      27.1354 -3.01937e-05 -9.51595e-06      63.5146 
         -50      27.3621 -3.00656e-05  -9.4787e-06      63.5113 
         -50      27.5896 -2.93541e-05 -9.56599e-06      63.5079 
         -50      27.8181 -2.82382e-05 -9.72576e-06      63.5045 
         -50      28.0475 -2.69256e-05 -9.90238e-06       63.501 
         -50      28.2779 -2.56289e-05 -1.00493e-05      63.4976 
         -50      28.5092 -2.45456e-05 -1.01379e-05      63.4941 
         -50      28.7414 -2.38331e-05 -1.01626e-05      63.4907 
         -50      28.9746 -2.35929e-05 -1.01408e-05      63.4872 
         -50      29.2088 -2.38519e-05  -1.0109e-05      63.4836 
         -50      29.4439 -2.45475e-05 -1.01121e-05      63.4801 
         -50      29.6799 -2.55154e-05 -1.01886e-05      63.4765 
         -50      29.9168 -2.64792e-05 -1.03483e-05       63.473 
         -50      30.1548 -2.70437e-05 -1.05443e-05      63.4694 
         -50      30.3936   -2.669e-05 -1.06368e-05      63.4658 
         -50      30.6334 -2.47771e-05 -1.03505e-05      63.4622 
         -50      30.8742 -2.15291e-05 -9.62499e-06      63.4585 
         -50      31.1158  -2.2318e-05 -9.82233e-06      63.4549 
         -50      31.3584 -2.37514e-05  -9.6094e-06      63.4512 
         -50       31.602 -2.51784e-05 -9.23494e-06      63.4475 
         -50      31.8465 -2.62111e-05 -8.86298e-06      63.4438 
         -50      32.0919 -2.66696e-05 -8.58899e-06      63.4401 
         -50      32.3383  -2.6535e-05 -8.45372e-06      63.4364 
         -50      32.5856 -2.59008e-05 -8.45763e-06      63.4327 
         -50       32.834 -2.49308e-05 -8.57361e-06      63.4289 
         -50      33.0831  -2.3823e-05 -8.75833e-06      63.4252 
         -50      33.3333 -2.27735e-05 -8.96278e-06      63.4214 
         -50      33.5843 -2.19514e-05 -9.14095e-06      63.4176 
         -50      33.8364 -2.14762e-05 -9.25703e-06      63.4138 
         -50      34.0894 -2.14034e-05 -9.29073e-06        63.41 
         -50      34.3433 -2.17162e-05 -9.24099e-06      63.4062 
         -50      34.5981 -2.23256e-05 -9.12719e-06      63.4024 
         -50       34.854 -2.30792e-05 -8.98827e-06      63.3986 
         -50      35.1107 -2.37773e-05 -8.87964e-06      63.3948 
         -50      35.3684 -2.42014e-05 -8.86683e-06      63.3909 
         -50      35.6271  -2.4151e-05 -9.01706e-06      63.3871 
         -50      35.8867 -2.34918e-05 -9.38703e-06      63.3832 
         -50      36.1472 -2.22171e-05 -1.00082e-05      63.3793 
         -50      36.4086 -2.05198e-05 -1.08681e-05      63.3755 
         -50      36.6711 -1.87033e-05 -1.17557e-05      63.3716 
         -50      36.9344 -1.84948e-05 -1.12381e-05      63.3677 
         -50      37.1987 -2.17571e-05 -8.29572e-06      63.3638 
         -50      37.4639 -2.34717e-05 -8.50102e-06      63.3599 
         -50      37.7301 -2.31516e-05 -8.11555e-06      63.3561 
         -50      37.9972 -2.26287e-05 -7.69107e-06      63.3522 
         -50      38.2652 -2.18899e-05  -7.7348e-06      63.3483 
         -50      38.5342 -2.11472e-05 -7.93036e-06      63.3444 
         -50      38.8042 -2.05678e-05 -8.08656e-06      63.3405 
         -50      39.0751 -2.02714e-05 -8.11092e-06      63.3366 
         -50      39.3469 -2.08308e-05 -8.02241e-06      63.3327 
         -50      39.6197 -2.14796e-05 -7.88811e-06      63.3288 
         -50      39.8934 -2.20621e-05  -7.7301e-06      63.3249 
         -50       40.168 -2.25573e-05 -7.57115e-06       63.321 
         -50      40.4436 -2.29542e-05 -7.43181e-06      63.3171 
         -50      40.7202 -2.32498e-05 -7.32773e-06      63.3132 
         -50      40.9977  -2.3446e-05 -7.26795e-06      63.3093 
         -50      41.2761 -2.35479e-05 -7.25345e-06      63.3054 
         -50      41.5554 -2.35617e-05 -7.27696e-06      63.3016 
         -50      41.8358 -2.34932e-05 -7.32332e-06      63.2977 
         -50       42.117 -2.33463e-05 -7.37074e-06      63.2938 
         -50      42.3992 -2.31226e-05 -7.39314e-06        63.29 
         -50      42.6823  -2.2821e-05 -7.36337e-06      63.2861 
         -50      42.9664 -2.24371e-05 -7.25751e-06      63.2823 
         -50      43.2514 -2.19653e-05 -7.06052e-06      63.2784 
         -50      43.5373 -2.13984e-05 -6.77276e-06      63.2746 
         -50      43.8243 -2.07297e-05 -6.41788e-06      63.2708 
         -50      44.1121 -1.99566e-05 -6.05282e-06       63.267 
         -50      44.4009 -1.90816e-05 -5.77766e-06      63.2632 
         -50      44.6906 -1.81174e-05 -5.74851e-06      63.2594 
         -50      44.9813 -1.78206e-05 -6.11187e-06      63.2556 
         -50      45.2729 -2.18203e-05 -5.91318e-06      63.2518 
         -50      45.5654 -2.36901e-05 -5.54469e-06      63.2481 
         -50      45.8589 -2.41624e-05 -5.23235e-06      63.2443 
         -50      46.1534 -2.38195e-05  -5.1074e-06      63.2406 
         -50      46.4488 -2.31019e-05 -5.22258e-06      63.2369 
         -50      46.7451 -2.23161e-05 -5.56733e-06      63.2332 
         -50      47.0423 -2.16453e-05 -6.08283e-06      63.2295 
         -50      47.3406 -2.11605e-05 -6.67596e-06      63.2259 
         -50      47.6397 -2.08344e-05 -7.23131e-06      63.2222 
         -50      47.9398 -2.10163e-05  -7.3375e-06      63.2186 
         -50      48.2409 -2.15779e-05 -7.30417e-06       63.215 
         -50      48.5428 -2.22698e-05 -7.13571e-06      63.2114 
         -50      48.8457 -2.28778e-05 -6.86721e-06      63.2079 
         -50      49.1496 -2.32235e-05 -6.56148e-06      63.2043 
         -50      49.4545 -2.31709e-05 -6.29912e-06      63.2008 
         -50      49.7602 -2.26378e-05 -6.16295e-06      63.1973 
         -50      50.0668  -2.1611e-05 -6.21472e-06      63.1938 
         -50      50.3744 -2.01661e-05 -6.46611e-06      63.1903 
         -50      50.6831 -1.84923e-05 -6.84197e-06      63.1869 
         -50      50.9926 -1.69263e-05 -7.13495e-06      63.1835 
         -50       51.303 -1.59842e-05 -6.95382e-06      63.1801 
         -50      51.6144 -1.64066e-05 -5.66139e-06      63.1768 
         -50      51.9268 -1.81264e-05 -3.86364e-06      63.1735 
         -50        52.24 -1.84035e-05 -5.40651e-06      63.1702 
         -50      52.5542  -1.9516e-05 -6.23623e-06      63.1669 
         -50      52.8694 -2.09103e-05  -6.4849e-06      63.1636 
         -50      53.1856 -2.20576e-05 -6.23924e-06      63.1604 
         -50      53.5026 -2.24411e-05 -5.54374e-06      63.1572 
         -50      53.8205 -2.15501e-05 -4.40295e-06      63.1539 
         -50      54.1396 -1.99908e-05 -3.19876e-06      63.1507 
         -50      54.4594 -2.09039e-05 -3.24408e-06      63.1476 
         -50      54.7802 -2.10716e-05 -3.32046e-06      63.1446 
         -50      55.1019 -2.07914e-05 -3.44289e-06      63.1415 
         -50      55.4247 -2.02863e-05 -3.60695e-06      63.1385 
         -50      55.7483 -1.97161e-05 -3.79534e-06      63.1356 
         -50      56.0729  -1.9187e-05 -3.98431e-06      63.1327 
         -50      56.3984 -1.87614e-05  -4.1486e-06      63.1298 
         -50       56.725 -1.84671e-05 -4.26589e-06       63.127 
         -50      57.0523 -1.83063e-05 -4.31998e-06      63.1242 
         -50      57.3807 -1.82621e-05 -4.30354e-06      63.1214 
         -50      57.7099 -1.83065e-05 -4.21913e-06      63.1187 
         -50      58.0403 -1.84065e-05 -4.07942e-06       63.116 
         -50      58.3714 -1.85284e-05 -3.90643e-06      63.1133 
         -50      58.7035 -1.86435e-05  -3.7288e-06      63.1107 
         -50      59.0367 -1.87303e-05 -3.57835e-06      63.1081 
         -50      59.3707 -1.87769e-05 -3.48509e-06      63.1055 
         -50      59.7056 -1.87824e-05 -3.47028e-06       63.103 
         -50      60.0414 -1.87565e-05 -3.53844e-06      63.1005 
         -50      60.3784 -1.87179e-05 -3.66746e-06      63.0981 
         -50      60.7161 -1.86912e-05 -3.79671e-06      63.0957 
         -50      61.0548  -1.8703e-05 -3.81382e-06      63.0934 
         -50      61.3944 -1.87758e-05 -3.53909e-06      63.0911 
         -50      61.7351 -1.89202e-05 -2.70753e-06      63.0888 
         -50      62.0767 -1.81125e-05 -1.79638e-06      63.0866 
         -50      62.4191 -1.48435e-05 -2.96748e-06      63.0845 
         -50      62.7625 -1.32411e-05 -3.45746e-06      63.0823 
         -50       63.107 -1.28992e-05 -3.48437e-06      63.0803 
         -50      63.4523 -1.34606e-05 -3.22294e-06      63.0782 
         -50      63.7985  -1.4616e-05 -2.80922e-06      63.0763 
         -50      64.1458 -1.61039e-05 -2.34486e-06      63.0744 
         -50      64.4939 -1.77059e-05 -1.90238e-06      63.0725 
         -50       64.843 -1.92491e-05 -1.52834e-06      63.0707 
         -50      65.1929 -2.06011e-05 -1.24827e-06       63.069 
         -50       65.544  -2.1669e-05 -1.07041e-06      63.0673 
         -50      65.8959 -2.23946e-05 -9.89717e-07      63.0656 
         -50      66.2487 -2.27541e-05 -9.91033e-07       63.064 
         -50      66.6025  -2.2753e-05 -1.05277e-06      63.0625 
         -50      66.9573 -2.24223e-05 -1.14993e-06       63.061 
         -50       67.313 -2.18155e-05 -1.25683e-06      63.0596 
         -50      67.6695 -2.10026e-05 -1.34983e-06      63.0582 
         -50      68.0271 -2.00661e-05 -1.40949e-06      63.0569 
         -50      68.3857 -1.90951e-05 -1.42248e-06      63.0556 
         -50      68.7451 -1.81812e-05 -1.38317e-06      63.0545 
         -50      69.1055 -1.74094e-05 -1.29488e-06      63.0533 
         -50      69.4669 -1.68535e-05 -1.17057e-06      63.0523 
         -50      69.8291  -1.6569e-05  -1.0335e-06      63.0513 
         -50      70.1923 -1.65841e-05 -9.16847e-07      63.0503 
         -50      70.5564 -1.68927e-05 -8.63435e-07      63.0495 
         -50      70.9217 -1.74455e-05  -9.2472e-07      63.0487 
         -50      71.2877 -1.81399e-05 -1.15916e-06       63.048 
         -50      71.6546 -1.88116e-05  -1.6303e-06      63.0473 
         -50      72.0225 -1.92233e-05 -2.40409e-06      63.0468 
         -50      72.3915 -1.90536e-05 -3.54626e-06      63.0463 
         -50      72.7613 -1.86632e-05 -4.44507e-06       63.046 
         -50       73.132 -2.05352e-05 -2.90337e-06       63.046 
         -50      73.5036 -2.14925e-05 -1.54201e-06      63.0461 
         -50      73.8764 -2.08904e-05 -4.69932e-07      63.0462 
         -50      74.2499 -1.78793e-05  2.06059e-07      63.0462 
         -50      74.6244 -1.13714e-05  3.89783e-07      63.0464 
         -50           75           -0  4.96139e-17      63.0465 
         -25            0 -2.12223e-20  2.45073e-24      62.0218 
         -25     0.000471 -2.07305e-06  2.35735e-10      62.0218 
         -25     0.001884 -7.30892e-06  7.84556e-10      62.0218 
         -25     0.004239 -1.32417e-05  1.22139e-09      62.0218 
         -25     0.007537  -1.7149e-05  9.85102e-10      62.0218 
         -25     0.011776 -1.74232e-05 -4.60032e-10      62.0218 
         -25     0.016958 -1.43817e-05 -3.49622e-09      62.0218 
         -25     0.023081 -9.98266e-06 -8.29686e-09      62.0218 
         -25      0.03015  -6.4717e-06 -1.48593e-08      62.0218 
         -25     0.038157  -4.6998e-06 -2.30373e-08      62.0218 
         -25     0.047107 -3.37127e-06 -3.25497e-08      62.0218 
         -25     0.056999 -4.32754e-07 -4.28268e-08      62.0218 
         -25     0.067837  3.88518e-06 -5.28838e-08      62.0218 
         -25     0.079614  7.01876e-06 -6.17182e-08      62.0218 
         -25     0.092332  1.12937e-05 -6.79821e-08      62.0218 
         -25     0.105992  1.53131e-05 -6.95248e-08      62.0218 
         -25       0.1206  1.91035e-05 -6.45495e-08      62.0218 
         -25     0.136145   2.2671e-05 -5.09165e-08      62.0218 
         -25     0.152631  2.60115e-05 -2.65429e-08      62.0218 
         -25     0.170067   2.9111e-05  1.06126e-08      62.0218 
         -25     0.188438  3.19525e-05   6.2488e-08      62.0218 
         -25     0.207751  3.45374e-05  1.30966e-07      62.0218 
         -25     0.228006   3.6884e-05  2.17579e-07      62.0218 
         -25     0.249212  3.90064e-05  3.22895e-07      62.0218 
         -25     0.271351  4.09239e-05  4.48571e-07      62.0218 
         -25     0.294433  4.26726e-05  5.93862e-07      62.0218 
         -25     0.318456  4.42811e-05  7.58908e-07      62.0218 
         -25     0.343432  4.57796e-05  9.41983e-07      62.0218 
         -25     0.369339  4.71938e-05  1.13956e-06      62.0218 
         -25     0.396189  4.85475e-05  1.34762e-06      62.0218 
         -25     0.423981  4.98572e-05  1.56231e-06      62.0218 
         -25     0.452726  5.11317e-05  1.78127e-06      62.0218 
         -25     0.482403  5.23692e-05  2.00424e-06      62.0218 
         -25     0.513021  5.35596e-05  2.23407e-06      62.0218 
         -25     0.544594  5.46836e-05   2.4761e-06      62.0218 
         -25     0.577096  5.57135e-05  2.73582e-06      62.0218 
         -25     0.610541  5.66174e-05   3.0149e-06      62.0218 
         -25     0.644927  5.73415e-05  3.30395e-06      62.0218 
         -25      0.68027  5.79016e-05  3.60048e-06      62.0218 
         -25     0.716541   5.8247e-05  3.89467e-06      62.0218 
         -25     0.753754  5.83388e-05  4.17966e-06      62.0218 
         -25     0.791909  5.81495e-05  4.45102e-06      62.0218 
         -25     0.831022  5.76628e-05  4.70669e-06      62.0218 
         -25     0.871061  5.68735e-05  4.94624e-06      62.0218 
         -25     0.912043   5.5785e-05  5.17089e-06      62.0218 
         -25     0.953966  5.44074e-05  5.38253e-06      62.0217 
         -25     0.996849  5.27546e-05  5.58318e-06      62.0217 
         -25      1.04066  5.08437e-05  5.77402e-06      62.0217 
         -25      1.08541  4.86876e-05   5.9553e-06      62.0217 
         -25      1.13112  4.62936e-05   6.1257e-06      62.0217 
         -25      1.17775  4.36636e-05  6.28214e-06      62.0217 
         -25      1.22533   4.0786e-05  6.42074e-06      62.0217 
         -25      1.27384  3.76386e-05  6.53778e-06      62.0217 