Variables = x, y, u, v, p

Zone, I=6400, F=POINT
         -50            0            0            0     -111.752 
         -50     0.000471 -2.28122e-05 -1.85443e-09     -111.752 
         -50     0.001884 -8.03973e-05 -7.33798e-09     -111.752 
         -50     0.004239 -0.000146051 -1.63724e-08     -111.752 
         -50     0.007537 -0.000191774 -2.92943e-08     -111.752 
         -50     0.011776 -0.000203741 -4.73044e-08     -111.752 
         -50     0.016958  -0.00018979 -7.27823e-08     -111.752 
         -50     0.023081 -0.000173004 -1.09187e-07     -111.752 
         -50      0.03015  -0.00017363 -1.60707e-07     -111.752 
         -50     0.038157 -0.000190878 -2.31555e-07     -111.752 
         -50     0.047107  -0.00020225 -3.25812e-07     -111.752 
         -50     0.056999 -0.000191695 -4.47405e-07     -111.752 
         -50     0.067837 -0.000186284 -6.00409e-07     -111.752 
         -50     0.079614 -0.000206571  -7.8717e-07     -111.752 
         -50     0.092332 -0.000194896 -1.01001e-06     -111.752 
         -50     0.105992 -0.000197073 -1.27303e-06     -111.752 
         -50       0.1206 -0.000195538  -1.5767e-06     -111.752 
         -50     0.136145 -0.000193553 -1.92133e-06     -111.752 
         -50     0.152631 -0.000192026  -2.3066e-06     -111.752 
         -50     0.170067 -0.000190273 -2.73155e-06     -111.752 
         -50     0.188438 -0.000187442 -3.19426e-06     -111.752 
         -50     0.207751 -0.000183883 -3.69355e-06     -111.752 
         -50     0.228006 -0.000181072 -4.22888e-06     -111.751 
         -50     0.249212  -0.00017763 -4.80155e-06     -111.751 
         -50     0.271351 -0.000174485 -5.41843e-06     -111.751 
         -50     0.294433 -0.000171352 -6.07697e-06     -111.751 
         -50     0.318456 -0.000168256 -6.79204e-06     -111.751 
         -50     0.343432 -0.000165329 -7.57639e-06     -111.751 
         -50     0.369339 -0.000162658 -8.43739e-06     -111.751 
         -50     0.396189 -0.000160288 -9.37796e-06     -111.751 
         -50     0.423981 -0.000158235 -1.03943e-05     -111.751 
         -50     0.452726 -0.000156508 -1.14762e-05     -111.751 
         -50     0.482403 -0.000155118 -1.26064e-05     -111.751 
         -50     0.513021 -0.000154089 -1.37638e-05     -111.751 
         -50     0.544594  -0.00015345 -1.49266e-05     -111.751 
         -50     0.577096 -0.000153203 -1.60754e-05     -111.751 
         -50     0.610541 -0.000153247 -1.71974e-05     -111.751 
         -50     0.644927 -0.000153658 -1.81695e-05     -111.751 
         -50      0.68027 -0.000154372 -1.91559e-05     -111.751 
         -50     0.716541  -0.00015531  -2.0159e-05     -111.751 
         -50     0.753754 -0.000156399 -2.11797e-05     -111.751 
         -50     0.791909 -0.000157575 -2.22152e-05     -111.751 
         -50     0.831022 -0.000158779 -2.32609e-05     -111.751 
         -50     0.871061 -0.000159962 -2.43088e-05     -111.751 
         -50     0.912043 -0.000161082 -2.53512e-05     -111.751 
         -50     0.953966 -0.000162107 -2.63792e-05     -111.751 
         -50     0.996849 -0.000163011 -2.73848e-05     -111.751 
         -50      1.04066 -0.000163776 -2.83598e-05     -111.751 
         -50      1.08541  -0.00016439 -2.92992e-05     -111.751 
         -50      1.13112 -0.000164843 -3.01996e-05     -111.751 
         -50      1.17775 -0.000165132 -3.10585e-05     -111.751 
         -50      1.22533 -0.000165254  -3.1875e-05      -111.75 
         -50      1.27384 -0.000165213 -3.26468e-05      -111.75 
         -50      1.32333 -0.000165015 -3.33673e-05      -111.75 
         -50      1.37373 -0.000164676 -3.40197e-05      -111.75 
         -50      1.42507 -0.000164225 -3.45712e-05      -111.75 
         -50      1.47736 -0.000163711 -3.49625e-05      -111.75 
         -50      1.53061 -0.000165612 -3.54977e-05      -111.75 
         -50      1.58478 -0.000170349 -3.61295e-05      -111.75 
         -50      1.63989 -0.000174866 -3.64399e-05      -111.75 
         -50      1.69595 -0.000179058 -3.65321e-05     -111.749 
         -50      1.75297 -0.000182857 -3.64942e-05     -111.749 
         -50      1.81091 -0.000186225 -3.63987e-05     -111.749 
         -50      1.86979 -0.000189157  -3.6302e-05     -111.749 
         -50      1.92964 -0.000191676 -3.62445e-05     -111.749 
         -50       1.9904 -0.000193824 -3.62507e-05     -111.749 
         -50      2.05211 -0.000195663 -3.63305e-05     -111.748 
         -50      2.11476 -0.000197265 -3.64795e-05     -111.748 
         -50      2.17838 -0.000198709 -3.66811e-05     -111.748 
         -50      2.24291 -0.000200067  -3.6908e-05     -111.748 
         -50      2.30839 -0.000201406 -3.71243e-05     -111.748 
         -50       2.3748 -0.000202777  -3.7288e-05     -111.747 
         -50      2.44219 -0.000204206 -3.73537e-05     -111.747 
         -50      2.51049 -0.000205693 -3.72751e-05     -111.747 
         -50      2.57974 -0.000207207 -3.70087e-05     -111.747 
         -50      2.64993 -0.000208683 -3.65157e-05     -111.746 
         -50      2.72108 -0.000210024 -3.57655e-05     -111.746 
         -50      2.79315 -0.000211102 -3.47388e-05     -111.746 
         -50      2.86617  -0.00021177 -3.34289e-05     -111.746 
         -50      2.94012 -0.000211873 -3.18438e-05     -111.745 
         -50      3.01505 -0.000211266 -3.00064e-05     -111.745 
         -50      3.09089 -0.000209845 -2.79577e-05     -111.745 
         -50      3.16767 -0.000207574 -2.57511e-05     -111.744 
         -50      3.24542 -0.000204537  -2.3451e-05     -111.744 
         -50      3.32409 -0.000200993 -2.11324e-05     -111.744 
         -50       3.4037 -0.000197442 -1.88671e-05     -111.743 
         -50      3.48425  -0.00019471 -1.67195e-05     -111.743 
         -50      3.56577 -0.000194056 -1.47311e-05     -111.742 
         -50       3.6482 -0.000197285 -1.29087e-05     -111.742 
         -50      3.73158 -0.000206896 -1.11991e-05     -111.741 
         -50       3.8159 -0.000209278 -1.06807e-05     -111.741 
         -50      3.90119 -0.000206641  -9.8087e-06     -111.741 
         -50       3.9874 -0.000203551 -8.11188e-06      -111.74 
         -50      4.07454 -0.000200456 -6.80198e-06      -111.74 
         -50      4.16263 -0.000197606 -5.72852e-06     -111.739 
         -50      4.25169 -0.000195163 -4.78396e-06     -111.738 
         -50      4.34166 -0.000193207 -3.91405e-06     -111.738 
         -50      4.43258 -0.000191743 -3.10149e-06     -111.737 
         -50      4.52447 -0.000190719 -2.35346e-06     -111.737 
         -50      4.61726 -0.000190039 -1.68949e-06     -111.736 
         -50        4.711  -0.00018958 -1.12826e-06     -111.736 
         -50      4.80569 -0.000189208 -6.79327e-07     -111.735 
         -50      4.90135 -0.000188796 -3.36017e-07     -111.734 
         -50      4.99791 -0.000188246 -7.27734e-08     -111.734 
         -50      5.09542 -0.000187508  1.54463e-07     -111.733 
         -50      5.19387 -0.000186601  4.01117e-07     -111.732 
         -50       5.2933 -0.000185631  7.21324e-07     -111.731 
         -50      5.39364 -0.000184819  1.14688e-06     -111.731 
         -50      5.49491 -0.000184516  1.65869e-06      -111.73 
         -50      5.59713 -0.000185223  2.14679e-06     -111.729 
         -50      5.70033 -0.000186216  2.40872e-06     -111.728 
         -50      5.80443 -0.000185456  2.73499e-06     -111.727 
         -50      5.90948 -0.000185044   2.9992e-06     -111.726 
         -50      6.01551 -0.000184738   3.0485e-06     -111.726 
         -50      6.12244 -0.000184413  2.90682e-06     -111.725 
         -50      6.23031 -0.000184027  2.72105e-06     -111.724 
         -50      6.33912 -0.000183579  2.68307e-06     -111.723 
         -50      6.44892 -0.000183066  2.92478e-06     -111.722 
         -50      6.55962 -0.000182438  3.38151e-06     -111.721 
         -50      6.67126  -0.00018155  3.62161e-06      -111.72 
         -50      6.78384 -0.000180243  2.81552e-06     -111.719 
         -50      6.89741 -0.000181359  3.75371e-06     -111.718 
         -50      7.01187 -0.000182274  3.43339e-06     -111.716 
         -50      7.12728 -0.000182751  2.63962e-06     -111.715 
         -50      7.24363 -0.000182701  1.89441e-06     -111.714 
         -50      7.36097 -0.000182175  1.47836e-06     -111.713 
         -50       7.4792 -0.000181345  1.46339e-06     -111.712 
         -50      7.59838 -0.000180463  1.75654e-06      -111.71 
         -50      7.71854 -0.000179806   2.1599e-06     -111.709 
         -50       7.8396 -0.000179596  2.44439e-06     -111.708 
         -50      7.96161 -0.000179889   2.4431e-06     -111.706 
         -50      8.08455 -0.000180445  2.16213e-06     -111.705 
         -50      8.20849 -0.000180558  1.91355e-06     -111.704 
         -50      8.33332  -0.00018005  1.45185e-06     -111.702 
         -50      8.45909 -0.000179978  4.53031e-07     -111.701 
         -50       8.5858 -0.000179577  -7.5213e-08     -111.699 
         -50      8.71351  -0.00017903 -2.90852e-07     -111.698 
         -50       8.8421 -0.000178467 -3.27136e-07     -111.696 
         -50      8.97164 -0.000177971 -2.94378e-07     -111.695 
         -50      9.10212 -0.000177584 -2.80464e-07     -111.693 
         -50       9.2336 -0.000177319 -3.51407e-07     -111.691 
         -50      9.36596  -0.00017717 -5.50894e-07      -111.69 
         -50      9.49927 -0.000177117 -8.99378e-07     -111.688 
         -50      9.63352 -0.000177136 -1.39206e-06     -111.686 
         -50      9.76877  -0.00017721 -1.99617e-06     -111.684 
         -50       9.9049 -0.000177334 -2.64579e-06     -111.683 
         -50       10.042 -0.000177523 -3.23787e-06     -111.681 
         -50      10.1801 -0.000177821 -3.62439e-06     -111.679 
         -50       10.319 -0.000178306  -3.6034e-06     -111.677 
         -50      10.4589 -0.000178508 -3.96872e-06     -111.675 
         -50      10.5998 -0.000177647  -4.3887e-06     -111.673 
         -50      10.7416 -0.000176021 -4.48735e-06     -111.671 
         -50      10.8843 -0.000174138 -4.33659e-06     -111.669 
         -50       11.028 -0.000172801 -4.24225e-06     -111.667 
         -50      11.1726 -0.000173223 -4.84201e-06     -111.664 
         -50      11.3182 -0.000177176 -7.22552e-06     -111.662 
         -50      11.4647 -0.000175151 -7.29188e-06      -111.66 
         -50      11.6122 -0.000173711 -7.27247e-06     -111.658 
         -50      11.7605 -0.000173502 -7.27165e-06     -111.655 
         -50      11.9099 -0.000174044 -7.05874e-06     -111.653 
         -50      12.0602 -0.000174869 -6.59694e-06     -111.651 
         -50      12.2114 -0.000175486 -6.06325e-06     -111.648 
         -50      12.3636 -0.000175314 -5.91377e-06     -111.646 
         -50      12.5167 -0.000174087 -7.61462e-06     -111.643 
         -50      12.6707 -0.000173213 -8.81091e-06     -111.641 
         -50      12.8257  -0.00017265 -9.64157e-06     -111.638 
         -50      12.9817 -0.000172341 -1.02248e-05     -111.635 
         -50      13.1386 -0.000172215 -1.06572e-05     -111.633 
         -50      13.2964 -0.000172191 -1.10152e-05      -111.63 
         -50      13.4551 -0.000172181  -1.1355e-05     -111.627 
         -50      13.6149   -0.0001721 -1.17138e-05     -111.625 
         -50      13.7755 -0.000171867 -1.21112e-05     -111.622 
         -50      13.9371 -0.000171419 -1.25517e-05     -111.619 
         -50      14.0996 -0.000170716  -1.3027e-05     -111.616 
         -50      14.2631 -0.000169751 -1.35197e-05     -111.613 
         -50      14.4275  -0.00016857 -1.40065e-05      -111.61 
         -50      14.5928 -0.000167277 -1.44637e-05     -111.607 
         -50      14.7592 -0.000166053 -1.48726e-05     -111.604 
         -50      14.9264 -0.000165176 -1.52252e-05     -111.601 
         -50      15.0946 -0.000165039 -1.55321e-05     -111.597 
         -50      15.2637 -0.000166171 -1.58305e-05     -111.594 
         -50      15.4338 -0.000169266 -1.61936e-05     -111.591 
         -50      15.6048 -0.000169624 -1.66516e-05     -111.587 
         -50      15.7767 -0.000167765 -1.70812e-05     -111.584 
         -50      15.9496 -0.000166565 -1.74693e-05     -111.581 
         -50      16.1235 -0.000166005 -1.78222e-05     -111.577 
         -50      16.2982 -0.000165969 -1.81622e-05     -111.574 
         -50      16.4739 -0.000166276 -1.85194e-05      -111.57 
         -50      16.6506 -0.000166726 -1.89245e-05     -111.567 
         -50      16.8282 -0.000167122 -1.94021e-05     -111.563 
         -50      17.0068 -0.000167304 -1.99652e-05     -111.559 
         -50      17.1862 -0.000167165  -2.0612e-05     -111.555 
         -50      17.3667 -0.000166672  -2.1323e-05     -111.552 
         -50      17.5481 -0.000165867 -2.20591e-05     -111.548 
         -50      17.7304 -0.000164876 -2.27639e-05     -111.544 
         -50      17.9136 -0.000163892 -2.33659e-05      -111.54 
         -50      18.0979 -0.000163164 -2.37837e-05     -111.536 
         -50       18.283 -0.000162961 -2.39328e-05     -111.532 
         -50      18.4691 -0.000163539 -2.37373e-05     -111.528 
         -50      18.6561 -0.000164978  -2.3176e-05     -111.524 
         -50      18.8441 -0.000165316 -2.30563e-05      -111.52 
         -50       19.033 -0.000165429 -2.31249e-05     -111.515 
         -50      19.2228 -0.000165006 -2.33368e-05     -111.511 
         -50      19.4136  -0.00016393 -2.35982e-05     -111.507 
         -50      19.6054  -0.00016238 -2.37473e-05     -111.503 
         -50       19.798  -0.00016096 -2.35317e-05     -111.498 
         -50      19.9917 -0.000160837 -2.25826e-05     -111.494 
         -50      20.1862 -0.000162483 -2.39814e-05     -111.489 
         -50      20.3818 -0.000163212 -2.59261e-05     -111.485 
         -50      20.5782  -0.00016318  -2.7042e-05      -111.48 
         -50      20.7756  -0.00016268 -2.76247e-05     -111.476 
         -50       20.974 -0.000161922 -2.78901e-05     -111.471 
         -50      21.1732  -0.00016105 -2.79883e-05     -111.466 
         -50      21.3734 -0.000160153 -2.80162e-05     -111.461 
         -50      21.5745  -0.00015928 -2.80289e-05     -111.457 
         -50      21.7767 -0.000158455 -2.80513e-05     -111.452 
         -50      21.9797 -0.000157687 -2.80878e-05     -111.447 
         -50      22.1837 -0.000156977 -2.81313e-05     -111.442 
         -50      22.3886 -0.000156328 -2.81717e-05     -111.437 
         -50      22.5945 -0.000155748 -2.82016e-05     -111.432 
         -50      22.8013 -0.000155259 -2.82219e-05     -111.427 
         -50      23.0091 -0.000154888 -2.82446e-05     -111.422 
         -50      23.2177 -0.000154675 -2.82946e-05     -111.417 
         -50      23.4274  -0.00015466 -2.84084e-05     -111.411 
         -50       23.638 -0.000154876 -2.86315e-05     -111.406 
         -50      23.8495  -0.00015534 -2.90125e-05     -111.401 
         -50       24.062 -0.000156033 -2.95953e-05     -111.396 
         -50      24.2754 -0.000156878 -3.04067e-05      -111.39 
         -50      24.4897 -0.000157719  -3.1443e-05     -111.385 
         -50       24.705 -0.000158288 -3.26516e-05     -111.379 
         -50      24.9213 -0.000158167 -3.39098e-05     -111.374 
         -50      25.1385  -0.00015675 -3.49968e-05     -111.368 
         -50      25.3566 -0.000152204 -3.40171e-05     -111.363 
         -50      25.5756 -0.000143324 -3.19299e-05     -111.357 
         -50      25.7957 -0.000143325 -3.26611e-05     -111.352 
         -50      26.0166 -0.000146194 -3.36794e-05     -111.346 
         -50      26.2385  -0.00014892 -3.39199e-05      -111.34 
         -50      26.4613 -0.000151209 -3.38378e-05     -111.334 
         -50      26.6851 -0.000152871 -3.37059e-05     -111.329 
         -50      26.9098  -0.00015381 -3.36569e-05     -111.323 
         -50      27.1354 -0.000154019 -3.37222e-05     -111.317 
         -50      27.3621 -0.000153559 -3.38675e-05     -111.311 
         -50      27.5896 -0.000152556 -3.40236e-05     -111.305 
         -50      27.8181 -0.000151178 -3.41138e-05     -111.299 
         -50      28.0475 -0.000149622  -3.4075e-05     -111.293 
         -50      28.2779 -0.000148099 -3.38741e-05     -111.287 
         -50      28.5092 -0.000146811 -3.35179e-05     -111.281 
         -50      28.7414 -0.000145934 -3.30561e-05     -111.275 
         -50      28.9746 -0.000145591  -3.2577e-05     -111.269 
         -50      29.2088 -0.000145833 -3.21952e-05     -111.263 
         -50      29.4439 -0.000146608 -3.20312e-05     -111.256 
         -50      29.6799 -0.000147738 -3.21801e-05      -111.25 
         -50      29.9168 -0.000148886 -3.26717e-05     -111.244 
         -50      30.1548 -0.000149525 -3.34195e-05     -111.238 
         -50      30.3936 -0.000148901 -3.41564e-05     -111.231 
         -50      30.6334 -0.000146002 -3.43613e-05     -111.225 
         -50      30.8742 -0.000140892 -3.36003e-05     -111.219 
         -50      31.1158 -0.000141034 -3.37884e-05     -111.212 
         -50      31.3584 -0.000142028 -3.38262e-05     -111.206 
         -50       31.602 -0.000143179  -3.3787e-05     -111.199 
         -50      31.8465 -0.000144057 -3.37236e-05     -111.193 
         -50      32.0919 -0.000144437 -3.36709e-05     -111.186 
         -50      32.3383 -0.000144261 -3.36489e-05      -111.18 
         -50      32.5856 -0.000143589  -3.3665e-05     -111.173 
         -50       32.834 -0.000142554 -3.37174e-05     -111.167 
         -50      33.0831 -0.000141334 -3.37968e-05      -111.16 
         -50      33.3333 -0.000140109 -3.38893e-05     -111.154 
         -50      33.5843 -0.000139041 -3.39789e-05     -111.147 
         -50      33.8364 -0.000138253 -3.40495e-05      -111.14 
         -50      34.0894 -0.000137811 -3.40868e-05     -111.134 
         -50      34.3433 -0.000137714 -3.40809e-05     -111.127 
         -50      34.5981 -0.000137899 -3.40273e-05      -111.12 
         -50       34.854 -0.000138244  -3.3929e-05     -111.114 
         -50      35.1107 -0.000138585 -3.37976e-05     -111.107 
         -50      35.3684  -0.00013874 -3.36545e-05       -111.1 
         -50      35.6271 -0.000138546 -3.35315e-05     -111.094 
         -50      35.8867 -0.000137901 -3.34718e-05     -111.087 
         -50      36.1472 -0.000136827 -3.35298e-05      -111.08 
         -50      36.4086 -0.000135532 -3.37711e-05     -111.073 
         -50      36.6711 -0.000134032 -3.41748e-05     -111.066 
         -50      36.9344 -0.000132888 -3.42493e-05      -111.06 
         -50      37.1987 -0.000134481 -3.35415e-05     -111.053 
         -50      37.4639 -0.000135508 -3.35502e-05     -111.046 
         -50      37.7301   -0.0001347 -3.28282e-05     -111.039 
         -50      37.9972   -0.0001337 -3.25027e-05     -111.032 
         -50      38.2652 -0.000132701 -3.26576e-05     -111.026 
         -50      38.5342 -0.000131856 -3.29476e-05     -111.019 
         -50      38.8042 -0.000131261 -3.31599e-05     -111.012 
         -50      39.0751 -0.000130961 -3.31868e-05     -111.005 
         -50      39.3469 -0.000131369 -3.29739e-05     -110.998 
         -50      39.6197 -0.000131791 -3.26629e-05     -110.992 
         -50      39.8934 -0.000132096 -3.22975e-05     -110.985 
         -50       40.168  -0.00013227 -3.19142e-05     -110.978 
         -50      40.4436 -0.000132313 -3.15506e-05     -110.971 
         -50      40.7202 -0.000132236 -3.12397e-05     -110.964 
         -50      40.9977 -0.000132055 -3.10058e-05     -110.958 
         -50      41.2761  -0.00013179 -3.08613e-05     -110.951 
         -50      41.5554 -0.000131459 -3.08049e-05     -110.944 
         -50      41.8358 -0.000131079 -3.08216e-05     -110.937 
         -50       42.117 -0.000130661 -3.08832e-05      -110.93 
         -50      42.3992 -0.000130211 -3.09516e-05     -110.924 
         -50      42.6823 -0.000129727 -3.09832e-05     -110.917 
         -50      42.9664 -0.000129198 -3.09345e-05      -110.91 
         -50      43.2514 -0.000128606 -3.07711e-05     -110.904 
         -50      43.5373 -0.000127925 -3.04774e-05     -110.897 
         -50      43.8243 -0.000127123  -3.0069e-05      -110.89 
         -50      44.1121 -0.000126165 -2.96082e-05     -110.884 
         -50      44.4009 -0.000125011 -2.92198e-05     -110.877 
         -50      44.6906 -0.000123626 -2.91121e-05      -110.87 
         -50      44.9813 -0.000122752 -2.94484e-05     -110.864 
         -50      45.2729 -0.000126214 -2.89451e-05     -110.857 
         -50      45.5654  -0.00012741 -2.85007e-05     -110.851 
         -50      45.8589 -0.000127265 -2.81892e-05     -110.844 
         -50      46.1534 -0.000126483 -2.80289e-05     -110.838 
         -50      46.4488 -0.000125569 -2.79942e-05     -110.831 
         -50      46.7451 -0.000124839 -2.80269e-05     -110.825 
         -50      47.0423  -0.00012445 -2.80462e-05     -110.818 
         -50      47.3406 -0.000124415 -2.79582e-05     -110.812 
         -50      47.6397 -0.000124625 -2.76646e-05     -110.805 
         -50      47.9398 -0.000124286 -2.76212e-05     -110.799 
         -50      48.2409 -0.000124113 -2.74953e-05     -110.793 
         -50      48.5428 -0.000124032 -2.72454e-05     -110.787 
         -50      48.8457 -0.000123975 -2.68624e-05      -110.78 
         -50      49.1496  -0.00012387 -2.63663e-05     -110.774 
         -50      49.4545 -0.000123637 -2.58004e-05     -110.768 
         -50      49.7602 -0.000123192 -2.52264e-05     -110.762 
         -50      50.0668 -0.000122457 -2.47125e-05     -110.756 
         -50      50.3744 -0.000121377 -2.43228e-05      -110.75 
         -50      50.6831 -0.000119945 -2.41017e-05     -110.744 
         -50      50.9926 -0.000118242 -2.40565e-05     -110.738 
         -50       51.303 -0.000116469 -2.41359e-05     -110.732 
         -50      51.6144 -0.000115009 -2.42062e-05     -110.726 
         -50      51.9268 -0.000114734 -2.42556e-05      -110.72 
         -50        52.24  -0.00011602 -2.46049e-05     -110.715 
         -50      52.5542  -0.00011745 -2.46127e-05     -110.709 
         -50      52.8694 -0.000118715 -2.43686e-05     -110.703 
         -50      53.1856 -0.000119523 -2.39427e-05     -110.698 
         -50      53.5026 -0.000119587 -2.33873e-05     -110.692 
         -50      53.8205 -0.000118623 -2.27389e-05     -110.686 
         -50      54.1396 -0.000117307 -2.19851e-05     -110.681 
         -50      54.4594 -0.000118087 -2.12001e-05     -110.676 
         -50      54.7802 -0.000118071 -2.06186e-05      -110.67 
         -50      55.1019 -0.000117593 -2.02338e-05     -110.665 
         -50      55.4247 -0.000116894 -2.00147e-05      -110.66 
         -50      55.7483 -0.000116136 -1.99151e-05     -110.655 
         -50      56.0729 -0.000115417 -1.98817e-05     -110.649 
         -50      56.3984 -0.000114792 -1.98611e-05     -110.644 
         -50       56.725 -0.000114279  -1.9806e-05     -110.639 
         -50      57.0523 -0.000113872   -1.968e-05     -110.635 
         -50      57.3807 -0.000113557 -1.94603e-05      -110.63 
         -50      57.7099  -0.00011331 -1.91402e-05     -110.625 
         -50      58.0403 -0.000113112 -1.87294e-05      -110.62 
         -50      58.3714 -0.000112949 -1.82527e-05     -110.616 
         -50      58.7035 -0.000112813  -1.7747e-05     -110.611 
         -50      59.0367 -0.000112704 -1.72565e-05     -110.607 
         -50      59.3707 -0.000112628 -1.68269e-05     -110.602 
         -50      59.7056 -0.000112587 -1.64953e-05     -110.598 
         -50      60.0414 -0.000112576 -1.62805e-05     -110.594 
         -50      60.3784 -0.000112568 -1.61698e-05     -110.589 
         -50      60.7161 -0.000112502 -1.61033e-05     -110.585 
         -50      61.0548 -0.000112263 -1.59564e-05     -110.581 
         -50      61.3944 -0.000111666 -1.55193e-05     -110.577 
         -50      61.7351 -0.000110424 -1.44732e-05     -110.573 
         -50      62.0767 -0.000108616 -1.32519e-05     -110.569 
         -50      62.4191 -0.000107719 -1.41634e-05     -110.566 
         -50      62.7625 -0.000106694 -1.43773e-05     -110.562 
         -50       63.107 -0.000105933 -1.41226e-05     -110.558 
         -50      63.4523 -0.000105658 -1.35816e-05     -110.555 
         -50      63.7985 -0.000105952 -1.28944e-05     -110.552 
         -50      64.1458 -0.000106794 -1.21639e-05     -110.548 
         -50      64.4939  -0.00010808 -1.14628e-05     -110.545 
         -50       64.843 -0.000109657 -1.08357e-05     -110.542 
         -50      65.1929  -0.00011134 -1.03058e-05     -110.539 
         -50       65.544 -0.000112942 -9.87827e-06     -110.536 
         -50      65.8959  -0.00011428 -9.54531e-06     -110.533 
         -50      66.2487 -0.000115206 -9.28895e-06      -110.53 
         -50      66.6025 -0.000115606 -9.08531e-06     -110.528 
         -50      66.9573  -0.00011542 -8.90751e-06     -110.525 
         -50       67.313 -0.000114642  -8.7289e-06     -110.523 
         -50      67.6695 -0.000113322 -8.52504e-06      -110.52 
         -50      68.0271 -0.000111568  -8.2761e-06     -110.518 
         -50      68.3857 -0.000109537 -7.96829e-06     -110.516 
         -50      68.7451 -0.000107429 -7.59553e-06     -110.514 
         -50      69.1055 -0.000105467 -7.15945e-06     -110.512 
         -50      69.4669 -0.000103879 -6.66979e-06      -110.51 
         -50      69.8291 -0.000102879 -6.14475e-06     -110.508 
         -50      70.1923 -0.000102629 -5.60884e-06     -110.507 
         -50      70.5564 -0.000103207  -5.0921e-06     -110.505 
         -50      70.9217 -0.000104567 -4.62758e-06     -110.504 
         -50      71.2877 -0.000106491 -4.24918e-06     -110.503 
         -50      71.6546 -0.000108533 -3.98693e-06     -110.502 
         -50      72.0225 -0.000109961 -3.86352e-06     -110.501 
         -50      72.3915 -0.000109689 -3.88902e-06       -110.5 
         -50      72.7613 -0.000108526 -3.67214e-06     -110.499 
         -50       73.132 -0.000113831 -2.06327e-06     -110.499 
         -50      73.5036 -0.000115441 -6.83961e-07     -110.499 
         -50      73.8764 -0.000110018  3.44686e-07     -110.499 
         -50      74.2499 -9.31016e-05  8.91204e-07     -110.499 
         -50      74.6244 -5.88927e-05  8.21107e-07     -110.499 
         -50           75           -0  4.96139e-17     -110.499 
         -25            0 -1.93977e-19 -4.99125e-24      -108.71 
         -25     0.000471 -1.89226e-05 -4.84794e-10      -108.71 
         -25     0.001884 -6.64805e-05 -1.66402e-09      -108.71 
         -25     0.004239 -0.000120019 -2.75161e-09      -108.71 
         -25     0.007537 -0.000155817 -2.55083e-09      -108.71 
         -25     0.011776 -0.000162245  4.29675e-10      -108.71 
         -25     0.016958 -0.000146121  7.90283e-09      -108.71 
         -25     0.023081 -0.000127254  2.18004e-08      -108.71 
         -25      0.03015  -0.00012305  4.43724e-08      -108.71 
         -25     0.038157 -0.000133035  7.82189e-08      -108.71 
         -25     0.047107 -0.000138262  1.26383e-07      -108.71 
         -25     0.056999 -0.000125259  1.92153e-07      -108.71 
         -25     0.067837 -0.000117211  2.78942e-07      -108.71 
         -25     0.079614 -0.000131733  3.90442e-07      -108.71 
         -25     0.092332 -0.000119877  5.30232e-07      -108.71 
         -25     0.105992 -0.000120674  7.01051e-07      -108.71 
         -25       0.1206 -0.000119206  9.06191e-07      -108.71 
         -25     0.136145 -0.000118234    1.148e-06      -108.71 
         -25     0.152631 -0.000118481  1.42853e-06      -108.71 
         -25     0.170067 -0.000119288  1.74943e-06      -108.71 
         -25     0.188438 -0.000119822  2.11134e-06      -108.71 
         -25     0.207751 -0.000120261  2.51478e-06      -108.71 
         -25     0.228006 -0.000121725  2.95968e-06      -108.71 
         -25     0.249212 -0.000122908  3.44575e-06      -108.71 
         -25     0.271351 -0.000124457  3.97104e-06      -108.71 
         -25     0.294433 -0.000125996  4.53549e-06      -108.71 
         -25     0.318456 -0.000127431  5.13777e-06      -108.71 
         -25     0.343432 -0.000128767  5.77667e-06      -108.71 
         -25     0.369339 -0.000129976  6.44987e-06      -108.71 
         -25     0.396189 -0.000131014  7.15555e-06      -108.71 
         -25     0.423981 -0.000131825   7.8911e-06      -108.71 
         -25     0.452726 -0.000132362  8.65365e-06      -108.71 
         -25     0.482403 -0.000132596  9.43878e-06      -108.71 
         -25     0.513021 -0.000132528  1.02421e-05      -108.71 
         -25     0.544594 -0.000132179  1.10587e-05      -108.71 
         -25     0.577096 -0.000131572  1.18821e-05      -108.71 
         -25     0.610541 -0.000130673  1.27067e-05      -108.71 
         -25     0.644927 -0.000129612  1.35472e-05      -108.71 
         -25      0.68027 -0.000128329   1.4416e-05      -108.71 
         -25     0.716541 -0.000126923  1.52985e-05      -108.71 
         -25     0.753754 -0.000125476  1.61837e-05      -108.71 
         -25     0.791909 -0.000124062  1.70629e-05      -108.71 
         -25     0.831022 -0.000122739  1.79298e-05      -108.71 
         -25     0.871061 -0.000121552  1.87794e-05      -108.71 
         -25     0.912043 -0.000120534  1.96088e-05      -108.71 
         -25     0.953966 -0.000119705  2.04159e-05      -108.71 
         -25     0.996849 -0.000119076  2.11991e-05      -108.71 
         -25      1.04066 -0.000118652  2.19553e-05      -108.71 
         -25      1.08541 -0.000118435  2.26814e-05      -108.71 
         -25      1.13112 -0.000118427  2.33725e-05      -108.71 
         -25      1.17775 -0.000118638  2.40215e-05      -108.71 
         -25      1.22533 -0.000119084  2.46206e-05      -108.71 
         -25      1.27384 -0.000119798   2.5162e-05      -108.71 