Variables = x, y, u, v, p

Zone, I=6400, F=POINT
         -50            0            0            0     -139.601 
         -50     0.000942  0.000479682 -4.80142e-09     -139.601 
         -50     0.003768   0.00200753 -1.21781e-08     -139.601 
         -50     0.008478   0.00476191 -1.96823e-09     -139.601 
         -50     0.015075     0.008835  5.73576e-08     -139.601 
         -50     0.023553    0.0141442  2.07927e-07     -139.601 
         -50     0.033916    0.0205672  5.04261e-07     -139.601 
         -50     0.046163    0.0281235  1.01532e-06     -139.601 
         -50       0.0603    0.0369149  1.82395e-06     -139.601 
         -50     0.076315    0.0468102  3.02185e-06     -139.601 
         -50     0.094215    0.0579153  4.71714e-06     -139.601 
         -50     0.113999    0.0701665   7.0285e-06     -139.601 
         -50     0.135675    0.0835899  1.00849e-05     -139.601 
         -50     0.159228     0.098168  1.40221e-05     -139.601 
         -50     0.184664     0.113905  1.89831e-05     -139.601 
         -50     0.211985     0.130801  2.51075e-05     -139.601 
         -50     0.241201     0.148853  3.25363e-05     -139.601 
         -50      0.27229     0.168046  4.14023e-05     -139.601 
         -50     0.305263     0.188373   5.1867e-05     -139.601 
         -50     0.340135     0.209834  6.41526e-05     -139.601 
         -50     0.376877     0.232395  7.84818e-05     -139.601 
         -50     0.415503     0.256045  9.50927e-05     -139.601 
         -50     0.456013     0.280756  0.000114199       -139.6 
         -50     0.498424     0.306506  0.000135987       -139.6 
         -50     0.542703     0.333235  0.000160585       -139.6 
         -50     0.588866     0.360902  0.000188146       -139.6 
         -50     0.636912     0.389446  0.000219089       -139.6 
         -50     0.686864     0.418807  0.000253478       -139.6 
         -50     0.738679     0.448872  0.000291239       -139.6 
         -50     0.792379     0.479555  0.000332483       -139.6 
         -50     0.847962     0.510736  0.000377274       -139.6 
         -50     0.905453     0.542295  0.000425649       -139.6 
         -50     0.964806     0.574056  0.000477524       -139.6 
         -50      1.02604     0.605862  0.000532792       -139.6 
         -50      1.08919     0.637545  0.000591257       -139.6 
         -50      1.15419      0.66888  0.000652545     -139.599 
         -50      1.22108     0.699671  0.000716238     -139.599 
         -50      1.28985     0.729701  0.000781787     -139.599 
         -50      1.36054     0.758763  0.000848584     -139.599 
         -50      1.43308     0.786616  0.000915895     -139.599 
         -50      1.50751     0.813064  0.000983103     -139.599 
         -50      1.58382     0.837923   0.00104969     -139.598 
         -50      1.66204     0.861023   0.00111457     -139.598 
         -50      1.74212     0.882216   0.00117683     -139.598 
         -50      1.82409     0.901418   0.00123574     -139.598 
         -50      1.90793     0.918583   0.00129067     -139.597 
         -50       1.9937     0.933712   0.00134114     -139.597 
         -50      2.08131      0.94683   0.00138678     -139.597 
         -50      2.17081     0.958023   0.00142739     -139.596 
         -50      2.26223     0.967406   0.00146293     -139.596 
         -50       2.3555     0.975117   0.00149346     -139.596 
         -50      2.45065     0.981327   0.00151918     -139.595 
         -50      2.54769     0.986222   0.00154042     -139.595 
         -50      2.64665     0.989996   0.00155756     -139.594 
         -50      2.74746     0.992839   0.00157106     -139.594 
         -50      2.85014     0.994934   0.00158142     -139.593 
         -50      2.95472     0.996449   0.00158915     -139.593 
         -50      3.06122     0.997526   0.00159473     -139.592 
         -50      3.16956     0.998276    0.0015986     -139.592 
         -50      3.27979     0.998784   0.00160117     -139.591 
         -50       3.3919     0.999109   0.00160275      -139.59 
         -50      3.50594     0.999293   0.00160359      -139.59 
         -50      3.62181     0.999381   0.00160392     -139.589 
         -50      3.73958     0.999447   0.00160395     -139.588 
         -50      3.85927      0.99949   0.00160163     -139.587 
         -50       3.9808     0.999515   0.00160109     -139.586 
         -50      4.10422     0.999531   0.00160143     -139.586 
         -50      4.22952      0.99954   0.00160098     -139.585 
         -50      4.35675     0.999545   0.00160005     -139.584 
         -50      4.48582     0.999547   0.00159889     -139.583 
         -50      4.61677     0.999548    0.0015977     -139.582 
         -50      4.74961     0.999548   0.00159655      -139.58 
         -50      4.88438     0.999548   0.00159547     -139.579 
         -50      5.02099     0.999548    0.0015944     -139.578 
         -50      5.15948     0.999548   0.00159327     -139.577 
         -50      5.29985     0.999548   0.00159202     -139.575 
         -50      5.44217     0.999549   0.00159068     -139.574 
         -50      5.58631     0.999548   0.00158943     -139.573 
         -50      5.73233     0.999548   0.00158797     -139.571 
         -50      5.88024     0.999549   0.00158583      -139.57 
         -50       6.0301     0.999549   0.00158397     -139.568 
         -50      6.18178     0.999549   0.00158241     -139.566 
         -50      6.33534      0.99955   0.00158099     -139.565 
         -50      6.49085     0.999551   0.00157951     -139.563 
         -50      6.64818     0.999552    0.0015779     -139.561 
         -50      6.80739     0.999552   0.00157657     -139.559 
         -50      6.96849      0.99955   0.00157531     -139.557 
         -50      7.13154      0.99955   0.00157352     -139.555 
         -50      7.29641      0.99955   0.00157172     -139.553 
         -50      7.46316      0.99955   0.00157027     -139.551 
         -50       7.6318     0.999551   0.00156923     -139.549 
         -50      7.80239     0.999552   0.00156838     -139.547 
         -50      7.97479     0.999552   0.00156721     -139.544 
         -50      8.14908     0.999551   0.00156507     -139.542 
         -50      8.32526     0.999549    0.0015625     -139.539 
         -50      8.50338     0.999551   0.00156169     -139.537 
         -50      8.68333     0.999552   0.00156043     -139.534 
         -50      8.86515     0.999553   0.00155903     -139.531 
         -50      9.04894     0.999553   0.00155764     -139.528 
         -50      9.23453     0.999554   0.00155627     -139.525 
         -50      9.42201     0.999555   0.00155487     -139.522 
         -50      9.61137     0.999555   0.00155334     -139.519 
         -50      9.80269     0.999555   0.00155163     -139.516 
         -50      9.99583     0.999554   0.00154976     -139.513 
         -50      10.1908     0.999553   0.00154792     -139.509 
         -50      10.3877     0.999552   0.00154648     -139.506 
         -50      10.5866     0.999555    0.0015451     -139.502 
         -50      10.7873     0.999557   0.00154353     -139.499 
         -50      10.9898     0.999558    0.0015418     -139.495 
         -50      11.1943     0.999557   0.00153895     -139.491 
         -50      11.4007     0.999556   0.00153558     -139.487 
         -50      11.6089     0.999559   0.00153558     -139.483 
         -50       11.819     0.999559   0.00153476     -139.479 
         -50       12.031     0.999559   0.00153396     -139.475 
         -50      12.2449     0.999558   0.00153307     -139.471 
         -50      12.4606     0.999559   0.00153212     -139.466 
         -50      12.6782     0.999559   0.00153081     -139.462 
         -50      12.8978      0.99956   0.00152868     -139.457 
         -50      13.1192     0.999561   0.00152636     -139.452 
         -50      13.3425     0.999561   0.00152423     -139.448 
         -50      13.5677     0.999562   0.00152247     -139.443 
         -50      13.7948     0.999563   0.00152111     -139.438 
         -50      14.0237     0.999563   0.00152004     -139.433 
         -50      14.2546     0.999564    0.0015191     -139.427 
         -50      14.4873     0.999565    0.0015181     -139.422 
         -50      14.7219     0.999567   0.00151696     -139.416 
         -50      14.9584     0.999568    0.0015157     -139.411 
         -50      15.1968     0.999569   0.00151459     -139.405 
         -50      15.4371     0.999568   0.00151426     -139.399 
         -50      15.6792      0.99957   0.00151241     -139.393 
         -50      15.9232     0.999572   0.00151065     -139.387 
         -50      16.1691     0.999572   0.00150948     -139.381 
         -50       16.417     0.999572    0.0015086     -139.375 
         -50      16.6666     0.999571   0.00150784     -139.369 
         -50      16.9182     0.999572   0.00150713     -139.362 
         -50      17.1716     0.999573   0.00150642     -139.355 
         -50       17.427     0.999574   0.00150569     -139.349 
         -50      17.6842     0.999576   0.00150489     -139.342 
         -50      17.9433     0.999577   0.00150392     -139.335 
         -50      18.2042     0.999577   0.00150266     -139.328 
         -50      18.4672     0.999577    0.0015009     -139.321 
         -50      18.7319     0.999577   0.00149983     -139.313 
         -50      18.9985     0.999575    0.0015005     -139.306 
         -50       19.267     0.999576    0.0015002     -139.298 
         -50      19.5375     0.999579   0.00149933     -139.291 
         -50      19.8098     0.999583   0.00149837     -139.283 
         -50       20.084     0.999584     0.001498     -139.275 
         -50      20.3601     0.999584   0.00149762     -139.267 
         -50       20.638     0.999585   0.00149679     -139.259 
         -50      20.9178     0.999586   0.00149582     -139.251 
         -50      21.1995     0.999588   0.00149488     -139.242 
         -50      21.4832     0.999588   0.00149403     -139.234 
         -50      21.7687     0.999588   0.00149326     -139.225 
         -50       22.056     0.999588   0.00149256     -139.217 
         -50      22.3452     0.999588   0.00149188     -139.208 
         -50      22.6365     0.999589   0.00149121     -139.199 
         -50      22.9295     0.999591   0.00149055      -139.19 
         -50      23.2243     0.999593   0.00148994     -139.181 
         -50      23.5211     0.999595   0.00148945     -139.172 
         -50      23.8199     0.999596   0.00148914     -139.162 
         -50      24.1204     0.999596   0.00148905     -139.153 
         -50      24.4228     0.999596   0.00148915     -139.143 
         -50      24.7272     0.999594   0.00148926     -139.134 
         -50      25.0334     0.999593   0.00148899     -139.124 
         -50      25.3415     0.999597   0.00148809     -139.114 
         -50      25.6514     0.999613   0.00148518     -139.104 
         -50      25.9634     0.999606   0.00148612     -139.094 
         -50      26.2771     0.999602   0.00148671     -139.084 
         -50      26.5927     0.999601   0.00148705     -139.074 
         -50      26.9102     0.999603   0.00148717     -139.063 
         -50      27.2297     0.999605   0.00148715     -139.053 
         -50       27.551     0.999607   0.00148711     -139.042 
         -50      27.8741     0.999609   0.00148715     -139.032 
         -50      28.1991      0.99961   0.00148735     -139.021 
         -50      28.5262     0.999612    0.0014877      -139.01 
         -50       28.855     0.999613   0.00148812     -138.999 
         -50      29.1856     0.999614   0.00148848     -138.989 
         -50      29.5183     0.999614   0.00148864     -138.978 
         -50      29.8528     0.999615   0.00148846     -138.966 
         -50      30.1891     0.999616   0.00148793     -138.955 
         -50      30.5273     0.999619   0.00148726     -138.944 
         -50      30.8676     0.999623   0.00148686     -138.933 
         -50      31.2096     0.999623   0.00148632     -138.921 
         -50      31.5534     0.999622    0.0014863      -138.91 
         -50      31.8992     0.999622   0.00148643     -138.899 
         -50      32.2469     0.999623   0.00148655     -138.887 
         -50      32.5965     0.999624   0.00148667     -138.875 
         -50      32.9479     0.999626   0.00148687     -138.864 
         -50      33.3012     0.999628   0.00148725     -138.852 
         -50      33.6565     0.999629   0.00148787      -138.84 
         -50      34.0135     0.999631   0.00148873     -138.828 
         -50      34.3725     0.999632   0.00148973     -138.817 
         -50      34.7334     0.999633   0.00149071     -138.805 
         -50      35.0962     0.999634   0.00149139     -138.793 
         -50      35.4608     0.999636   0.00149151     -138.781 
         -50      35.8272     0.999637   0.00149077     -138.769 
         -50      36.1957     0.999639   0.00148901     -138.757 
         -50       36.566     0.999641   0.00148629     -138.745 
         -50      36.9381     0.999641   0.00148719     -138.733 
         -50      37.3121     0.999638   0.00149247     -138.721 
         -50      37.6882     0.999642   0.00149134     -138.709 
         -50       38.066     0.999643   0.00149218     -138.697 
         -50      38.4456     0.999646   0.00149205     -138.684 
         -50      38.8272     0.999649    0.0014917     -138.672 
         -50      39.2108      0.99965   0.00149188      -138.66 
         -50      39.5961     0.999649   0.00149336     -138.648 
         -50      39.9833     0.999649   0.00149491     -138.636 
         -50      40.3724     0.999649    0.0014964     -138.624 
         -50      40.7635     0.999649   0.00149771     -138.612 
         -50      41.1564      0.99965   0.00149879       -138.6 
         -50      41.5511     0.999652   0.00149965     -138.588 
         -50      41.9479     0.999653   0.00150033     -138.576 
         -50      42.3464     0.999655   0.00150092     -138.564 
         -50      42.7468     0.999657   0.00150154     -138.552 
         -50      43.1491     0.999658   0.00150231      -138.54 
         -50      43.5534     0.999659   0.00150331     -138.528 
         -50      43.9595     0.999661   0.00150451     -138.516 
         -50      44.3674     0.999663   0.00150573     -138.505 
         -50      44.7772     0.999666   0.00150657     -138.493 
         -50      45.1891     0.999665   0.00150705     -138.481 
         -50      45.6027     0.999663   0.00150789      -138.47 
         -50      46.0181     0.999663   0.00150888     -138.458 
         -50      46.4355     0.999665   0.00150995     -138.447 
         -50      46.8549     0.999666   0.00151102     -138.435 
         -50       47.276     0.999668   0.00151198     -138.424 
         -50       47.699      0.99967   0.00151283     -138.413 
         -50      48.1241     0.999671   0.00151376     -138.401 
         -50      48.5508     0.999672   0.00151471      -138.39 
         -50      48.9795     0.999672   0.00151589     -138.379 
         -50        49.41     0.999674    0.0015173     -138.368 
         -50      49.8426     0.999675   0.00151871     -138.358 
         -50      50.2769     0.999677   0.00151984     -138.347 
         -50      50.7131     0.999679   0.00152054     -138.336 
         -50      51.1512     0.999681   0.00152116     -138.326 
         -50      51.5914     0.999684   0.00152299     -138.315 
         -50      52.0332     0.999684   0.00152514     -138.305 
         -50      52.4769     0.999681   0.00152524     -138.295 
         -50      52.9225     0.999681   0.00152654     -138.285 
         -50      53.3702     0.999682   0.00152837     -138.275 
         -50      53.8196     0.999685   0.00153036     -138.265 
         -50      54.2709     0.999685   0.00153207     -138.256 
         -50      54.7242     0.999685   0.00153342     -138.246 
         -50      55.1792     0.999686   0.00153478     -138.237 
         -50      55.6362     0.999688   0.00153612     -138.228 
         -50       56.095     0.999689    0.0015375     -138.219 
         -50      56.5558     0.999691   0.00153896      -138.21 
         -50      57.0184     0.999692   0.00154055     -138.201 
         -50      57.4829     0.999693    0.0015423     -138.193 
         -50      57.9492     0.999694   0.00154415     -138.185 
         -50      58.4176     0.999695   0.00154602     -138.176 
         -50      58.8877     0.999695   0.00154781     -138.168 
         -50      59.3597     0.999695   0.00154938     -138.161 
         -50      59.8336     0.999696   0.00155067     -138.153 
         -50      60.3096     0.999696   0.00155171     -138.146 
         -50      60.7872     0.999696   0.00155274     -138.138 
         -50      61.2667     0.999698   0.00155427     -138.131 
         -50      61.7484     0.999703   0.00155726     -138.125 
         -50      62.2317     0.999702   0.00155918     -138.118 
         -50      62.7168     0.999699   0.00155935     -138.112 
         -50      63.2039     0.999701   0.00156098     -138.105 
         -50      63.6931     0.999705   0.00156329     -138.099 
         -50      64.1839     0.999707   0.00156574     -138.094 
         -50      64.6766     0.999707   0.00156803     -138.088 
         -50      65.1712     0.999705      0.00157     -138.083 
         -50      65.6679     0.999702   0.00157165     -138.078 
         -50      66.1663     0.999699   0.00157304     -138.073 
         -50      66.6665     0.999697    0.0015743     -138.068 
         -50      67.1687     0.999698   0.00157556     -138.064 
         -50      67.6729     0.999701   0.00157696      -138.06 
         -50      68.1788     0.999707    0.0015786     -138.056 
         -50      68.6866     0.999714   0.00158054     -138.053 
         -50      69.1963     0.999721   0.00158276     -138.049 
         -50      69.7081     0.999726    0.0015852     -138.046 
         -50      70.2215     0.999729    0.0015877     -138.044 
         -50      70.7368     0.999726   0.00159006     -138.041 
         -50      71.2543      0.99972   0.00159204     -138.039 
         -50      71.7734     0.999711   0.00159335     -138.037 
         -50      72.2943     0.999705   0.00159373     -138.035 
         -50      72.8172     0.999703   0.00159415     -138.034 
         -50      73.3422     0.999692   0.00159754     -138.033 
         -50      73.8688     0.999709    0.0016005     -138.032 
         -50      74.3973     0.999784   0.00160276     -138.032 
         -50      74.9277     0.999964   0.00160398     -138.032 
         -50      75.4602            0            0            0 
         -50      75.9944            0            0            0 
         -50      76.5305            0            0            0 
         -50      77.0684            0            0            0 
         -50      77.6084            0            0            0 
         -50      78.1502            0            0            0 
         -50      78.6937            0            0            0 
         -50      79.2394            0            0            0 
         -50      79.7868            0            0            0 
         -50      80.3361            0            0            0 
         -50      80.8872            0            0            0 
         -50      81.4404            0            0            0 
         -50      81.9953            0            0            0 
         -50      82.5521            0            0            0 
         -50      83.1108            0            0            0 
         -50      83.6715            0            0            0 
         -50       84.234            0            0            0 
         -50      84.7983            0            0            0 
         -50      85.3645            0            0            0 
         -50      85.9328            0            0            0 
         -50      86.5028            0            0            0 
         -50      87.0747            0            0            0 
         -50      87.6486            0            0            0 
         -50      88.2243            0            0            0 
         -50      88.8018            0            0            0 
         -50      89.3812            0            0            0 
         -50      89.9627            0            0            0 
         -50      90.5458            0            0            0 
         -50      91.1309            0            0            0 
         -50      91.7178            0            0            0 
         -50      92.3069            0            0            0 
         -50      92.8976            0            0            0 
         -50      93.4901            0            0            0 
         -50      94.0846            0            0            0 
         -50      94.6812            0            0            0 
         -50      95.2794            0            0            0 
         -50      95.8796            0            0            0 
         -50      96.4818            0            0            0 
         -50      97.0857            0            0            0 
         -50      97.6915            0            0            0 
         -50      98.2991            0            0            0 
         -50      98.9089            0            0            0 
         -50      99.5203            0            0            0 
         -50      100.134            0            0            0 
         -50      100.749            0            0            0 
         -50      101.366            0            0            0 
         -50      101.985            0            0            0 
         -50      102.606            0            0            0 
         -50      103.229            0            0            0 
         -50      103.854            0            0            0 
         -50       104.48            0            0            0 
         -50      105.108            0            0            0 
         -50      105.739            0            0            0 
         -50      106.371            0            0            0 
         -50      107.005            0            0            0 
         -50      107.641            0            0            0 
         -50      108.279            0            0            0 
         -50      108.919            0            0            0 
         -50       109.56            0            0            0 
         -50      110.204            0            0            0 
         -50      110.849            0            0            0 
         -50      111.497            0            0            0 
         -50      112.146            0            0            0 
         -50      112.797            0            0            0 
         -50       113.45            0            0            0 
         -50      114.105            0            0            0 
         -50      114.761            0            0            0 
         -50       115.42            0            0            0 
         -50      116.081            0            0            0 
         -50      116.743            0            0            0 
         -50      117.407            0            0            0 
         -50      118.073            0            0            0 
         -50      118.741            0            0            0 
         -50      119.411            0            0            0 
         -50      120.083            0            0            0 
         -50      120.757            0            0            0 
         -50      121.432            0            0            0 
         -50       122.11            0            0            0 
         -50      122.789            0            0            0 
         -50       123.47            0            0            0 
         -50      124.153            0            0            0 
         -50      124.838            0            0            0 
         -50      125.525            0            0            0 
         -50      126.214            0            0            0 
         -50      126.905            0            0            0 
         -50      127.597            0            0            0 
         -50      128.292            0            0            0 
         -50      128.988            0            0            0 
         -50      129.686            0            0            0 
         -50      130.386            0            0            0 
         -50      131.088            0            0            0 
         -50      131.792            0            0            0 
         -50      132.497            0            0            0 
         -50      133.205            0            0            0 
         -50      133.915            0            0            0 
         -50      134.626            0            0            0 
         -50      135.339            0            0            0 
         -50      136.054            0            0            0 
         -50      136.771            0            0            0 
         -50       137.49            0            0            0 
         -50      138.211            0            0            0 
         -50      138.934            0            0            0 
         -50      139.658            0            0            0 
         -50      140.385            0            0            0 
         -50      141.113            0            0            0 
         -50      141.843            0            0            0 
         -50      142.575            0            0            0 
         -50      143.309            0            0            0 
         -50      144.045            0            0            0 
         -50      144.783            0            0            0 
         -50      145.523            0            0            0 
         -50      146.264            0            0            0 
         -50      147.007            0            0            0 
         -50      147.753            0            0            0 
         -50        148.5            0            0            0 
         -50      149.249            0            0            0 
         -50          150            0            0            0 
         -25            0  2.28563e-18  -7.5814e-24     -135.756 
         -25     0.000942  0.000472719 -1.13414e-09     -135.756 
         -25     0.003768   0.00196648  3.40042e-10     -135.756 
         -25     0.008478   0.00463315  1.88023e-08     -135.756 
         -25     0.015075   0.00855135  7.76769e-08     -135.756 
         -25     0.023553    0.0136503   2.0912e-07     -135.756 
         -25     0.033916    0.0198259  4.54602e-07     -135.756 
         -25     0.046163    0.0270948  8.65319e-07     -135.756 
         -25       0.0603    0.0355436   1.5023e-06     -135.756 
         -25     0.076315    0.0450597  2.43439e-06     -135.756 
         -25     0.094215    0.0557335  3.74155e-06     -135.756 
         -25     0.113999    0.0675104   5.5124e-06     -135.756 
         -25     0.135675    0.0804126  7.84634e-06     -135.756 
         -25     0.159228    0.0944239  1.08499e-05     -135.756 
         -25     0.184664     0.109548  1.46416e-05     -135.756 
         -25     0.211985     0.125784  1.93493e-05     -135.756 
         -25     0.241201      0.14313  2.51127e-05     -135.756 
         -25      0.27229     0.161571  3.20755e-05     -135.756 
         -25     0.305263     0.181103  4.03942e-05     -135.756 
         -25     0.340135     0.201725    5.024e-05     -135.756 
         -25     0.376877     0.223406  6.17674e-05     -135.756 
         -25     0.415503     0.246137  7.51425e-05     -135.756 
         -25     0.456013     0.269895  9.05352e-05     -135.756 
         -25     0.498424     0.294663  0.000108138     -135.756 
         -25     0.542703     0.320387  0.000128138     -135.756 
         -25     0.588866     0.347032  0.000150744     -135.756 
         -25     0.636912     0.374548  0.000176164     -135.756 
         -25     0.686864     0.402885  0.000204552     -135.756 
         -25     0.738679     0.431943  0.000235991     -135.756 
         -25     0.792379      0.46165  0.000270604     -135.756 
         -25     0.847962     0.491903  0.000308469     -135.756 
         -25     0.905453     0.522598  0.000349639     -135.756 
         -25     0.964806      0.55358  0.000394066     -135.756 
         -25      1.02604     0.584712  0.000441689     -135.756 
         -25      1.08919     0.615846  0.000492386     -135.756 
         -25      1.15419     0.646778  0.000545895     -135.756 
         -25      1.22108     0.677333  0.000601934     -135.756 
         -25      1.28985     0.707311   0.00066012     -135.756 
         -25      1.36054      0.73652  0.000720006     -135.756 
         -25      1.43308     0.764729  0.000780999     -135.756 
         -25      1.50751     0.791748  0.000842509     -135.756 
         -25      1.58382     0.817378  0.000903906     -135.756 
         -25      1.66204     0.841474  0.000964692     -135.756 
         -25      1.74212     0.863853   0.00102392     -135.756 
         -25      1.82409       0.8844   0.00108081     -135.756 
         -25      1.90793     0.903031   0.00113468     -135.756 
         -25       1.9937     0.919708   0.00118498     -135.756 
         -25      2.08131     0.934418   0.00123125     -135.755 
         -25      2.17081     0.947203    0.0012732     -135.755 
         -25      2.26223     0.958145   0.00131071     -135.755 
         -25       2.3555     0.967343    0.0013437     -135.755 
         -25      2.45065     0.974938   0.00137229     -135.755 
         -25      2.54769      0.98109   0.00139667     -135.755 