Variables = x, y, u, v, p

Zone, I=6400, F=POINT
         -50            0            0            0       2.2081 
         -50     0.000942  0.000594968  5.62979e-10       2.2081 
         -50     0.003768   0.00237068  7.40689e-09       2.2081 
         -50     0.008478   0.00530881  3.54437e-08       2.2081 
         -50     0.015075   0.00940231  1.08427e-07       2.2081 
         -50     0.023553    0.0146558  2.58922e-07       2.2081 
         -50     0.033916    0.0210833  5.30444e-07       2.2081 
         -50     0.046163    0.0286799  9.79614e-07       2.2081 
         -50       0.0603    0.0374383  1.67637e-06       2.2081 
         -50     0.076315    0.0473673  2.70042e-06       2.2081 
         -50     0.094215    0.0584583  4.14886e-06       2.2081 
         -50     0.113999    0.0707176  6.13334e-06       2.2081 
         -50     0.135675     0.084146  8.78257e-06       2.2081 
         -50     0.159228    0.0987331  1.22354e-05       2.2081 
         -50     0.184664      0.11448  1.66463e-05       2.2081 
         -50     0.211985     0.131383  2.21804e-05       2.2081 
         -50     0.241201     0.149445  2.90043e-05       2.2081 
         -50      0.27229     0.168644   3.7268e-05       2.2081 
         -50     0.305263     0.188979  4.71227e-05       2.2081 
         -50     0.340135     0.210447  5.86974e-05       2.2081 
         -50     0.376877     0.233014  7.21497e-05      2.20809 
         -50     0.415503     0.256668  8.77075e-05      2.20809 
         -50     0.456013     0.281383  0.000105652      2.20809 
         -50     0.498424     0.307136  0.000126313      2.20809 
         -50     0.542703     0.333866  0.000149979      2.20809 
         -50     0.588866     0.361534  0.000176843      2.20809 
         -50     0.636912     0.390077  0.000206857      2.20809 
         -50     0.686864     0.419435  0.000240217      2.20809 
         -50     0.738679     0.449498  0.000277012      2.20809 
         -50     0.792379     0.480177  0.000317324      2.20809 
         -50     0.847962     0.511354  0.000361202      2.20809 
         -50     0.905453     0.542908  0.000408683      2.20809 
         -50     0.964806     0.574664  0.000459695      2.20808 
         -50      1.02604     0.606466  0.000514147      2.20808 
         -50      1.08919     0.638143   0.00057186      2.20808 
         -50      1.15419     0.669472  0.000632477      2.20808 
         -50      1.22108     0.700258  0.000695588      2.20808 
         -50      1.28985     0.730283  0.000760655      2.20808 
         -50      1.36054      0.75934   0.00082709      2.20807 
         -50      1.43308     0.787187  0.000894222      2.20807 
         -50      1.50751      0.81363   0.00096156      2.20807 
         -50      1.58382     0.838483   0.00102787      2.20807 
         -50      1.66204     0.861577   0.00109279      2.20807 
         -50      1.74212     0.882763   0.00115531      2.20806 
         -50      1.82409     0.901959   0.00121461      2.20806 
         -50      1.90793     0.919117   0.00126999      2.20806 
         -50       1.9937     0.934239    0.0013209      2.20805 
         -50      2.08131      0.94735   0.00136688      2.20805 
         -50      2.17081     0.958535   0.00140771      2.20805 
         -50      2.26223      0.96791   0.00144332      2.20804 
         -50       2.3555     0.975614   0.00147374      2.20804 
         -50      2.45065     0.981817   0.00149921      2.20804 
         -50      2.54769     0.986706    0.0015201      2.20803 
         -50      2.64665     0.990475   0.00153686      2.20803 
         -50      2.74746     0.993313   0.00155003      2.20802 
         -50      2.85014     0.995406   0.00156024      2.20802 
         -50      2.95472     0.996919   0.00156809      2.20801 
         -50      3.06122     0.997994    0.0015742      2.20801 
         -50      3.16956     0.998745   0.00157907        2.208 
         -50      3.27979     0.999255   0.00158314        2.208 
         -50       3.3919     0.999582   0.00158665      2.20799 
         -50      3.50594     0.999768   0.00158968      2.20798 
         -50      3.62181     0.999858   0.00159205      2.20798 
         -50      3.73958     0.999926   0.00159332      2.20797 
         -50      3.85927     0.999972   0.00159393      2.20796 
         -50       3.9808            1   0.00159472      2.20795 
         -50      4.10422      1.00002   0.00159562      2.20795 
         -50      4.22952      1.00003   0.00159638      2.20794 
         -50      4.35675      1.00003   0.00159698      2.20793 
         -50      4.48582      1.00004    0.0015974      2.20792 
         -50      4.61677      1.00004   0.00159763      2.20791 
         -50      4.74961      1.00004   0.00159773       2.2079 
         -50      4.88438      1.00004   0.00159786      2.20789 
         -50      5.02099      1.00005    0.0015982      2.20788 
         -50      5.15948      1.00005   0.00159895      2.20787 
         -50      5.29985      1.00005   0.00160013      2.20786 
         -50      5.44217      1.00005   0.00160134      2.20785 
         -50      5.58631      1.00005   0.00160151      2.20784 
         -50      5.73233      1.00005   0.00160094      2.20783 
         -50      5.88024      1.00005   0.00160132      2.20781 
         -50       6.0301      1.00005   0.00160111       2.2078 
         -50      6.18178      1.00005   0.00160073      2.20779 
         -50      6.33534      1.00005   0.00160039      2.20777 
         -50      6.49085      1.00006   0.00160017      2.20776 
         -50      6.64818      1.00006   0.00160004      2.20774 
         -50      6.80739      1.00006   0.00159998      2.20773 
         -50      6.96849      1.00006   0.00159984      2.20771 
         -50      7.13154      1.00006   0.00159947       2.2077 
         -50      7.29641      1.00006   0.00159918      2.20768 
         -50      7.46316      1.00006   0.00159918      2.20766 
         -50       7.6318      1.00006   0.00159957      2.20764 
         -50      7.80239      1.00006   0.00160023      2.20763 
         -50      7.97479      1.00006   0.00160075      2.20761 
         -50      8.14908      1.00006   0.00160036      2.20759 
         -50      8.32526      1.00006   0.00159928      2.20757 
         -50      8.50338      1.00006   0.00160038      2.20755 
         -50      8.68333      1.00006   0.00160041      2.20753 
         -50      8.86515      1.00006   0.00159994       2.2075 
         -50      9.04894      1.00006   0.00159934      2.20748 
         -50      9.23453      1.00006   0.00159879      2.20746 
         -50      9.42201      1.00006   0.00159833      2.20744 
         -50      9.61137      1.00006   0.00159798      2.20741 
         -50      9.80269      1.00006   0.00159769      2.20739 
         -50      9.99583      1.00006   0.00159739      2.20736 
         -50      10.1908      1.00006   0.00159697      2.20734 
         -50      10.3877      1.00006   0.00159643      2.20731 
         -50      10.5866      1.00006   0.00159679      2.20728 
         -50      10.7873      1.00006   0.00159734      2.20726 
         -50      10.9898      1.00006   0.00159772      2.20723 
         -50      11.1943      1.00006   0.00159707       2.2072 
         -50      11.4007      1.00006    0.0015958      2.20717 
         -50      11.6089      1.00006   0.00159635      2.20714 
         -50       11.819      1.00006   0.00159635      2.20711 
         -50       12.031      1.00006   0.00159631      2.20707 
         -50      12.2449      1.00006   0.00159649      2.20704 
         -50      12.4606      1.00006   0.00159682      2.20701 
         -50      12.6782      1.00006   0.00159657      2.20698 
         -50      12.8978      1.00006   0.00159592      2.20694 
         -50      13.1192      1.00006   0.00159513      2.20691 
         -50      13.3425      1.00006   0.00159437      2.20687 
         -50      13.5677      1.00006   0.00159374      2.20683 
         -50      13.7948      1.00006   0.00159326       2.2068 
         -50      14.0237      1.00006   0.00159296      2.20676 
         -50      14.2546      1.00006   0.00159281      2.20672 
         -50      14.4873      1.00006   0.00159277      2.20668 
         -50      14.7219      1.00006   0.00159278      2.20664 
         -50      14.9584      1.00006   0.00159278       2.2066 
         -50      15.1968      1.00006   0.00159265      2.20656 
         -50      15.4371      1.00006   0.00159221      2.20651 
         -50      15.6792      1.00006   0.00159208      2.20647 
         -50      15.9232      1.00006   0.00159208      2.20643 
         -50      16.1691      1.00006   0.00159209      2.20638 
         -50       16.417      1.00006   0.00159213      2.20634 
         -50      16.6666      1.00006   0.00159218      2.20629 
         -50      16.9182      1.00006    0.0015922      2.20625 
         -50      17.1716      1.00006   0.00159217       2.2062 
         -50       17.427      1.00006   0.00159208      2.20615 
         -50      17.6842      1.00006   0.00159194       2.2061 
         -50      17.9433      1.00006   0.00159182      2.20605 
         -50      18.2042      1.00006   0.00159181        2.206 
         -50      18.4672      1.00006   0.00159206      2.20595 
         -50      18.7319      1.00005   0.00159248       2.2059 
         -50      18.9985      1.00005   0.00159259      2.20585 
         -50       19.267      1.00005   0.00159261      2.20579 
         -50      19.5375      1.00005   0.00159259      2.20574 
         -50      19.8098      1.00006   0.00159312      2.20569 
         -50       20.084      1.00006   0.00159502      2.20563 
         -50      20.3601      1.00005   0.00159429      2.20558 
         -50       20.638      1.00005   0.00159391      2.20552 
         -50      20.9178      1.00005    0.0015937      2.20546 
         -50      21.1995      1.00005   0.00159355      2.20541 
         -50      21.4832      1.00005   0.00159339      2.20535 
         -50      21.7687      1.00005   0.00159321      2.20529 
         -50       22.056      1.00005   0.00159303      2.20523 
         -50      22.3452      1.00005   0.00159285      2.20517 
         -50      22.6365      1.00005    0.0015927      2.20511 
         -50      22.9295      1.00005   0.00159261      2.20505 
         -50      23.2243      1.00005   0.00159257      2.20499 
         -50      23.5211      1.00005   0.00159256      2.20493 
         -50      23.8199      1.00005   0.00159255      2.20486 
         -50      24.1204      1.00005   0.00159248       2.2048 
         -50      24.4228      1.00005   0.00159227      2.20474 
         -50      24.7272      1.00004   0.00159185      2.20467 
         -50      25.0334      1.00004   0.00159117      2.20461 
         -50      25.3415      1.00005   0.00159155      2.20454 
         -50      25.6514      1.00006    0.0015917      2.20448 
         -50      25.9634      1.00005   0.00159146      2.20441 
         -50      26.2771      1.00005   0.00159223      2.20434 
         -50      26.5927      1.00004   0.00159285      2.20428 
         -50      26.9102      1.00004   0.00159312      2.20421 
         -50      27.2297      1.00004   0.00159302      2.20414 
         -50       27.551      1.00004   0.00159267      2.20407 
         -50      27.8741      1.00004   0.00159223        2.204 
         -50      28.1991      1.00004   0.00159184      2.20393 
         -50      28.5262      1.00004    0.0015916      2.20386 
         -50       28.855      1.00004   0.00159152      2.20379 
         -50      29.1856      1.00004   0.00159154      2.20372 
         -50      29.5183      1.00004   0.00159152      2.20365 
         -50      29.8528      1.00004   0.00159135      2.20358 
         -50      30.1891      1.00004   0.00159096      2.20351 
         -50      30.5273      1.00004    0.0015905      2.20344 
         -50      30.8676      1.00004   0.00159036      2.20336 
         -50      31.2096      1.00004   0.00159024      2.20329 
         -50      31.5534      1.00004   0.00159035      2.20322 
         -50      31.8992      1.00004   0.00159043      2.20314 
         -50      32.2469      1.00004   0.00159036      2.20307 
         -50      32.5965      1.00004   0.00159017        2.203 
         -50      32.9479      1.00004   0.00158991      2.20292 
         -50      33.3012      1.00004    0.0015897      2.20285 
         -50      33.6565      1.00004   0.00158961      2.20277 
         -50      34.0135      1.00004   0.00158971       2.2027 
         -50      34.3725      1.00004      0.00159      2.20262 
         -50      34.7334      1.00004   0.00159043      2.20255 
         -50      35.0962      1.00004   0.00159092      2.20247 
         -50      35.4608      1.00004   0.00159132      2.20239 
         -50      35.8272      1.00004   0.00159151      2.20232 
         -50      36.1957      1.00004   0.00159142      2.20224 
         -50       36.566      1.00004   0.00159109      2.20216 
         -50      36.9381      1.00004   0.00159071      2.20209 
         -50      37.3121      1.00003   0.00159268      2.20201 
         -50      37.6882      1.00003   0.00159138      2.20193 
         -50       38.066      1.00003   0.00159061      2.20185 
         -50      38.4456      1.00003   0.00159012      2.20177 
         -50      38.8272      1.00003   0.00159012       2.2017 
         -50      39.2108      1.00003   0.00159072      2.20162 
         -50      39.5961      1.00003   0.00159163      2.20154 
         -50      39.9833      1.00003   0.00159222      2.20146 
         -50      40.3724      1.00003   0.00159248      2.20138 
         -50      40.7635      1.00003   0.00159246       2.2013 
         -50      41.1564      1.00003   0.00159228      2.20122 
         -50      41.5511      1.00003   0.00159203      2.20114 
         -50      41.9479      1.00003   0.00159185      2.20106 
         -50      42.3464      1.00003   0.00159184      2.20098 
         -50      42.7468      1.00003   0.00159207       2.2009 
         -50      43.1491      1.00003   0.00159255      2.20082 
         -50      43.5534      1.00003    0.0015932      2.20074 
         -50      43.9595      1.00003   0.00159384      2.20066 
         -50      44.3674      1.00003   0.00159413      2.20058 
         -50      44.7772      1.00003   0.00159357       2.2005 
         -50      45.1891      1.00003   0.00159394      2.20041 
         -50      45.6027      1.00003   0.00159473      2.20033 
         -50      46.0181      1.00003   0.00159499      2.20025 
         -50      46.4355      1.00002   0.00159515      2.20017 
         -50      46.8549      1.00002   0.00159536      2.20009 
         -50       47.276      1.00002   0.00159557      2.20001 
         -50       47.699      1.00002   0.00159572      2.19993 
         -50      48.1241      1.00002   0.00159595      2.19984 
         -50      48.5508      1.00002   0.00159601      2.19976 
         -50      48.9795      1.00002   0.00159623      2.19967 
         -50        49.41      1.00002   0.00159668      2.19959 
         -50      49.8426      1.00002   0.00159718      2.19951 
         -50      50.2769      1.00002    0.0015974      2.19943 
         -50      50.7131      1.00003   0.00159709      2.19936 
         -50      51.1512      1.00003   0.00159638      2.19929 
         -50      51.5914      1.00003   0.00159622      2.19923 
         -50      52.0332      1.00003   0.00159643      2.19915 
         -50      52.4769      1.00003   0.00159576      2.19905 
         -50      52.9225      1.00002   0.00159631      2.19894 
         -50      53.3702      1.00002   0.00159732      2.19883 
         -50      53.8196      1.00002    0.0015981       2.1987 
         -50      54.2709      1.00002   0.00159842      2.19858 
         -50      54.7242      1.00002   0.00159873      2.19848 
         -50      55.1792      1.00002   0.00159883      2.19839 
         -50      55.6362      1.00002   0.00159875      2.19831 
         -50       56.095      1.00002   0.00159859      2.19823 
         -50      56.5558      1.00002   0.00159848      2.19815 
         -50      57.0184      1.00003   0.00159851      2.19806 
         -50      57.4829      1.00003   0.00159873      2.19798 
         -50      57.9492      1.00003   0.00159912      2.19788 
         -50      58.4176      1.00003    0.0015996      2.19778 
         -50      58.8877      1.00002   0.00160006      2.19768 
         -50      59.3597      1.00002   0.00160035      2.19757 
         -50      59.8336      1.00002   0.00160035      2.19746 
         -50      60.3096      1.00002   0.00160005      2.19735 
         -50      60.7872      1.00002   0.00159964      2.19724 
         -50      61.2667      1.00002   0.00159955      2.19714 
         -50      61.7484      1.00002    0.0016007      2.19703 
         -50      62.2317      1.00003   0.00160103      2.19694 
         -50      62.7168      1.00003   0.00160004      2.19683 
         -50      63.2039      1.00003   0.00160036       2.1967 
         -50      63.6931      1.00003   0.00160125      2.19656 
         -50      64.1839      1.00003   0.00160218      2.19642 
         -50      64.6766      1.00002   0.00160287      2.19629 
         -50      65.1712      1.00002   0.00160319      2.19618 
         -50      65.6679      1.00002   0.00160314      2.19607 
         -50      66.1663      1.00002   0.00160279      2.19598 
         -50      66.6665      1.00002   0.00160228      2.19589 
         -50      67.1687      1.00002   0.00160177      2.19582 
         -50      67.6729      1.00002   0.00160139      2.19574 
         -50      68.1788      1.00003   0.00160126      2.19567 
         -50      68.6866      1.00003   0.00160144      2.19559 
         -50      69.1963      1.00003   0.00160192      2.19552 
         -50      69.7081      1.00003   0.00160264      2.19544 
         -50      70.2215      1.00003   0.00160343      2.19536 
         -50      70.7368      1.00003    0.0016041      2.19529 
         -50      71.2543      1.00003   0.00160439      2.19524 
         -50      71.7734      1.00003   0.00160399      2.19523 
         -50      72.2943      1.00003   0.00160263      2.19527 
         -50      72.8172      1.00003   0.00160136      2.19537 
         -50      73.3422      1.00003   0.00160332       2.1954 
         -50      73.8688      1.00003   0.00160465      2.19538 
         -50      74.3973      1.00002   0.00160508      2.19531 
         -50      74.9277            1   0.00160428      2.19516 
         -50      75.4602            0            0            0 
         -50      75.9944            0            0            0 
         -50      76.5305            0            0            0 
         -50      77.0684            0            0            0 
         -50      77.6084            0            0            0 
         -50      78.1502            0            0            0 
         -50      78.6937            0            0            0 
         -50      79.2394            0            0            0 
         -50      79.7868            0            0            0 
         -50      80.3361            0            0            0 
         -50      80.8872            0            0            0 
         -50      81.4404            0            0            0 
         -50      81.9953            0            0            0 
         -50      82.5521            0            0            0 
         -50      83.1108            0            0            0 
         -50      83.6715            0            0            0 
         -50       84.234            0            0            0 
         -50      84.7983            0            0            0 
         -50      85.3645            0            0            0 
         -50      85.9328            0            0            0 
         -50      86.5028            0            0            0 
         -50      87.0747            0            0            0 
         -50      87.6486            0            0            0 
         -50      88.2243            0            0            0 
         -50      88.8018            0            0            0 
         -50      89.3812            0            0            0 
         -50      89.9627            0            0            0 
         -50      90.5458            0            0            0 
         -50      91.1309            0            0            0 
         -50      91.7178            0            0            0 
         -50      92.3069            0            0            0 
         -50      92.8976            0            0            0 
         -50      93.4901            0            0            0 
         -50      94.0846            0            0            0 
         -50      94.6812            0            0            0 
         -50      95.2794            0            0            0 
         -50      95.8796            0            0            0 
         -50      96.4818            0            0            0 
         -50      97.0857            0            0            0 
         -50      97.6915            0            0            0 
         -50      98.2991            0            0            0 
         -50      98.9089            0            0            0 
         -50      99.5203            0            0            0 
         -50      100.134            0            0            0 
         -50      100.749            0            0            0 
         -50      101.366            0            0            0 
         -50      101.985            0            0            0 
         -50      102.606            0            0            0 
         -50      103.229            0            0            0 
         -50      103.854            0            0            0 
         -50       104.48            0            0            0 
         -50      105.108            0            0            0 
         -50      105.739            0            0            0 
         -50      106.371            0            0            0 
         -50      107.005            0            0            0 
         -50      107.641            0            0            0 
         -50      108.279            0            0            0 
         -50      108.919            0            0            0 
         -50       109.56            0            0            0 
         -50      110.204            0            0            0 
         -50      110.849            0            0            0 
         -50      111.497            0            0            0 
         -50      112.146            0            0            0 
         -50      112.797            0            0            0 
         -50       113.45            0            0            0 
         -50      114.105            0            0            0 
         -50      114.761            0            0            0 
         -50       115.42            0            0            0 
         -50      116.081            0            0            0 
         -50      116.743            0            0            0 
         -50      117.407            0            0            0 
         -50      118.073            0            0            0 
         -50      118.741            0            0            0 
         -50      119.411            0            0            0 
         -50      120.083            0            0            0 
         -50      120.757            0            0            0 
         -50      121.432            0            0            0 
         -50       122.11            0            0            0 
         -50      122.789            0            0            0 
         -50       123.47            0            0            0 
         -50      124.153            0            0            0 
         -50      124.838            0            0            0 
         -50      125.525            0            0            0 
         -50      126.214            0            0            0 
         -50      126.905            0            0            0 
         -50      127.597            0            0            0 
         -50      128.292            0            0            0 
         -50      128.988            0            0            0 
         -50      129.686            0            0            0 
         -50      130.386            0            0            0 
         -50      131.088            0            0            0 
         -50      131.792            0            0            0 
         -50      132.497            0            0            0 
         -50      133.205            0            0            0 
         -50      133.915            0            0            0 
         -50      134.626            0            0            0 
         -50      135.339            0            0            0 
         -50      136.054            0            0            0 
         -50      136.771            0            0            0 
         -50       137.49            0            0            0 
         -50      138.211            0            0            0 
         -50      138.934            0            0            0 
         -50      139.658            0            0            0 
         -50      140.385            0            0            0 
         -50      141.113            0            0            0 
         -50      141.843            0            0            0 
         -50      142.575            0            0            0 
         -50      143.309            0            0            0 
         -50      144.045            0            0            0 
         -50      144.783            0            0            0 
         -50      145.523            0            0            0 
         -50      146.264            0            0            0 
         -50      147.007            0            0            0 
         -50      147.753            0            0            0 
         -50        148.5            0            0            0 
         -50      149.249            0            0            0 
         -50          150            0            0            0 
         -25            0  2.80741e-18 -8.64946e-26      2.19255 
         -25     0.000942  0.000570927  4.45846e-10      2.19255 
         -25     0.003768   0.00227584   7.3085e-09      2.19255 
         -25     0.008478     0.005099  3.69233e-08      2.19255 
         -25     0.015075   0.00903438  1.15938e-07      2.19255 
         -25     0.023553    0.0140851  2.80684e-07      2.19255 
         -25     0.033916    0.0202632   5.7724e-07      2.19255 
         -25     0.046163    0.0275639  1.06106e-06      2.19255 
         -25       0.0603    0.0359813  1.79662e-06      2.19255 
         -25     0.076315    0.0455216  2.85469e-06      2.19255 
         -25     0.094215     0.056178  4.31509e-06      2.19255 
         -25     0.113999    0.0679555  6.26505e-06      2.19255 
         -25     0.135675    0.0808553  8.79984e-06      2.19255 
         -25     0.159228    0.0948675  1.20207e-05      2.19255 
         -25     0.184664     0.109993  1.60397e-05      2.19255 
         -25     0.211985      0.12623  2.09777e-05      2.19255 
         -25     0.241201     0.143579  2.69677e-05      2.19255 
         -25      0.27229     0.162022  3.41488e-05      2.19255 
         -25     0.305263     0.181558  4.26692e-05      2.19255 
         -25     0.340135     0.202183  5.27013e-05      2.19255 
         -25     0.376877     0.223868  6.44088e-05      2.19255 
         -25     0.415503     0.246604  7.79704e-05      2.19255 
         -25     0.456013     0.270367  9.35666e-05      2.19255 
         -25     0.498424      0.29514  0.000111392      2.19255 
         -25     0.542703     0.320868  0.000131621      2.19255 
         -25     0.588866     0.347518  0.000154437      2.19255 
         -25     0.636912     0.375038  0.000179975      2.19255 
         -25     0.686864     0.403378  0.000208502      2.19255 
         -25     0.738679      0.43244  0.000240113      2.19255 
         -25     0.792379     0.462149  0.000274893      2.19255 
         -25     0.847962     0.492404  0.000312898      2.19255 
         -25     0.905453       0.5231  0.000354178      2.19255 
         -25     0.964806     0.554083  0.000398688      2.19255 
         -25      1.02604     0.585215  0.000446373      2.19255 
         -25      1.08919     0.616347  0.000497111      2.19255 
         -25      1.15419     0.647279  0.000550631      2.19255 
         -25      1.22108     0.677832  0.000606634      2.19255 
         -25      1.28985     0.707809  0.000664719      2.19255 
         -25      1.36054     0.737016  0.000724454      2.19255 
         -25      1.43308     0.765224  0.000785339      2.19255 
         -25      1.50751     0.792241  0.000847027      2.19255 
         -25      1.58382      0.81787  0.000908027      2.19255 
         -25      1.66204     0.841963  0.000968507      2.19255 
         -25      1.74212     0.864339   0.00102746      2.19255 
         -25      1.82409     0.884883   0.00108405      2.19255 
         -25      1.90793     0.903509   0.00113755      2.19255 
         -25       1.9937     0.920183    0.0011874      2.19255 
         -25      2.08131     0.934887   0.00123311      2.19255 
         -25      2.17081     0.947668   0.00127441      2.19255 
         -25      2.26223     0.958605   0.00131115      2.19255 
         -25       2.3555     0.967798    0.0013433      2.19255 
         -25      2.45065     0.975389   0.00137098      2.19255 
         -25      2.54769     0.981536   0.00139442      2.19255 