Variables = x, y, u, v, p

Zone, I=6400, F=POINT
         -50            0            0            0      120.779 
         -50     0.000471  3.50262e-05  3.08121e-09      120.779 
         -50     0.001884  0.000123575  1.18934e-08      120.779 
         -50     0.004239  0.000224829  2.53776e-08      120.779 
         -50     0.007537  0.000295563  4.24407e-08      120.779 
         -50     0.011776  0.000313589  6.25727e-08      120.779 
         -50     0.016958  0.000289512  8.62078e-08      120.779 
         -50     0.023081  0.000257844  1.14463e-07      120.779 
         -50      0.03015  0.000250443  1.48483e-07      120.779 
         -50     0.038157  0.000268992  1.88564e-07      120.779 
         -50     0.047107  0.000282399   2.3413e-07      120.779 
         -50     0.056999  0.000266395  2.84546e-07      120.779 
         -50     0.067837  0.000257306  3.40495e-07      120.779 
         -50     0.079614  0.000284674  4.02174e-07      120.779 
         -50     0.092332  0.000268554  4.66654e-07      120.779 
         -50     0.105992   0.00027269  5.33955e-07      120.779 
         -50       0.1206  0.000272504  6.02432e-07      120.779 
         -50     0.136145  0.000272806  6.70505e-07      120.779 
         -50     0.152631  0.000274829  7.36297e-07      120.779 
         -50     0.170067  0.000277412  7.98378e-07      120.779 
         -50     0.188438  0.000279136  8.56639e-07      120.779 
         -50     0.207751  0.000280417  9.13189e-07      120.779 
         -50     0.228006  0.000283342   9.7195e-07      120.779 
         -50     0.249212  0.000285615  1.03614e-06      120.779 
         -50     0.271351    0.0002886  1.11111e-06      120.779 
         -50     0.294433  0.000291651  1.20988e-06      120.779 
         -50     0.318456   0.00029469  1.31959e-06      120.779 
         -50     0.343432  0.000297808  1.42293e-06      120.779 
         -50     0.369339  0.000301019  1.50122e-06      120.779 
         -50     0.396189  0.000304287  1.53856e-06      120.779 
         -50     0.423981  0.000307539  1.52574e-06      120.779 
         -50     0.452726    0.0003107  1.46397e-06      120.779 
         -50     0.482403   0.00031371  1.36696e-06      120.779 
         -50     0.513021  0.000316551  1.25941e-06      120.779 
         -50     0.544594  0.000319237  1.17004e-06      120.779 
         -50     0.577096  0.000321756  1.11612e-06      120.779 
         -50     0.610541  0.000323975  1.07214e-06      120.779 
         -50     0.644927   0.00032596  9.65858e-07      120.779 
         -50      0.68027   0.00032773  8.70001e-07      120.779 
         -50     0.716541  0.000329241   7.5871e-07      120.779 
         -50     0.753754  0.000330465  6.18711e-07      120.779 
         -50     0.791909  0.000331386  4.48392e-07      120.778 
         -50     0.831022     0.000332   2.5581e-07      120.778 
         -50     0.871061  0.000332316  5.63757e-08      120.778 
         -50     0.912043  0.000332355 -1.30913e-07      120.778 
         -50     0.953966  0.000332145 -2.86889e-07      120.778 
         -50     0.996849  0.000331721 -3.96292e-07      120.778 
         -50      1.04066   0.00033112 -4.51325e-07      120.778 
         -50      1.08541  0.000330378 -4.54997e-07      120.778 
         -50      1.13112  0.000329528 -4.22626e-07      120.778 
         -50      1.17775  0.000328593 -3.81579e-07      120.778 
         -50      1.22533  0.000327582 -3.67693e-07      120.778 
         -50      1.27384  0.000326489 -4.17564e-07      120.778 
         -50      1.32333   0.00032529 -5.55189e-07      120.778 
         -50      1.37373  0.000323943 -7.70926e-07      120.777 
         -50      1.42507  0.000322389 -9.91759e-07      120.777 
         -50      1.47736  0.000320557 -1.03955e-06      120.777 
         -50      1.53061  0.000316849 -8.37028e-07      120.777 
         -50      1.58478  0.000310807 -8.27817e-07      120.777 
         -50      1.63989  0.000304648 -8.64355e-07      120.777 
         -50      1.69595  0.000298793 -8.81461e-07      120.777 
         -50      1.75297  0.000293553  -8.3539e-07      120.777 
         -50      1.81091  0.000289144 -7.03272e-07      120.776 
         -50      1.86979  0.000285675 -4.81814e-07      120.776 
         -50      1.92964  0.000283165 -1.85411e-07      120.776 
         -50       1.9904  0.000281553  1.55641e-07      120.776 
         -50      2.05211  0.000280702  4.98761e-07      120.776 
         -50      2.11476  0.000280424  7.91917e-07      120.775 
         -50      2.17838  0.000280488  9.77549e-07      120.775 
         -50      2.24291   0.00028064  9.96413e-07      120.775 
         -50      2.30839  0.000280624  7.92385e-07      120.775 
         -50       2.3748  0.000280204  3.16537e-07      120.775 
         -50      2.44219  0.000279175 -4.68709e-07      120.774 
         -50      2.51049  0.000277393 -1.58407e-06      120.774 
         -50      2.57974  0.000274783 -3.03158e-06      120.774 
         -50      2.64993  0.000271356 -4.79038e-06      120.773 
         -50      2.72108  0.000267219 -6.81601e-06      120.773 
         -50      2.79315  0.000262579  -9.0363e-06      120.773 
         -50      2.86617  0.000257731 -1.13575e-05      120.773 
         -50      2.94012  0.000253051 -1.36644e-05      120.772 
         -50      3.01505  0.000248961  -1.5828e-05      120.772 
         -50      3.09089  0.000245897 -1.77114e-05      120.771 
         -50      3.16767  0.000244237 -1.91882e-05      120.771 
         -50      3.24542  0.000244225 -2.01571e-05      120.771 
         -50      3.32409  0.000245864 -2.05645e-05       120.77 
         -50       3.4037  0.000248783 -2.04361e-05       120.77 
         -50      3.48425  0.000252065 -1.99117e-05      120.769 
         -50      3.56577  0.000254047 -1.92898e-05      120.769 
         -50       3.6482  0.000252062  -1.9083e-05      120.769 
         -50      3.73158  0.000242153 -2.00803e-05      120.768 
         -50       3.8159  0.000238202 -1.91117e-05      120.768 
         -50      3.90119  0.000239711 -1.83083e-05      120.767 
         -50       3.9874  0.000242241 -1.95448e-05      120.767 
         -50      4.07454   0.00024498 -2.03614e-05      120.766 
         -50      4.16263  0.000247536  -2.0812e-05      120.765 
         -50      4.25169  0.000249672 -2.10021e-05      120.765 
         -50      4.34166  0.000251273 -2.10366e-05      120.764 
         -50      4.43258  0.000252328 -2.10082e-05      120.764 
         -50      4.52447    0.0002529 -2.09871e-05      120.763 
         -50      4.61726  0.000253099 -2.10133e-05      120.762 
         -50        4.711  0.000253058 -2.10926e-05      120.762 
         -50      4.80569  0.000252909 -2.11961e-05      120.761 
         -50      4.90135  0.000252762 -2.12652e-05       120.76 
         -50      4.99791  0.000252685 -2.12223e-05      120.759 
         -50      5.09542   0.00025269 -2.09894e-05      120.759 
         -50      5.19387  0.000252728  -2.0514e-05      120.758 
         -50       5.2933  0.000252686 -1.98058e-05      120.757 
         -50      5.39364  0.000252397  -1.8985e-05      120.756 
         -50      5.49491  0.000251656 -1.83412e-05      120.755 
         -50      5.59713  0.000250255 -1.84094e-05      120.755 
         -50      5.70033  0.000249733 -1.90371e-05      120.754 
         -50      5.80443  0.000251129 -1.85053e-05      120.753 
         -50      5.90948  0.000251314 -1.82047e-05      120.752 
         -50      6.01551  0.000251022 -1.80238e-05      120.751 
         -50      6.12244  0.000250727  -1.7844e-05       120.75 
         -50      6.23031  0.000250678 -1.75563e-05      120.749 
         -50      6.33912  0.000250929  -1.7091e-05      120.748 
         -50      6.44892  0.000251395 -1.64635e-05      120.747 
         -50      6.55962  0.000251904 -1.58388e-05      120.746 
         -50      6.67126  0.000252272 -1.56148e-05      120.744 
         -50      6.78384  0.000252372 -1.63117e-05      120.743 
         -50      6.89741  0.000251915 -1.40991e-05      120.742 
         -50      7.01187  0.000251331 -1.31819e-05      120.741 
         -50      7.12728  0.000250945 -1.30224e-05       120.74 
         -50      7.24363  0.000250932 -1.31659e-05      120.738 
         -50      7.36097  0.000251313 -1.32523e-05      120.737 
         -50       7.4792  0.000251976 -1.30287e-05      120.736 
         -50      7.59838  0.000252703 -1.23604e-05      120.734 
         -50      7.71854  0.000253221 -1.12399e-05      120.733 
         -50       7.8396   0.00025326 -9.79645e-06      120.732 
         -50      7.96161  0.000252648 -8.29897e-06       120.73 
         -50      8.08455  0.000251416 -7.16043e-06      120.729 
         -50      8.20849  0.000249935 -6.93774e-06      120.727 
         -50      8.33332  0.000250475 -6.49729e-06      120.725 
         -50      8.45909  0.000252239  -4.7929e-06      120.724 
         -50       8.5858   0.00025298 -3.68878e-06      120.722 
         -50      8.71351  0.000253113   -2.897e-06      120.721 
         -50       8.8421  0.000252935  -2.2052e-06      120.719 
         -50      8.97164  0.000252645 -1.46559e-06      120.717 
         -50      9.10212  0.000252361 -5.87391e-07      120.715 
         -50       9.2336  0.000252137  4.71931e-07      120.714 
         -50      9.36596  0.000251985  1.71205e-06      120.712 
         -50      9.49927  0.000251891   3.0982e-06       120.71 
         -50      9.63352  0.000251832  4.56388e-06      120.708 
         -50      9.76877  0.000251794  6.01439e-06      120.706 
         -50       9.9049  0.000251785  7.32494e-06      120.704 
         -50       10.042  0.000251853   8.3421e-06      120.702 
         -50      10.1801  0.000252091  8.87655e-06        120.7 
         -50       10.319  0.000252651  8.69473e-06      120.698 
         -50      10.4589  0.000251943  8.69598e-06      120.696 
         -50      10.5998  0.000251147  8.88053e-06      120.694 
         -50      10.7416   0.00025095   9.3482e-06      120.691 
         -50      10.8843  0.000251243  1.02574e-05      120.689 
         -50       11.028   0.00025166   1.1344e-05      120.687 
         -50      11.1726  0.000251462  1.17541e-05      120.684 
         -50      11.3182  0.000249378  9.84955e-06      120.682 
         -50      11.4647  0.000250134   1.1228e-05       120.68 
         -50      11.6122  0.000250674  1.24521e-05      120.677 
         -50      11.7605  0.000250722  1.31331e-05      120.675 
         -50      11.9099  0.000250526  1.34628e-05      120.672 
         -50      12.0602  0.000250263  1.34956e-05      120.669 
         -50      12.2114  0.000250048  1.31522e-05      120.667 
         -50      12.3636  0.000249977  1.22855e-05      120.664 
         -50      12.5167  0.000250636  1.33574e-05      120.661 
         -50      12.6707  0.000250864   1.4103e-05      120.659 
         -50      12.8257  0.000250715  1.46154e-05      120.656 
         -50      12.9817  0.000250255   1.4975e-05      120.653 
         -50      13.1386  0.000249565  1.52496e-05       120.65 
         -50      13.2964  0.000248737  1.54948e-05      120.647 
         -50      13.4551  0.000247873  1.57545e-05      120.644 
         -50      13.6149  0.000247078  1.60612e-05      120.641 
         -50      13.7755  0.000246454  1.64367e-05      120.638 
         -50      13.9371  0.000246091  1.68943e-05      120.635 
         -50      14.0996  0.000246053  1.74391e-05      120.632 
         -50      14.2631   0.00024637  1.80707e-05      120.628 
         -50      14.4275  0.000247014  1.87843e-05      120.625 
         -50      14.5928  0.000247885  1.95744e-05      120.622 
         -50      14.7592  0.000248785  2.04371e-05      120.618 
         -50      14.9264   0.00024939  2.13726e-05      120.615 
         -50      15.0946  0.000249225   2.2391e-05      120.611 
         -50      15.2637  0.000247622  2.35149e-05      120.608 
         -50      15.4338  0.000243685  2.47855e-05      120.604 
         -50      15.6048  0.000242743  2.48515e-05      120.601 
         -50      15.7767  0.000244444  2.49879e-05      120.597 
         -50      15.9496  0.000245501  2.57905e-05      120.593 
         -50      16.1235    0.0002459  2.69143e-05       120.59 
         -50      16.2982  0.000245726   2.8107e-05      120.586 
         -50      16.4739  0.000245133  2.91989e-05      120.582 
         -50      16.6506  0.000244309  3.00882e-05      120.578 
         -50      16.8282   0.00024344  3.07295e-05      120.574 
         -50      17.0068  0.000242689  3.11214e-05       120.57 
         -50      17.1862   0.00024217  3.12967e-05      120.566 
         -50      17.3667  0.000241933  3.13115e-05      120.562 
         -50      17.5481  0.000241955  3.12366e-05      120.558 
         -50      17.7304   0.00024213  3.11497e-05      120.553 
         -50      17.9136   0.00024228  3.11294e-05      120.549 
         -50      18.0979  0.000242162  3.12504e-05      120.545 
         -50       18.283  0.000241492  3.15809e-05       120.54 
         -50      18.4691  0.000239975  3.21823e-05      120.536 
         -50      18.6561  0.000237502  3.29699e-05      120.531 
         -50      18.8441  0.000236937  3.22502e-05      120.527 
         -50       19.033   0.00023667  3.23802e-05      120.522 
         -50      19.2228  0.000236874  3.30823e-05      120.518 
         -50      19.4136  0.000237582  3.40432e-05      120.513 
         -50      19.6054  0.000238584  3.49521e-05      120.508 
         -50       19.798  0.000239287  3.55463e-05      120.504 
         -50      19.9917  0.000238572  3.56689e-05      120.499 
         -50      20.1862  0.000236256  3.60345e-05      120.494 
         -50      20.3818  0.000234959  3.65434e-05      120.489 
         -50      20.5782  0.000234378  3.69173e-05      120.484 
         -50      20.7756  0.000234187  3.71912e-05      120.479 
         -50       20.974  0.000234156  3.74003e-05      120.474 
         -50      21.1732  0.000234139  3.75776e-05      120.469 
         -50      21.3734  0.000234049  3.77533e-05      120.464 
         -50      21.5745   0.00023385  3.79521e-05      120.458 
         -50      21.7767  0.000233541  3.81926e-05      120.453 
         -50      21.9797  0.000233141  3.84862e-05      120.448 
         -50      22.1837  0.000232683  3.88367e-05      120.442 
         -50      22.3886  0.000232198  3.92403e-05      120.437 
         -50      22.5945  0.000231715  3.96859e-05      120.432 
         -50      22.8013  0.000231248  4.01557e-05      120.426 
         -50      23.0091  0.000230798  4.06274e-05       120.42 
         -50      23.2177  0.000230353  4.10758e-05      120.415 
         -50      23.4274  0.000229886  4.14758e-05      120.409 
         -50       23.638  0.000229366  4.18053e-05      120.404 
         -50      23.8495  0.000228763  4.20502e-05      120.398 
         -50       24.062  0.000228065  4.22091e-05      120.392 
         -50      24.2754  0.000227292   4.2299e-05      120.386 
         -50      24.4897  0.000226519  4.23627e-05       120.38 
         -50       24.705    0.0002259  4.24764e-05      120.374 
         -50      24.9213  0.000225705  4.27589e-05      120.368 
         -50      25.1385  0.000226351  4.33813e-05      120.362 
         -50      25.3566  0.000228138   4.4601e-05      120.356 
         -50      25.5756  0.000233972  4.57258e-05       120.35 
         -50      25.7957  0.000230946  4.56389e-05      120.344 
         -50      26.0166  0.000229705  4.50544e-05      120.338 
         -50      26.2385  0.000227356  4.50339e-05      120.332 
         -50      26.4613  0.000224547   4.5225e-05      120.325 
         -50      26.6851  0.000221771  4.54202e-05      120.319 
         -50      26.9098   0.00021938  4.55232e-05      120.313 
         -50      27.1354  0.000217587  4.55179e-05      120.306 
         -50      27.3621   0.00021649  4.54404e-05        120.3 
         -50      27.5896  0.000216083  4.53538e-05      120.294 
         -50      27.8181  0.000216269  4.53266e-05      120.287 
         -50      28.0475  0.000216885  4.54158e-05      120.281 
         -50      28.2779  0.000217721  4.56538e-05      120.274 
         -50      28.5092  0.000218545  4.60396e-05      120.267 
         -50      28.7414  0.000219125  4.65372e-05      120.261 
         -50      28.9746  0.000219265  4.70783e-05      120.254 
         -50      29.2088   0.00021883  4.75714e-05      120.247 
         -50      29.4439  0.000217784  4.79185e-05      120.241 
         -50      29.6799  0.000216224  4.80389e-05      120.234 
         -50      29.9168  0.000214426  4.79012e-05      120.227 
         -50      30.1548  0.000212883  4.75629e-05       120.22 
         -50      30.3936  0.000212356  4.72212e-05      120.213 
         -50      30.6334  0.000213922  4.72713e-05      120.206 
         -50      30.8742  0.000217381    4.795e-05      120.199 
         -50      31.1158  0.000215028  4.74382e-05      120.192 
         -50      31.3584  0.000212593  4.70433e-05      120.186 
         -50       31.602  0.000210465  4.67554e-05      120.178 
         -50      31.8465  0.000208847  4.65612e-05      120.171 
         -50      32.0919    0.0002078  4.64459e-05      120.164 
         -50      32.3383  0.000207279  4.63938e-05      120.157 
         -50      32.5856  0.000207166  4.63897e-05       120.15 
         -50       32.834  0.000207305  4.64198e-05      120.143 
         -50      33.0831  0.000207529  4.64722e-05      120.136 
         -50      33.3333  0.000207683  4.65375e-05      120.129 
         -50      33.5843  0.000207643  4.66092e-05      120.122 
         -50      33.8364  0.000207333  4.66834e-05      120.114 
         -50      34.0894  0.000206734  4.67589e-05      120.107 
         -50      34.3433  0.000205883  4.68364e-05        120.1 
         -50      34.5981  0.000204877  4.69179e-05      120.093 
         -50       34.854  0.000203858  4.70052e-05      120.085 
         -50      35.1107     0.000203  4.70988e-05      120.078 
         -50      35.3684  0.000202482  4.71957e-05      120.071 
         -50      35.6271  0.000202455  4.72873e-05      120.063 
         -50      35.8867  0.000203002  4.73563e-05      120.056 
         -50      36.1472  0.000204084  4.73741e-05      120.049 
         -50      36.4086  0.000205479  4.72968e-05      120.041 
         -50      36.6711  0.000206369  4.68539e-05      120.034 
         -50      36.9344  0.000204691  4.59129e-05      120.026 
         -50      37.1987   0.00020129  4.57887e-05      120.019 
         -50      37.4639  0.000198699  4.50935e-05      120.012 
         -50      37.7301  0.000198018  4.60745e-05      120.004 
         -50      37.9972  0.000198015  4.69495e-05      119.997 
         -50      38.2652  0.000198236  4.71002e-05      119.989 
         -50      38.5342  0.000198419  4.67958e-05      119.982 
         -50      38.8042  0.000198384  4.62445e-05      119.975 
         -50      39.0751  0.000198022  4.56017e-05      119.967 
         -50      39.3469  0.000196764   4.4963e-05       119.96 
         -50      39.6197  0.000195377  4.44786e-05      119.952 
         -50      39.8934  0.000194041  4.41529e-05      119.945 
         -50       40.168  0.000192796  4.39572e-05      119.938 
         -50      40.4436  0.000191671  4.38495e-05       119.93 
         -50      40.7202  0.000190682   4.3783e-05      119.923 
         -50      40.9977  0.000189835  4.37127e-05      119.915 
         -50      41.2761  0.000189127  4.36016e-05      119.908 
         -50      41.5554   0.00018855  4.34247e-05      119.901 
         -50      41.8358  0.000188089   4.3172e-05      119.893 
         -50       42.117  0.000187729  4.28502e-05      119.886 
         -50      42.3992  0.000187453  4.24817e-05      119.879 
         -50      42.6823  0.000187248  4.21027e-05      119.871 
         -50      42.9664  0.000187104  4.17589e-05      119.864 
         -50      43.2514   0.00018702  4.14997e-05      119.857 
         -50      43.5373  0.000187005  4.13687e-05      119.849 
         -50      43.8243  0.000187081  4.13938e-05      119.842 
         -50      44.1121  0.000187287  4.15731e-05      119.835 
         -50      44.4009  0.000187681  4.18591e-05      119.828 
         -50      44.6906  0.000188344  4.21399e-05      119.821 
         -50      44.9813  0.000188628  4.20269e-05      119.813 
         -50      45.2729  0.000184433  4.06469e-05      119.806 
         -50      45.5654  0.000182129  3.98476e-05      119.799 
         -50      45.8589  0.000181038  3.94242e-05      119.792 
         -50      46.1534  0.000180634  3.92205e-05      119.785 
         -50      46.4488  0.000180527  3.91248e-05      119.778 
         -50      46.7451  0.000180462  3.90653e-05      119.771 
         -50      47.0423    0.0001803  3.90067e-05      119.764 
         -50      47.3406  0.000180013  3.89458e-05      119.757 
         -50      47.6397  0.000179662  3.89076e-05       119.75 
         -50      47.9398   0.00017935  3.84849e-05      119.743 
         -50      48.2409  0.000178625  3.80234e-05      119.737 
         -50      48.5428  0.000177682  3.76137e-05       119.73 
         -50      48.8457  0.000176701  3.73083e-05      119.723 
         -50      49.1496  0.000175841  3.71157e-05      119.716 
         -50      49.4545  0.000175232  3.69997e-05       119.71 
         -50      49.7602   0.00017497  3.68884e-05      119.703 
         -50      50.0668  0.000175101  3.66926e-05      119.696 
         -50      50.3744  0.000175611  3.63342e-05       119.69 
         -50      50.6831  0.000176408  3.57846e-05      119.683 
         -50      50.9926  0.000177306  3.51167e-05      119.677 
         -50       51.303  0.000178003  3.45652e-05      119.671 
         -50      51.6144  0.000178056  3.46027e-05      119.664 
         -50      51.9268  0.000177752  3.50218e-05      119.658 
         -50        52.24  0.000178056  3.35201e-05      119.652 
         -50      52.5542  0.000176597  3.26465e-05      119.646 
         -50      52.8694  0.000174303  3.22257e-05      119.639 
         -50      53.1856  0.000172002  3.21116e-05      119.633 
         -50      53.5026  0.000170439  3.21829e-05      119.627 
         -50      53.8205  0.000170282    3.234e-05      119.621 
         -50      54.1396  0.000170952  3.23826e-05      119.615 
         -50      54.4594  0.000169135  3.20047e-05       119.61 
         -50      54.7802    0.0001683  3.15883e-05      119.604 
         -50      55.1019  0.000168166  3.10977e-05      119.598 
         -50      55.4247  0.000168477  3.05281e-05      119.593 
         -50      55.7483  0.000169014  2.98971e-05      119.587 
         -50      56.0729  0.000169592   2.9234e-05      119.581 
         -50      56.3984  0.000170071  2.85731e-05      119.576 
         -50       56.725  0.000170354  2.79467e-05      119.571 
         -50      57.0523  0.000170388  2.73809e-05      119.565 
         -50      57.3807  0.000170162  2.68904e-05       119.56 
         -50      57.7099  0.000169703  2.64767e-05      119.555 
         -50      58.0403   0.00016907  2.61273e-05       119.55 
         -50      58.3714  0.000168347  2.58171e-05      119.545 
         -50      58.7035  0.000167632  2.55103e-05       119.54 
         -50      59.0367   0.00016702  2.51649e-05      119.535 
         -50      59.3707  0.000166594  2.47402e-05       119.53 
         -50      59.7056  0.000166399  2.42047e-05      119.526 
         -50      60.0414  0.000166428  2.35469e-05      119.521 
         -50      60.3784   0.00016659  2.27885e-05      119.517 
         -50      60.7161  0.000166687  2.20013e-05      119.512 
         -50      61.0548   0.00016638  2.13233e-05      119.508 
         -50      61.3944  0.000165159  2.09812e-05      119.504 
         -50      61.7351  0.000162297  2.13139e-05      119.499 
         -50      62.0767  0.000161296  2.18648e-05      119.495 
         -50      62.4191   0.00017045  2.01174e-05      119.491 
         -50      62.7625  0.000173636  1.90282e-05      119.487 
         -50       63.107  0.000173121  1.83827e-05      119.484 
         -50      63.4523  0.000170623  1.80096e-05       119.48 
         -50      63.7985  0.000167387  1.77754e-05      119.476 
         -50      64.1458  0.000164254  1.75805e-05      119.473 
         -50      64.4939  0.000161735  1.73553e-05      119.469 
         -50       64.843  0.000160071  1.70554e-05      119.466 
         -50      65.1929  0.000159299  1.66581e-05      119.463 
         -50       65.544  0.000159306  1.61579e-05       119.46 
         -50      65.8959   0.00015988  1.55638e-05      119.457 
         -50      66.2487  0.000160757  1.48944e-05      119.454 
         -50      66.6025  0.000161664  1.41753e-05      119.451 
         -50      66.9573   0.00016235  1.34351e-05      119.448 
         -50       67.313  0.000162616  1.27042e-05      119.446 
         -50      67.6695  0.000162335  1.20095e-05      119.443 
         -50      68.0271  0.000161469  1.13735e-05      119.441 
         -50      68.3857   0.00016007  1.08113e-05      119.439 
         -50      68.7451  0.000158285  1.03295e-05      119.437 
         -50      69.1055  0.000156338   9.9231e-06      119.435 
         -50      69.4669  0.000154516  9.57484e-06      119.433 
         -50      69.8291  0.000153139  9.25452e-06      119.431 
         -50      70.1923  0.000152515  8.91735e-06      119.429 
         -50      70.5564  0.000152898  8.50424e-06      119.428 
         -50      70.9217  0.000154422  7.94141e-06      119.426 
         -50      71.2877  0.000157028  7.14178e-06      119.425 
         -50      71.6546  0.000160382   6.0046e-06      119.424 
         -50      72.0225  0.000163775  4.41761e-06      119.422 
         -50      72.3915  0.000166014  2.25774e-06      119.421 
         -50      72.7613  0.000166891  6.68472e-08      119.421 
         -50       73.132  0.000171202  2.85443e-07       119.42 
         -50      73.5036  0.000170823  5.18944e-07       119.42 
         -50      73.8764  0.000160997  6.85933e-07      119.419 
         -50      74.2499  0.000135289  7.04518e-07      119.419 
         -50      74.6244   8.5244e-05  4.97996e-07      119.419 
         -50           75           -0  4.96139e-17      119.419 
         -25            0  3.05101e-19  6.50475e-24      117.453 
         -25     0.000471  2.98014e-05  6.53381e-10      117.453 
         -25     0.001884  0.000105131   2.5152e-09      117.453 
         -25     0.004239  0.000191231  5.35021e-09      117.453 
         -25     0.007537    0.0002513  8.93583e-09      117.453 
         -25     0.011776  0.000266448   1.3216e-08      117.453 
         -25     0.016958  0.000245712  1.83835e-08      117.453 
         -25     0.023081  0.000218492   2.4803e-08      117.453 
         -25      0.03015  0.000211919  3.28303e-08      117.453 
         -25     0.038157  0.000227436  4.25886e-08      117.453 
         -25     0.047107  0.000238563  5.39659e-08      117.453 
         -25     0.056999  0.000224633  6.68485e-08      117.453 
         -25     0.067837  0.000216572  8.14811e-08      117.453 
         -25     0.079614  0.000239533  9.79443e-08      117.453 
         -25     0.092332  0.000225426  1.15565e-07      117.453 
         -25     0.105992  0.000228521  1.34932e-07      117.453 
         -25       0.1206  0.000227877  1.55511e-07      117.453 
         -25     0.136145  0.000227581  1.77212e-07      117.453 
         -25     0.152631  0.000228673  2.00191e-07      117.453 
         -25     0.170067  0.000230156  2.24641e-07      117.453 
         -25     0.188438  0.000230823  2.50515e-07      117.453 
         -25     0.207751  0.000231027  2.77479e-07      117.453 
         -25     0.228006  0.000232554  3.05192e-07      117.453 
         -25     0.249212  0.000233464  3.34562e-07      117.453 
         -25     0.271351  0.000234935  3.62837e-07      117.453 
         -25     0.294433  0.000236443  3.88449e-07      117.453 
         -25     0.318456  0.000237944  4.10161e-07      117.453 
         -25     0.343432  0.000239542  4.28245e-07      117.453 
         -25     0.369339   0.00024128  4.44662e-07      117.453 
         -25     0.396189   0.00024316  4.63013e-07      117.453 
         -25     0.423981  0.000245154  4.88115e-07      117.453 
         -25     0.452726  0.000247228   5.2527e-07      117.453 
         -25     0.482403  0.000249368  5.78963e-07      117.453 
         -25     0.513021  0.000251584  6.51116e-07      117.453 
         -25     0.544594  0.000253909  7.38546e-07      117.453 
         -25     0.577096  0.000256346  8.29431e-07      117.453 
         -25     0.610541  0.000258779  8.97798e-07      117.453 
         -25     0.644927  0.000261301  9.40812e-07      117.453 
         -25      0.68027  0.000263881  1.01905e-06      117.453 
         -25     0.716541  0.000266494  1.11904e-06      117.453 
         -25     0.753754  0.000269108  1.23161e-06      117.453 
         -25     0.791909  0.000271689  1.35153e-06      117.453 
         -25     0.831022  0.000274196  1.47706e-06      117.453 
         -25     0.871061  0.000276583  1.60895e-06      117.453 
         -25     0.912043  0.000278805  1.74976e-06      117.453 
         -25     0.953966   0.00028082  1.90248e-06      117.453 
         -25     0.996849  0.000282589  2.06947e-06      117.453 
         -25      1.04066  0.000284077  2.25099e-06      117.453 
         -25      1.08541   0.00028526  2.44473e-06      117.453 
         -25      1.13112  0.000286122  2.64515e-06      117.453 
         -25      1.17775  0.000286655  2.84348e-06      117.453 
         -25      1.22533  0.000286859  3.02956e-06      117.453 
         -25      1.27384  0.000286738   3.1943e-06      117.453 