Variables = x, y, u, v, p

Zone, I=6400, F=POINT
         -50            0            0            0     -95.6472 
         -50     0.000471 -3.53837e-05 -1.59302e-09     -95.6472 
         -50     0.001884 -0.000125167 -6.34294e-09     -95.6472 
         -50     0.004239 -0.000228876 -1.41587e-08     -95.6472 
         -50     0.007537 -0.000303472 -2.48895e-08     -95.6472 
         -50     0.011776 -0.000326454 -3.83394e-08     -95.6472 
         -50     0.016958 -0.000307541 -5.43686e-08     -95.6472 
         -50     0.023081 -0.000280081  -7.3001e-08     -95.6472 
         -50      0.03015 -0.000275077 -9.46063e-08     -95.6472 
         -50     0.038157 -0.000294184 -1.19915e-07     -95.6472 
         -50     0.047107 -0.000307052 -1.49988e-07     -95.6472 
         -50     0.056999 -0.000290062 -1.85794e-07     -95.6472 
         -50     0.067837  -0.00027925 -2.27706e-07     -95.6472 
         -50     0.079614 -0.000305337 -2.75206e-07     -95.6472 
         -50     0.092332 -0.000288152 -3.29873e-07     -95.6472 
         -50     0.105992 -0.000290269 -3.93298e-07     -95.6472 
         -50       0.1206 -0.000288373 -4.66432e-07     -95.6472 
         -50     0.136145 -0.000286526  -5.5029e-07     -95.6472 
         -50     0.152631 -0.000285793 -6.45611e-07     -95.6472 
         -50     0.170067 -0.000285209 -7.52965e-07     -95.6472 
         -50     0.188438 -0.000283573  -8.7267e-07     -95.6472 
         -50     0.207751 -0.000281188 -1.00485e-06     -95.6472 
         -50     0.228006 -0.000279786 -1.14826e-06     -95.6472 
         -50     0.249212 -0.000277561 -1.29777e-06     -95.6472 
         -50     0.271351  -0.00027556 -1.44707e-06     -95.6472 
         -50     0.294433 -0.000273373 -1.59684e-06     -95.6472 
         -50     0.318456 -0.000270982 -1.73772e-06     -95.6472 
         -50     0.343432 -0.000268513 -1.86432e-06     -95.6472 
         -50     0.369339 -0.000266044 -1.97675e-06     -95.6471 
         -50     0.396189  -0.00026361 -2.08203e-06     -95.6471 
         -50     0.423981 -0.000261222 -2.19422e-06     -95.6471 
         -50     0.452726 -0.000258887 -2.33342e-06     -95.6471 
         -50     0.482403 -0.000256623 -2.52234e-06     -95.6471 
         -50     0.513021 -0.000254471 -2.78022e-06     -95.6471 
         -50     0.544594 -0.000252492 -3.11218e-06      -95.647 
         -50     0.577096 -0.000250728 -3.49216e-06      -95.647 
         -50     0.610541 -0.000249124 -3.84739e-06      -95.647 
         -50     0.644927 -0.000247738  -4.2786e-06      -95.647 
         -50      0.68027 -0.000246595 -4.66844e-06     -95.6469 
         -50     0.716541 -0.000245692 -5.02304e-06     -95.6469 
         -50     0.753754 -0.000245021 -5.34942e-06     -95.6469 
         -50     0.791909 -0.000244573 -5.65461e-06     -95.6468 
         -50     0.831022 -0.000244334 -5.94571e-06     -95.6468 
         -50     0.871061 -0.000244285 -6.22921e-06     -95.6468 
         -50     0.912043 -0.000244405 -6.51144e-06     -95.6467 
         -50     0.953966 -0.000244671 -6.79776e-06     -95.6467 
         -50     0.996849 -0.000245056 -7.09254e-06     -95.6466 
         -50      1.04066 -0.000245531 -7.39832e-06     -95.6466 
         -50      1.08541 -0.000246067 -7.71617e-06     -95.6465 
         -50      1.13112 -0.000246638 -8.04493e-06     -95.6464 
         -50      1.17775 -0.000247217 -8.38046e-06     -95.6464 
         -50      1.22533 -0.000247782 -8.71592e-06     -95.6463 
         -50      1.27384 -0.000248321 -9.04086e-06     -95.6462 
         -50      1.32333  -0.00024883 -9.34097e-06     -95.6462 
         -50      1.37373 -0.000249317 -9.59712e-06     -95.6461 
         -50      1.42507 -0.000249811 -9.78561e-06      -95.646 
         -50      1.47736 -0.000250362 -9.87716e-06     -95.6459 
         -50      1.53061 -0.000253824 -1.01996e-05     -95.6458 
         -50      1.58478 -0.000260247 -1.06994e-05     -95.6457 
         -50      1.63989 -0.000265963 -1.09597e-05     -95.6456 
         -50      1.69595 -0.000270897 -1.10506e-05     -95.6455 
         -50      1.75297 -0.000275017 -1.10328e-05     -95.6453 
         -50      1.81091  -0.00027833 -1.09568e-05     -95.6452 
         -50      1.86979  -0.00028088 -1.08628e-05     -95.6451 
         -50      1.92964 -0.000282746 -1.07808e-05      -95.645 
         -50       1.9904  -0.00028403 -1.07308e-05     -95.6448 
         -50      2.05211 -0.000284857 -1.07238e-05     -95.6447 
         -50      2.11476 -0.000285366  -1.0762e-05     -95.6445 
         -50      2.17838   -0.0002857 -1.08404e-05     -95.6443 
         -50      2.24291 -0.000285999 -1.09478e-05     -95.6442 
         -50      2.30839 -0.000286395 -1.10682e-05      -95.644 
         -50       2.3748 -0.000286997 -1.11829e-05     -95.6438 
         -50      2.44219 -0.000287888  -1.1272e-05     -95.6436 
         -50      2.51049 -0.000289116  -1.1316e-05     -95.6434 
         -50      2.57974 -0.000290686 -1.12985e-05     -95.6432 
         -50      2.64993 -0.000292563 -1.12077e-05      -95.643 
         -50      2.72108 -0.000294665  -1.1038e-05     -95.6427 
         -50      2.79315 -0.000296865 -1.07923e-05     -95.6425 
         -50      2.86617 -0.000299002 -1.04826e-05     -95.6422 
         -50      2.94012 -0.000300891 -1.01311e-05      -95.642 
         -50      3.01505 -0.000302341 -9.77066e-06     -95.6417 
         -50      3.09089  -0.00030318 -9.44427e-06     -95.6414 
         -50      3.16767 -0.000303295 -9.20328e-06     -95.6411 
         -50      3.24542 -0.000302672 -9.10515e-06     -95.6408 
         -50      3.32409 -0.000301459  -9.2095e-06     -95.6405 
         -50       3.4037 -0.000300035 -9.57227e-06     -95.6402 
         -50      3.48425 -0.000299099 -1.02384e-05     -95.6399 
         -50      3.56577 -0.000299781 -1.12323e-05     -95.6395 
         -50       3.6482 -0.000303762 -1.25441e-05     -95.6392 
         -50      3.73158 -0.000313431 -1.41163e-05     -95.6388 
         -50       3.8159 -0.000316071 -1.49779e-05     -95.6384 
         -50      3.90119 -0.000314195 -1.64707e-05      -95.638 
         -50       3.9874 -0.000311127  -1.7011e-05     -95.6376 
         -50      4.07454 -0.000308093 -1.81227e-05     -95.6372 
         -50      4.16263 -0.000305424 -1.95743e-05     -95.6367 
         -50      4.25169  -0.00030329 -2.11694e-05     -95.6363 
         -50      4.34166 -0.000301743 -2.27724e-05     -95.6358 
         -50      4.43258  -0.00030074 -2.42983e-05     -95.6353 
         -50      4.52447  -0.00030018 -2.56957e-05     -95.6348 
         -50      4.61726 -0.000299926 -2.69324e-05     -95.6343 
         -50        4.711 -0.000299836 -2.79875e-05     -95.6338 
         -50      4.80569 -0.000299781 -2.88401e-05     -95.6333 
         -50      4.90135 -0.000299673 -2.94645e-05     -95.6327 
         -50      4.99791  -0.00029947 -2.98287e-05     -95.6322 
         -50      5.09542 -0.000299189 -2.98994e-05     -95.6316 
         -50      5.19387 -0.000298905 -2.96522e-05      -95.631 
         -50       5.2933 -0.000298736 -2.90892e-05     -95.6303 
         -50      5.39364 -0.000298822 -2.82676e-05     -95.6297 
         -50      5.49491 -0.000299284 -2.73361e-05      -95.629 
         -50      5.59713 -0.000300172 -2.65851e-05     -95.6284 
         -50      5.70033 -0.000300218 -2.63017e-05     -95.6277 
         -50      5.80443 -0.000298602 -2.66291e-05      -95.627 
         -50      5.90948 -0.000297663 -2.75326e-05     -95.6262 
         -50      6.01551 -0.000297045 -2.85909e-05     -95.6255 
         -50      6.12244 -0.000296506 -2.95494e-05     -95.6247 
         -50      6.23031 -0.000295902  -3.0282e-05     -95.6239 
         -50      6.33912 -0.000295183  -3.0755e-05     -95.6231 
         -50      6.44892 -0.000294371 -3.10034e-05     -95.6223 
         -50      6.55962  -0.00029355 -3.11178e-05     -95.6214 
         -50      6.67126 -0.000292839 -3.12471e-05     -95.6206 
         -50      6.78384  -0.00029245 -3.15836e-05     -95.6197 
         -50      6.89741 -0.000293729 -3.15355e-05     -95.6187 
         -50      7.01187 -0.000294678 -3.18252e-05     -95.6178 
         -50      7.12728 -0.000295207 -3.25066e-05     -95.6168 
         -50      7.24363 -0.000295273 -3.34961e-05     -95.6159 
         -50      7.36097   -0.0002949  -3.4616e-05     -95.6149 
         -50       7.4792 -0.000294192 -3.56427e-05     -95.6138 
         -50      7.59838 -0.000293322  -3.6367e-05     -95.6128 
         -50      7.71854  -0.00029252 -3.66588e-05     -95.6117 
         -50       7.8396 -0.000292041 -3.65407e-05     -95.6106 
         -50      7.96161 -0.000292106 -3.62736e-05     -95.6095 
         -50      8.08455 -0.000292834 -3.64489e-05     -95.6083 
         -50      8.20849 -0.000294139 -3.80945e-05     -95.6071 
         -50      8.33332 -0.000294684 -3.87924e-05     -95.6059 
         -50      8.45909 -0.000294034 -3.70568e-05     -95.6047 
         -50       8.5858 -0.000293456 -3.70521e-05     -95.6035 
         -50      8.71351 -0.000292884  -3.7997e-05     -95.6022 
         -50       8.8421 -0.000292295 -3.93238e-05     -95.6009 
         -50      8.97164   -0.0002917 -4.06518e-05     -95.5995 
         -50      9.10212 -0.000291127 -4.17561e-05     -95.5982 
         -50       9.2336  -0.00029062 -4.25397e-05     -95.5968 
         -50      9.36596 -0.000290222 -4.30033e-05     -95.5954 
         -50      9.49927 -0.000289966 -4.32196e-05     -95.5939 
         -50      9.63352 -0.000289871 -4.33062e-05     -95.5924 
         -50      9.76877 -0.000289925 -4.34027e-05     -95.5909 
         -50       9.9049 -0.000290085 -4.36487e-05     -95.5894 
         -50       10.042 -0.000290266 -4.41678e-05     -95.5879 
         -50      10.1801 -0.000290336 -4.50537e-05     -95.5863 
         -50       10.319 -0.000290112 -4.63617e-05     -95.5846 
         -50      10.4589 -0.000289035 -4.55061e-05      -95.583 
         -50      10.5998  -0.00028799 -4.44829e-05     -95.5813 
         -50      10.7416   -0.0002871 -4.42318e-05     -95.5796 
         -50      10.8843 -0.000286362 -4.45979e-05     -95.5778 
         -50       11.028  -0.00028592 -4.52746e-05     -95.5761 
         -50      11.1726 -0.000286094 -4.57596e-05     -95.5743 
         -50      11.3182 -0.000287404  -4.5301e-05     -95.5724 
         -50      11.4647 -0.000286722 -4.56912e-05     -95.5705 
         -50      11.6122 -0.000286472 -4.62402e-05     -95.5686 
         -50      11.7605 -0.000286466 -4.66564e-05     -95.5667 
         -50      11.9099 -0.000286191 -4.69623e-05     -95.5647 
         -50      12.0602 -0.000285249 -4.72715e-05     -95.5627 
         -50      12.2114 -0.000283386 -4.77729e-05     -95.5607 
         -50      12.3636 -0.000280643 -4.86676e-05     -95.5586 
         -50      12.5167 -0.000282417 -4.82533e-05     -95.5565 
         -50      12.6707 -0.000283517 -4.81968e-05     -95.5544 
         -50      12.8257  -0.00028411 -4.83963e-05     -95.5522 
         -50      12.9817 -0.000284341 -4.87698e-05       -95.55 
         -50      13.1386 -0.000284328 -4.92513e-05     -95.5477 
         -50      13.2964  -0.00028416 -4.97893e-05     -95.5455 
         -50      13.4551 -0.000283895  -5.0343e-05     -95.5431 
         -50      13.6149  -0.00028356 -5.08809e-05     -95.5408 
         -50      13.7755 -0.000283155  -5.1378e-05     -95.5384 
         -50      13.9371 -0.000282663 -5.18156e-05      -95.536 
         -50      14.0996 -0.000282054 -5.21794e-05     -95.5335 
         -50      14.2631 -0.000281304 -5.24603e-05      -95.531 
         -50      14.4275 -0.000280413 -5.26535e-05     -95.5285 
         -50      14.5928 -0.000279422 -5.27617e-05     -95.5259 
         -50      14.7592 -0.000278444 -5.27956e-05     -95.5233 
         -50      14.9264   -0.0002777 -5.27781e-05     -95.5207 
         -50      15.0946 -0.000277547 -5.27484e-05      -95.518 
         -50      15.2637 -0.000278532 -5.27674e-05     -95.5153 
         -50      15.4338 -0.000281441 -5.29245e-05     -95.5125 
         -50      15.6048 -0.000281088 -5.34575e-05     -95.5097 
         -50      15.7767 -0.000278545 -5.40666e-05     -95.5069 
         -50      15.9496 -0.000276893 -5.46558e-05      -95.504 
         -50      16.1235 -0.000275943 -5.52516e-05     -95.5011 
         -50      16.2982 -0.000275488 -5.58582e-05     -95.4982 
         -50      16.4739 -0.000275325 -5.64638e-05     -95.4952 
         -50      16.6506  -0.00027527 -5.70437e-05     -95.4922 
         -50      16.8282 -0.000275177 -5.75663e-05     -95.4891 
         -50      17.0068 -0.000274944 -5.79978e-05      -95.486 
         -50      17.1862 -0.000274524  -5.8309e-05     -95.4829 
         -50      17.3667 -0.000273926 -5.84808e-05     -95.4797 
         -50      17.5481 -0.000273212 -5.85108e-05     -95.4765 
         -50      17.7304 -0.000272489 -5.84207e-05     -95.4732 
         -50      17.9136 -0.000271896 -5.82628e-05       -95.47 
         -50      18.0979  -0.00027158 -5.81284e-05     -95.4666 
         -50       18.283 -0.000271671 -5.81558e-05     -95.4633 
         -50      18.4691 -0.000272242 -5.85383e-05     -95.4599 
         -50      18.6561 -0.000273139 -5.94518e-05     -95.4564 
         -50      18.8441 -0.000272299 -5.93228e-05     -95.4529 
         -50       19.033 -0.000271498 -5.90657e-05     -95.4494 
         -50      19.2228 -0.000270552 -5.88617e-05     -95.4458 
         -50      19.4136 -0.000269341 -5.88292e-05     -95.4422 
         -50      19.6054 -0.000267905 -5.89802e-05     -95.4386 
         -50       19.798 -0.000266562  -5.9168e-05     -95.4349 
         -50      19.9917 -0.000266029  -5.9027e-05     -95.4312 
         -50      20.1862 -0.000268257 -5.94734e-05     -95.4274 
         -50      20.3818 -0.000269695 -6.01071e-05     -95.4237 
         -50      20.5782 -0.000269815 -6.04638e-05     -95.4198 
         -50      20.7756 -0.000269126 -6.06782e-05      -95.416 
         -50       20.974 -0.000268001 -6.08454e-05      -95.412 
         -50      21.1732 -0.000266701 -6.10268e-05     -95.4081 
         -50      21.3734 -0.000265393 -6.12567e-05     -95.4041 
         -50      21.5745 -0.000264173  -6.1547e-05     -95.4001 
         -50      21.7767 -0.000263082 -6.18932e-05      -95.396 
         -50      21.9797 -0.000262126 -6.22786e-05     -95.3919 
         -50      22.1837 -0.000261288 -6.26799e-05     -95.3878 
         -50      22.3886 -0.000260542 -6.30708e-05     -95.3836 
         -50      22.5945 -0.000259867 -6.34264e-05     -95.3794 
         -50      22.8013 -0.000259249 -6.37256e-05     -95.3752 
         -50      23.0091  -0.00025869  -6.3955e-05     -95.3709 
         -50      23.2177 -0.000258205 -6.41099e-05     -95.3666 
         -50      23.4274 -0.000257824 -6.41963e-05     -95.3622 
         -50       23.638 -0.000257584 -6.42307e-05     -95.3579 
         -50      23.8495 -0.000257515 -6.42405e-05     -95.3534 
         -50       24.062 -0.000257627 -6.42617e-05      -95.349 
         -50      24.2754 -0.000257888 -6.43369e-05     -95.3445 
         -50      24.4897 -0.000258197 -6.45117e-05       -95.34 
         -50       24.705 -0.000258349 -6.48293e-05     -95.3354 
         -50      24.9213 -0.000257997 -6.53247e-05     -95.3308 
         -50      25.1385 -0.000256604 -6.60163e-05     -95.3262 
         -50      25.3566 -0.000252676  -6.6027e-05     -95.3215 
         -50      25.5756 -0.000244778 -6.59765e-05     -95.3168 
         -50      25.7957 -0.000243336 -6.47334e-05     -95.3121 
         -50      26.0166 -0.000244476 -6.55855e-05     -95.3073 
         -50      26.2385 -0.000246396 -6.58531e-05     -95.3025 
         -50      26.4613 -0.000248499 -6.58425e-05     -95.2977 
         -50      26.6851  -0.00025035 -6.57486e-05     -95.2928 
         -50      26.9098 -0.000251651  -6.5679e-05      -95.288 
         -50      27.1354 -0.000252244 -6.56756e-05      -95.283 
         -50      27.3621 -0.000252083 -6.57348e-05     -95.2781 
         -50      27.5896 -0.000251222 -6.58256e-05     -95.2731 
         -50      27.8181 -0.000249796 -6.59057e-05     -95.2681 
         -50      28.0475 -0.000248002 -6.59342e-05     -95.2631 
         -50      28.2779 -0.000246071 -6.58823e-05      -95.258 
         -50      28.5092  -0.00024425 -6.57403e-05     -95.2529 
         -50      28.7414 -0.000242767 -6.55209e-05     -95.2478 
         -50      28.9746 -0.000241808 -6.52593e-05     -95.2426 
         -50      29.2088 -0.000241481 -6.50086e-05     -95.2375 
         -50      29.4439 -0.000241782 -6.48311e-05     -95.2323 
         -50      29.6799 -0.000242559  -6.4784e-05     -95.2271 
         -50      29.9168  -0.00024347  -6.4901e-05     -95.2218 
         -50      30.1548 -0.000243941 -6.51669e-05     -95.2165 
         -50      30.3936 -0.000243118 -6.54867e-05     -95.2112 
         -50      30.6334 -0.000239819 -6.56491e-05     -95.2059 
         -50      30.8742 -0.000234399 -6.53826e-05     -95.2006 
         -50      31.1158 -0.000235761 -6.52936e-05     -95.1952 
         -50      31.3584 -0.000237157 -6.52733e-05     -95.1898 
         -50       31.602 -0.000238171  -6.5275e-05     -95.1844 
         -50      31.8465 -0.000238593 -6.52652e-05      -95.179 
         -50      32.0919 -0.000238372 -6.52218e-05     -95.1735 
         -50      32.3383 -0.000237573 -6.51319e-05     -95.1681 
         -50      32.5856 -0.000236338 -6.49898e-05     -95.1626 
         -50       32.834 -0.000234849 -6.47952e-05     -95.1571 
         -50      33.0831 -0.000233301 -6.45523e-05     -95.1516 
         -50      33.3333 -0.000231867 -6.42671e-05      -95.146 
         -50      33.5843 -0.000230683 -6.39472e-05     -95.1405 
         -50      33.8364 -0.000229829 -6.36002e-05     -95.1349 
         -50      34.0894 -0.000229321 -6.32333e-05     -95.1293 
         -50      34.3433 -0.000229105 -6.28525e-05     -95.1237 
         -50      34.5981  -0.00022906 -6.24622e-05     -95.1181 
         -50       34.854 -0.000229013 -6.20653e-05     -95.1125 
         -50      35.1107 -0.000228757 -6.16643e-05     -95.1069 
         -50      35.3684  -0.00022808 -6.12609e-05     -95.1012 
         -50      35.6271   -0.0002268 -6.08575e-05     -95.0956 
         -50      35.8867 -0.000224822 -6.04593e-05     -95.0899 
         -50      36.1472 -0.000222188 -6.00753e-05     -95.0842 
         -50      36.4086 -0.000219155 -5.97212e-05     -95.0785 
         -50      36.6711 -0.000216668 -5.96926e-05     -95.0729 
         -50      36.9344 -0.000217498 -6.03188e-05     -95.0672 
         -50      37.1987 -0.000221594 -6.03087e-05     -95.0615 
         -50      37.4639 -0.000222953 -6.00986e-05     -95.0557 
         -50      37.7301 -0.000222194 -5.96956e-05       -95.05 
         -50      37.9972  -0.00022145 -5.96093e-05     -95.0443 
         -50      38.2652 -0.000220405 -5.98203e-05     -95.0386 
         -50      38.5342  -0.00021924 -6.01091e-05     -95.0329 
         -50      38.8042 -0.000218088 -6.03315e-05     -95.0271 
         -50      39.0751 -0.000217044 -6.04058e-05     -95.0214 
         -50      39.3469 -0.000216969 -6.00388e-05     -95.0157 
         -50      39.6197 -0.000217036 -5.95176e-05       -95.01 
         -50      39.8934 -0.000217038  -5.8934e-05     -95.0043 
         -50       40.168 -0.000216945 -5.83327e-05     -94.9985 
         -50      40.4436 -0.000216743 -5.77572e-05     -94.9928 
         -50      40.7202 -0.000216428 -5.72437e-05     -94.9871 
         -50      40.9977 -0.000216007 -5.68173e-05     -94.9814 
         -50      41.2761 -0.000215492 -5.64874e-05     -94.9757 
         -50      41.5554 -0.000214902 -5.62475e-05       -94.97 
         -50      41.8358 -0.000214255 -5.60744e-05     -94.9643 
         -50       42.117 -0.000213571 -5.59309e-05     -94.9587 
         -50      42.3992 -0.000212861 -5.57689e-05      -94.953 
         -50      42.6823 -0.000212135 -5.55358e-05     -94.9473 
         -50      42.9664  -0.00021139 -5.51821e-05     -94.9417 
         -50      43.2514  -0.00021061 -5.46725e-05     -94.9361 
         -50      43.5373 -0.000209766 -5.39979e-05     -94.9305 
         -50      43.8243 -0.000208807  -5.3191e-05     -94.9248 
         -50      44.1121 -0.000207666 -5.23458e-05     -94.9193 
         -50      44.4009 -0.000206247 -5.16371e-05     -94.9137 
         -50      44.6906 -0.000204427 -5.13452e-05     -94.9081 
         -50      44.9813 -0.000202837 -5.17267e-05     -94.9026 
         -50      45.2729 -0.000205842 -5.13159e-05     -94.8971 
         -50      45.5654 -0.000207019 -5.08794e-05     -94.8916 
         -50      45.8589 -0.000207089   -5.048e-05     -94.8861 
         -50      46.1534 -0.000206578 -5.01507e-05     -94.8806 
         -50      46.4488 -0.000205838 -4.98989e-05     -94.8752 
         -50      46.7451 -0.000205069 -4.97087e-05     -94.8698 
         -50      47.0423 -0.000204344 -4.95444e-05     -94.8644 
         -50      47.3406 -0.000203628 -4.93535e-05      -94.859 
         -50      47.6397 -0.000202806 -4.90699e-05     -94.8537 
         -50      47.9398  -0.00020224 -4.88562e-05     -94.8483 
         -50      48.2409 -0.000202194 -4.86055e-05     -94.8431 
         -50      48.5428 -0.000202441 -4.81868e-05     -94.8378 
         -50      48.8457 -0.000202758 -4.75418e-05     -94.8326 
         -50      49.1496  -0.00020294  -4.6689e-05     -94.8274 
         -50      49.4545 -0.000202809 -4.57175e-05     -94.8222 
         -50      49.7602 -0.000202229 -4.47701e-05     -94.8171 
         -50      50.0668 -0.000201117 -4.40115e-05      -94.812 
         -50      50.3744  -0.00019946 -4.35855e-05     -94.8069 
         -50      50.6831 -0.000197324 -4.35585e-05     -94.8019 
         -50      50.9926 -0.000194878 -4.38466e-05     -94.7969 
         -50       51.303 -0.000192405 -4.41287e-05     -94.7919 
         -50      51.6144 -0.000190317 -4.37421e-05      -94.787 
         -50      51.9268 -0.000189927  -4.2406e-05     -94.7822 
         -50        52.24 -0.000192079 -4.24244e-05     -94.7773 
         -50      52.5542 -0.000193728 -4.20847e-05     -94.7725 
         -50      52.8694 -0.000194821  -4.1512e-05     -94.7677 
         -50      53.1856 -0.000195241 -4.08125e-05     -94.7629 
         -50      53.5026 -0.000194812 -4.00815e-05     -94.7582 
         -50      53.8205 -0.000193299 -3.94104e-05     -94.7535 
         -50      54.1396 -0.000191612 -3.87222e-05     -94.7489 
         -50      54.4594 -0.000192633 -3.76367e-05     -94.7443 
         -50      54.7802 -0.000192667 -3.67588e-05     -94.7398 
         -50      55.1019 -0.000192125 -3.60783e-05     -94.7353 
         -50      55.4247   -0.0001913 -3.55632e-05     -94.7309 
         -50      55.7483 -0.000190391 -3.51686e-05     -94.7266 
         -50      56.0729 -0.000189517 -3.48434e-05     -94.7223 
         -50      56.3984 -0.000188744 -3.45373e-05     -94.7181 
         -50       56.725 -0.000188091 -3.42055e-05     -94.7139 
         -50      57.0523 -0.000187557  -3.3814e-05     -94.7098 
         -50      57.3807  -0.00018712 -3.33415e-05     -94.7057 
         -50      57.7099 -0.000186758 -3.27814e-05     -94.7017 
         -50      58.0403 -0.000186449 -3.21419e-05     -94.6977 
         -50      58.3714  -0.00018618 -3.14459e-05     -94.6938 
         -50      58.7035 -0.000185946 -3.07265e-05     -94.6899 
         -50      59.0367 -0.000185749 -3.00232e-05     -94.6861 
         -50      59.3707 -0.000185597  -2.9377e-05     -94.6824 
         -50      59.7056  -0.00018549 -2.88201e-05     -94.6787 
         -50      60.0414 -0.000185415 -2.83676e-05      -94.675 
         -50      60.3784 -0.000185325 -2.80044e-05     -94.6715 
         -50      60.7161 -0.000185122 -2.76722e-05      -94.668 
         -50      61.0548 -0.000184635 -2.72517e-05     -94.6645 
         -50      61.3944 -0.000183588 -2.65444e-05     -94.6611 
         -50      61.7351 -0.000181569 -2.52508e-05     -94.6578 
         -50      62.0767 -0.000179519  -2.3794e-05     -94.6546 
         -50      62.4191 -0.000180587 -2.43621e-05     -94.6515 
         -50      62.7625 -0.000179986 -2.42484e-05     -94.6483 
         -50       63.107   -0.0001788 -2.36824e-05     -94.6453 
         -50      63.4523 -0.000177754 -2.28452e-05     -94.6423 
         -50      63.7985 -0.000177271  -2.1874e-05     -94.6394 
         -50      64.1458 -0.000177532 -2.08678e-05     -94.6366 
         -50      64.4939 -0.000178532 -1.98949e-05     -94.6338 
         -50       64.843  -0.00018013 -1.89949e-05     -94.6311 
         -50      65.1929 -0.000182094 -1.81859e-05     -94.6285 
         -50       65.544 -0.000184147 -1.74682e-05      -94.626 
         -50      65.8959 -0.000186001   -1.683e-05     -94.6236 
         -50      66.2487  -0.00018739 -1.62499e-05     -94.6213 
         -50      66.6025 -0.000188099 -1.57019e-05     -94.6191 
         -50      66.9573 -0.000187983 -1.51579e-05     -94.6169 
         -50       67.313 -0.000186986 -1.45923e-05     -94.6148 
         -50      67.6695 -0.000185142  -1.3983e-05     -94.6128 
         -50      68.0271 -0.000182586 -1.33147e-05     -94.6109 
         -50      68.3857 -0.000179538 -1.25798e-05     -94.6091 
         -50      68.7451 -0.000176301 -1.17816e-05     -94.6074 
         -50      69.1055 -0.000173229 -1.09324e-05     -94.6057 
         -50      69.4669 -0.000170703 -1.00555e-05     -94.6042 
         -50      69.8291 -0.000169091 -9.18536e-06     -94.6027 
         -50      70.1923 -0.000168697 -8.36467e-06     -94.6013 
         -50      70.5564 -0.000169703  -7.6443e-06     -94.6001 
         -50      70.9217 -0.000172105  -7.0804e-06     -94.5989 
         -50      71.2877 -0.000175624 -6.73229e-06     -94.5978 
         -50      71.6546 -0.000179622 -6.65734e-06     -94.5969 
         -50      72.0225    -0.000183 -6.90747e-06     -94.5961 
         -50      72.3915 -0.000184076 -7.52389e-06     -94.5954 
         -50      72.7613 -0.000183496 -7.81012e-06     -94.5949 
         -50       73.132 -0.000190821 -5.46698e-06     -94.5946 
         -50      73.5036 -0.000192316 -3.36567e-06     -94.5943 
         -50      73.8764 -0.000182498 -1.63477e-06     -94.5941 
         -50      74.2499 -0.000154015 -4.09616e-07     -94.5939 
         -50      74.6244 -9.72684e-05   1.7743e-07     -94.5938 
         -50           75           -0  4.96139e-17     -94.5936 
         -25            0 -3.07695e-19 -4.39192e-24      -93.091 
         -25     0.000471  -3.0078e-05 -4.61434e-10      -93.091 
         -25     0.001884 -0.000106369 -2.01577e-09      -93.091 
         -25     0.004239 -0.000194395 -5.16549e-09      -93.091 
         -25     0.007537 -0.000257486 -1.07272e-08      -93.091 
         -25     0.011776 -0.000276459 -1.97986e-08      -93.091 
         -25     0.016958 -0.000259572 -3.37461e-08      -93.091 
         -25     0.023081   -0.0002352  -5.4165e-08      -93.091 
         -25      0.03015 -0.000229721  -8.2884e-08      -93.091 
         -25     0.038157 -0.000244525 -1.21832e-07      -93.091 
         -25     0.047107 -0.000253746  -1.7303e-07      -93.091 
         -25     0.056999 -0.000237262  -2.3834e-07      -93.091 
         -25     0.067837 -0.000225762   -3.193e-07      -93.091 
         -25     0.079614 -0.000245424 -4.16876e-07      -93.091 
         -25     0.092332 -0.000227987 -5.32305e-07      -93.091 
         -25     0.105992 -0.000226771 -6.66454e-07      -93.091 
         -25       0.1206 -0.000221951 -8.19697e-07      -93.091 
         -25     0.136145 -0.000217033 -9.91938e-07      -93.091 
         -25     0.152631 -0.000212963 -1.18288e-06      -93.091 
         -25     0.170067 -0.000208961 -1.39207e-06      -93.091 
         -25     0.188438 -0.000204048 -1.61869e-06      -93.091 
         -25     0.207751 -0.000198521 -1.86218e-06      -93.091 
         -25     0.228006 -0.000193887 -2.12183e-06      -93.091 
         -25     0.249212 -0.000188634 -2.39646e-06      -93.091 
         -25     0.271351 -0.000183679 -2.68597e-06      -93.091 
         -25     0.294433 -0.000178688 -2.98999e-06      -93.091 
         -25     0.318456  -0.00017366 -3.30604e-06      -93.091 
         -25     0.343432 -0.000168709  -3.6329e-06      -93.091 
         -25     0.369339 -0.000163912 -3.96975e-06      -93.091 
         -25     0.396189 -0.000159307 -4.31678e-06      -93.091 
         -25     0.423981 -0.000154912 -4.67405e-06      -93.091 
         -25     0.452726 -0.000150741 -5.04148e-06     -93.0909 
         -25     0.482403  -0.00014683 -5.41796e-06     -93.0909 
         -25     0.513021  -0.00014323 -5.80227e-06     -93.0909 
         -25     0.544594 -0.000140011 -6.19358e-06     -93.0909 
         -25     0.577096 -0.000137222 -6.59281e-06     -93.0909 
         -25     0.610541 -0.000134813  -7.0059e-06     -93.0909 
         -25     0.644927 -0.000132918 -7.41243e-06     -93.0909 
         -25      0.68027 -0.000131487 -7.83898e-06     -93.0909 
         -25     0.716541 -0.000130528 -8.28521e-06     -93.0909 
         -25     0.753754 -0.000130038 -8.74967e-06     -93.0909 
         -25     0.791909 -0.000130009 -9.22929e-06     -93.0909 
         -25     0.831022 -0.000130426 -9.71996e-06     -93.0909 
         -25     0.871061 -0.000131268 -1.02162e-05     -93.0909 
         -25     0.912043 -0.000132513 -1.07125e-05     -93.0909 
         -25     0.953966 -0.000134134 -1.12034e-05     -93.0908 
         -25     0.996849 -0.000136108 -1.16842e-05     -93.0908 
         -25      1.04066  -0.00013841 -1.21505e-05     -93.0908 
         -25      1.08541 -0.000141024    -1.26e-05     -93.0908 
         -25      1.13112  -0.00014394 -1.30322e-05     -93.0908 
         -25      1.17775 -0.000147154 -1.34479e-05     -93.0908 
         -25      1.22533 -0.000150678 -1.38498e-05     -93.0907 
         -25      1.27384 -0.000154533 -1.42413e-05     -93.0907 