Variables = x, y, u, v, p

Zone, I=6400, F=POINT
         -50            0            0            0     -36.3516 
         -50     0.000471 -3.13054e-05 -8.65182e-10     -36.3516 
         -50     0.001884 -0.000110847 -3.52707e-09     -36.3516 
         -50     0.004239 -0.000203035 -8.18712e-09     -36.3516 
         -50     0.007537 -0.000269875 -1.51817e-08     -36.3516 
         -50     0.011776 -0.000291196 -2.49427e-08     -36.3516 
         -50     0.016958 -0.000274981 -3.79308e-08     -36.3516 
         -50     0.023081 -0.000250057 -5.44813e-08     -36.3516 
         -50      0.03015 -0.000243609 -7.46807e-08     -36.3516 
         -50     0.038157 -0.000257645 -9.82205e-08     -36.3516 
         -50     0.047107  -0.00026641 -1.24551e-07     -36.3516 
         -50     0.056999 -0.000249643 -1.53144e-07     -36.3516 
         -50     0.067837 -0.000238279 -1.84002e-07     -36.3516 
         -50     0.079614 -0.000258523 -2.17805e-07     -36.3516 
         -50     0.092332 -0.000241649 -2.53287e-07     -36.3516 
         -50     0.105992 -0.000241428 -2.89972e-07     -36.3516 
         -50       0.1206 -0.000237576 -3.26743e-07     -36.3516 
         -50     0.136145 -0.000233719 -3.62515e-07     -36.3516 
         -50     0.152631  -0.00023081 -3.96656e-07     -36.3516 
         -50     0.170067 -0.000228011 -4.28172e-07     -36.3516 
         -50     0.188438  -0.00022429 -4.54834e-07     -36.3516 
         -50     0.207751 -0.000219966 -4.73049e-07     -36.3516 
         -50     0.228006 -0.000216615 -4.79433e-07     -36.3516 
         -50     0.249212 -0.000212579 -4.76195e-07     -36.3516 
         -50     0.271351  -0.00020884 -4.48732e-07     -36.3516 
         -50     0.294433 -0.000204987  -3.9843e-07     -36.3516 
         -50     0.318456 -0.000200982 -3.43343e-07     -36.3516 
         -50     0.343432  -0.00019692  -2.9336e-07     -36.3516 
         -50     0.369339 -0.000192865 -2.51823e-07     -36.3516 
         -50     0.396189 -0.000188842 -2.17706e-07     -36.3516 
         -50     0.423981 -0.000184868 -1.88583e-07     -36.3516 
         -50     0.452726 -0.000180958 -1.63213e-07     -36.3516 
         -50     0.482403 -0.000177154 -1.42703e-07     -36.3516 
         -50     0.513021 -0.000173518 -1.28253e-07     -36.3516 
         -50     0.544594 -0.000170134 -1.13169e-07     -36.3516 
         -50     0.577096 -0.000167073 -6.56727e-08     -36.3516 
         -50     0.610541 -0.000164308  7.68355e-08     -36.3516 
         -50     0.644927  -0.00016196 -1.38935e-07     -36.3515 
         -50      0.68027 -0.000160048 -2.75901e-07     -36.3515 
         -50     0.716541 -0.000158612 -3.59302e-07     -36.3515 
         -50     0.753754 -0.000157679 -4.07996e-07     -36.3515 
         -50     0.791909  -0.00015727 -4.34663e-07     -36.3515 
         -50     0.831022 -0.000157394 -4.46763e-07     -36.3515 
         -50     0.871061 -0.000158052   -4.478e-07     -36.3515 
         -50     0.912043 -0.000159234 -4.38954e-07     -36.3514 
         -50     0.953966 -0.000160925 -4.20867e-07     -36.3514 
         -50     0.996849 -0.000163098 -3.95464e-07     -36.3514 
         -50      1.04066 -0.000165721 -3.67603e-07     -36.3514 
         -50      1.08541 -0.000168755 -3.46089e-07     -36.3514 
         -50      1.13112  -0.00017216 -3.43856e-07     -36.3513 
         -50      1.17775 -0.000175887 -3.76662e-07     -36.3513 
         -50      1.22533  -0.00017989  -4.5973e-07     -36.3513 
         -50      1.27384 -0.000184119 -6.01657e-07     -36.3513 
         -50      1.32333 -0.000188527 -7.94721e-07     -36.3512 
         -50      1.37373 -0.000193057 -1.00009e-06     -36.3512 
         -50      1.42507 -0.000197655 -1.12793e-06     -36.3512 
         -50      1.47736  -0.00020226 -1.00952e-06     -36.3511 
         -50      1.53061  -0.00020896 -9.93543e-07     -36.3511 
         -50      1.58478 -0.000218302 -1.33144e-06      -36.351 
         -50      1.63989 -0.000227465 -1.44357e-06      -36.351 
         -50      1.69595 -0.000236186 -1.40731e-06      -36.351 
         -50      1.75297 -0.000244274 -1.29108e-06     -36.3509 
         -50      1.81091 -0.000251592 -1.15396e-06     -36.3509 
         -50      1.86979 -0.000258073 -1.04495e-06     -36.3508 
         -50      1.92964 -0.000263705  -1.0029e-06     -36.3508 
         -50       1.9904 -0.000268521 -1.05646e-06     -36.3507 
         -50      2.05211 -0.000272602 -1.22415e-06     -36.3506 
         -50      2.11476  -0.00027606  -1.5148e-06     -36.3506 
         -50      2.17838 -0.000279031 -1.92836e-06     -36.3505 
         -50      2.24291 -0.000281658 -2.45597e-06     -36.3504 
         -50      2.30839 -0.000284088 -3.08197e-06     -36.3504 
         -50       2.3748 -0.000286454 -3.78447e-06     -36.3503 
         -50      2.44219 -0.000288864 -4.53716e-06     -36.3502 
         -50      2.51049 -0.000291389 -5.30963e-06     -36.3501 
         -50      2.57974 -0.000294057 -6.07073e-06     -36.3501 
         -50      2.64993 -0.000296843 -6.78909e-06       -36.35 
         -50      2.72108 -0.000299667 -7.43527e-06     -36.3499 
         -50      2.79315  -0.00030239  -7.9824e-06     -36.3498 
         -50      2.86617 -0.000304827 -8.40915e-06     -36.3497 
         -50      2.94012 -0.000306758 -8.69993e-06     -36.3496 
         -50      3.01505 -0.000307946 -8.84607e-06     -36.3495 
         -50      3.09089 -0.000308173 -8.84609e-06     -36.3494 
         -50      3.16767 -0.000307283 -8.70593e-06     -36.3493 
         -50      3.24542 -0.000305239 -8.43763e-06     -36.3491 
         -50      3.32409 -0.000302203 -8.05817e-06      -36.349 
         -50       3.4037 -0.000298625 -7.58587e-06     -36.3489 
         -50      3.48425 -0.000295362 -7.03669e-06     -36.3488 
         -50      3.56577  -0.00029382 -6.41815e-06     -36.3486 
         -50       3.6482 -0.000296129 -5.72279e-06     -36.3485 
         -50      3.73158 -0.000305338 -4.91719e-06     -36.3483 
         -50       3.8159 -0.000307898 -5.73401e-06     -36.3482 
         -50      3.90119 -0.000306137 -5.66148e-06      -36.348 
         -50       3.9874 -0.000302659 -6.41779e-06     -36.3479 
         -50      4.07454 -0.000299198 -6.95881e-06     -36.3477 
         -50      4.16263 -0.000296099 -7.39238e-06     -36.3475 
         -50      4.25169 -0.000293545 -7.81769e-06     -36.3473 
         -50      4.34166  -0.00029161 -8.29531e-06     -36.3472 
         -50      4.43258  -0.00029028 -8.85141e-06      -36.347 
         -50      4.52447 -0.000289472 -9.48158e-06     -36.3468 
         -50      4.61726 -0.000289058 -1.01552e-05     -36.3466 
         -50        4.711 -0.000288888 -1.08235e-05     -36.3464 
         -50      4.80569 -0.000288809 -1.14256e-05     -36.3462 
         -50      4.90135 -0.000288689 -1.18987e-05     -36.3459 
         -50      4.99791 -0.000288435 -1.21865e-05     -36.3457 
         -50      5.09542 -0.000288009 -1.22529e-05     -36.3455 
         -50      5.19387 -0.000287441 -1.20941e-05     -36.3452 
         -50       5.2933 -0.000286837 -1.17533e-05      -36.345 
         -50      5.39364 -0.000286388 -1.13383e-05     -36.3447 
         -50      5.49491 -0.000286358 -1.10388e-05     -36.3445 
         -50      5.59713 -0.000287078 -1.11475e-05     -36.3442 
         -50      5.70033 -0.000287474  -1.1591e-05     -36.3439 
         -50      5.80443 -0.000286059 -1.15544e-05     -36.3437 
         -50      5.90948 -0.000285312 -1.17305e-05     -36.3434 
         -50      6.01551 -0.000284845 -1.20393e-05     -36.3431 
         -50      6.12244 -0.000284449 -1.23704e-05     -36.3428 
         -50      6.23031 -0.000284039 -1.26129e-05     -36.3425 
         -50      6.33912 -0.000283603 -1.26885e-05     -36.3421 
         -50      6.44892 -0.000283129 -1.25863e-05     -36.3418 
         -50      6.55962  -0.00028252 -1.24006e-05     -36.3415 
         -50      6.67126 -0.000281489 -1.23702e-05     -36.3411 
         -50      6.78384 -0.000279632   -1.281e-05     -36.3408 
         -50      6.89741 -0.000280813 -1.18275e-05     -36.3404 
         -50      7.01187 -0.000281458 -1.15987e-05       -36.34 
         -50      7.12728 -0.000281526 -1.18409e-05     -36.3397 
         -50      7.24363 -0.000281038 -1.23055e-05     -36.3393 
         -50      7.36097 -0.000280089 -1.27937e-05     -36.3389 
         -50       7.4792 -0.000278847  -1.3169e-05     -36.3385 
         -50      7.59838 -0.000277539  -1.3368e-05     -36.3381 
         -50      7.71854 -0.000276423 -1.34049e-05     -36.3376 
         -50       7.8396 -0.000275739  -1.3371e-05     -36.3372 
         -50      7.96161 -0.000275639 -1.34288e-05     -36.3368 
         -50      8.08455 -0.000276096 -1.37979e-05     -36.3363 
         -50      8.20849  -0.00027678 -1.47336e-05     -36.3358 
         -50      8.33332 -0.000276733 -1.52864e-05     -36.3354 
         -50      8.45909 -0.000276183 -1.51369e-05     -36.3349 
         -50       8.5858 -0.000275719 -1.55947e-05     -36.3344 
         -50      8.71351 -0.000275319 -1.63478e-05     -36.3339 
         -50       8.8421 -0.000274963 -1.71696e-05     -36.3334 
         -50      8.97164 -0.000274635 -1.79106e-05     -36.3328 
         -50      9.10212 -0.000274319 -1.84867e-05     -36.3323 
         -50       9.2336 -0.000274006 -1.88688e-05     -36.3317 
         -50      9.36596 -0.000273687 -1.90722e-05     -36.3312 
         -50      9.49927 -0.000273357 -1.91478e-05     -36.3306 
         -50      9.63352 -0.000273013  -1.9172e-05       -36.33 
         -50      9.76877 -0.000272653 -1.92383e-05     -36.3294 
         -50       9.9049 -0.000272271 -1.94506e-05     -36.3288 
         -50       10.042 -0.000271857 -1.99166e-05     -36.3282 
         -50      10.1801 -0.000271393 -2.07446e-05     -36.3276 
         -50       10.319 -0.000270846 -2.20388e-05     -36.3269 
         -50      10.4589 -0.000270668 -2.18856e-05     -36.3263 
         -50      10.5998 -0.000269851  -2.1531e-05     -36.3256 
         -50      10.7416 -0.000268339 -2.15602e-05     -36.3249 
         -50      10.8843 -0.000266608 -2.18236e-05     -36.3242 
         -50       11.028 -0.000265407  -2.2214e-05     -36.3235 
         -50      11.1726 -0.000265805 -2.27417e-05     -36.3228 
         -50      11.3182 -0.000269249 -2.36272e-05     -36.3221 
         -50      11.4647 -0.000267847 -2.38817e-05     -36.3214 
         -50      11.6122 -0.000267126 -2.41948e-05     -36.3206 
         -50      11.7605 -0.000267194 -2.46095e-05     -36.3198 
         -50      11.9099 -0.000267321 -2.51211e-05     -36.3191 
         -50      12.0602 -0.000266921 -2.57862e-05     -36.3183 
         -50      12.2114 -0.000265558 -2.66945e-05     -36.3175 
         -50      12.3636 -0.000262997 -2.79329e-05     -36.3166 
         -50      12.5167 -0.000262421 -2.89438e-05     -36.3158 
         -50      12.6707 -0.000262103 -2.96171e-05      -36.315 
         -50      12.8257 -0.000261972 -3.00743e-05     -36.3141 
         -50      12.9817  -0.00026196  -3.0407e-05     -36.3132 
         -50      13.1386 -0.000262003   -3.068e-05     -36.3123 
         -50      13.2964 -0.000262036 -3.09362e-05     -36.3114 
         -50      13.4551 -0.000261999 -3.11996e-05     -36.3105 
         -50      13.6149 -0.000261835 -3.14796e-05     -36.3096 
         -50      13.7755 -0.000261497 -3.17739e-05     -36.3087 
         -50      13.9371 -0.000260952 -3.20732e-05     -36.3077 
         -50      14.0996 -0.000260185 -3.23642e-05     -36.3067 
         -50      14.2631 -0.000259212 -3.26327e-05     -36.3057 
         -50      14.4275 -0.000258086 -3.28667e-05     -36.3047 
         -50      14.5928 -0.000256909 -3.30592e-05     -36.3037 
         -50      14.7592 -0.000255852 -3.32109e-05     -36.3027 
         -50      14.9264 -0.000255166 -3.33312e-05     -36.3016 
         -50      15.0946 -0.000255205 -3.34406e-05     -36.3006 
         -50      15.2637 -0.000256449  -3.3571e-05     -36.2995 
         -50      15.4338 -0.000259528 -3.37662e-05     -36.2984 
         -50      15.6048  -0.00025875 -3.42084e-05     -36.2973 
         -50      15.7767 -0.000255721 -3.48686e-05     -36.2962 
         -50      15.9496 -0.000253828 -3.54968e-05     -36.2951 
         -50      16.1235 -0.000252879 -3.59797e-05     -36.2939 
         -50      16.2982 -0.000252629 -3.62788e-05     -36.2927 
         -50      16.4739 -0.000252814 -3.64123e-05     -36.2916 
         -50      16.6506 -0.000253174 -3.64362e-05     -36.2904 
         -50      16.8282  -0.00025348  -3.6426e-05     -36.2892 
         -50      17.0068 -0.000253553  -3.6461e-05     -36.2879 
         -50      17.1862 -0.000253281 -3.66084e-05     -36.2867 
         -50      17.3667 -0.000252631 -3.69103e-05     -36.2854 
         -50      17.5481 -0.000251653 -3.73708e-05     -36.2842 
         -50      17.7304 -0.000250481 -3.79473e-05     -36.2829 
         -50      17.9136 -0.000249329 -3.85429e-05     -36.2816 
         -50      18.0979 -0.000248472 -3.90016e-05     -36.2803 
         -50       18.283 -0.000248227 -3.91064e-05     -36.2789 
         -50      18.4691 -0.000248923 -3.85822e-05     -36.2776 
         -50      18.6561 -0.000250667 -3.72895e-05     -36.2762 
         -50      18.8441 -0.000250061  -3.8342e-05     -36.2749 
         -50       19.033 -0.000249253 -3.92564e-05     -36.2735 
         -50      19.2228 -0.000248151 -4.00185e-05     -36.2721 
         -50      19.4136  -0.00024673 -4.06286e-05     -36.2706 
         -50      19.6054 -0.000245128 -4.10786e-05     -36.2692 
         -50       19.798 -0.000243766 -4.13253e-05     -36.2677 
         -50      19.9917 -0.000243474 -4.12624e-05     -36.2663 
         -50      20.1862 -0.000245185 -4.19417e-05     -36.2648 
         -50      20.3818  -0.00024619  -4.2899e-05     -36.2633 
         -50      20.5782 -0.000246327 -4.36828e-05     -36.2618 
         -50      20.7756 -0.000245901 -4.43751e-05     -36.2602 
         -50       20.974 -0.000245134 -4.50218e-05     -36.2587 
         -50      21.1732 -0.000244184 -4.56401e-05     -36.2571 
         -50      21.3734 -0.000243155 -4.62279e-05     -36.2556 
         -50      21.5745  -0.00024211 -4.67697e-05      -36.254 
         -50      21.7767 -0.000241083 -4.72438e-05     -36.2524 
         -50      21.9797 -0.000240091 -4.76269e-05     -36.2508 
         -50      22.1837 -0.000239142  -4.7901e-05     -36.2491 
         -50      22.3886 -0.000238241 -4.80561e-05     -36.2475 
         -50      22.5945 -0.000237396 -4.80934e-05     -36.2458 
         -50      22.8013 -0.000236623 -4.80278e-05     -36.2441 
         -50      23.0091 -0.000235946 -4.78878e-05     -36.2425 
         -50      23.2177 -0.000235396 -4.77151e-05     -36.2408 
         -50      23.4274 -0.000235008 -4.75619e-05      -36.239 
         -50       23.638 -0.000234811 -4.74877e-05     -36.2373 
         -50      23.8495 -0.000234824 -4.75522e-05     -36.2356 
         -50       24.062 -0.000235034 -4.78085e-05     -36.2338 
         -50      24.2754 -0.000235387 -4.82922e-05      -36.232 
         -50      24.4897 -0.000235761 -4.90098e-05     -36.2302 
         -50       24.705 -0.000235941 -4.99234e-05     -36.2284 
         -50      24.9213  -0.00023559 -5.09338e-05     -36.2266 
         -50      25.1385 -0.000234212 -5.18583e-05     -36.2248 
         -50      25.3566 -0.000230528 -5.17797e-05      -36.223 
         -50      25.5756 -0.000223119 -5.08863e-05     -36.2211 
         -50      25.7957 -0.000222514  -5.1673e-05     -36.2192 
         -50      26.0166 -0.000224798 -5.20621e-05     -36.2174 
         -50      26.2385 -0.000227129 -5.18157e-05     -36.2155 
         -50      26.4613 -0.000229158 -5.13369e-05     -36.2136 
         -50      26.6851  -0.00023064 -5.08773e-05     -36.2117 
         -50      26.9098 -0.000231424 -5.05697e-05     -36.2097 
         -50      27.1354 -0.000231455 -5.04565e-05     -36.2078 
         -50      27.3621 -0.000230756 -5.05185e-05     -36.2058 
         -50      27.5896 -0.000229428 -5.06987e-05     -36.2039 
         -50      27.8181 -0.000227627 -5.09242e-05     -36.2019 
         -50      28.0475 -0.000225558 -5.11241e-05     -36.1999 
         -50      28.2779 -0.000223448 -5.12441e-05     -36.1979 
         -50      28.5092 -0.000221536 -5.12557e-05     -36.1959 
         -50      28.7414 -0.000220037 -5.11622e-05     -36.1939 
         -50      28.9746 -0.000219125 -5.09987e-05     -36.1919 
         -50      29.2088 -0.000218899 -5.08261e-05     -36.1898 
         -50      29.4439 -0.000219347 -5.07206e-05     -36.1878 
         -50      29.6799 -0.000220313  -5.0755e-05     -36.1857 
         -50      29.9168 -0.000221451 -5.09738e-05     -36.1837 
         -50      30.1548 -0.000222182 -5.13609e-05     -36.1816 
         -50      30.3936 -0.000221641 -5.17981e-05     -36.1795 
         -50      30.6334 -0.000218627 -5.20165e-05     -36.1774 
         -50      30.8742 -0.000213264 -5.17599e-05     -36.1753 
         -50      31.1158 -0.000214108 -5.18475e-05     -36.1732 
         -50      31.3584 -0.000215372 -5.17173e-05     -36.1711 
         -50       31.602 -0.000216497 -5.15062e-05     -36.1689 
         -50      31.8465 -0.000217159 -5.13061e-05     -36.1668 
         -50      32.0919 -0.000217223 -5.11718e-05     -36.1647 
         -50      32.3383 -0.000216695 -5.11278e-05     -36.1625 
         -50      32.5856 -0.000215681 -5.11755e-05     -36.1604 
         -50       32.834 -0.000214344 -5.12999e-05     -36.1582 
         -50      33.0831 -0.000212874 -5.14746e-05      -36.156 
         -50      33.3333 -0.000211452 -5.16686e-05     -36.1538 
         -50      33.5843 -0.000210228 -5.18496e-05     -36.1517 
         -50      33.8364 -0.000209303 -5.19893e-05     -36.1495 
         -50      34.0894 -0.000208716 -5.20655e-05     -36.1473 
         -50      34.3433 -0.000208435 -5.20654e-05     -36.1451 
         -50      34.5981 -0.000208364 -5.19868e-05     -36.1429 
         -50       34.854  -0.00020835 -5.18384e-05     -36.1407 
         -50      35.1107 -0.000208202 -5.16395e-05     -36.1385 
         -50      35.3684  -0.00020772 -5.14181e-05     -36.1362 
         -50      35.6271 -0.000206731 -5.12077e-05      -36.134 
         -50      35.8867 -0.000205142 -5.10437e-05     -36.1318 
         -50      36.1472 -0.000202998 -5.09564e-05     -36.1296 
         -50      36.4086 -0.000200555 -5.09647e-05     -36.1273 
         -50      36.6711 -0.000198412 -5.12585e-05     -36.1251 
         -50      36.9344 -0.000198411 -5.15276e-05     -36.1229 
         -50      37.1987 -0.000201558 -5.00323e-05     -36.1206 
         -50      37.4639 -0.000203634 -5.01316e-05     -36.1184 
         -50      37.7301 -0.000203275 -4.99555e-05     -36.1162 
         -50      37.9972 -0.000202378 -4.97462e-05     -36.1139 
         -50      38.2652 -0.000201131 -4.99108e-05     -36.1117 
         -50      38.5342 -0.000199775 -5.02361e-05     -36.1094 
         -50      38.8042 -0.000198488 -5.05711e-05     -36.1072 
         -50      39.0751 -0.000197391 -5.08162e-05     -36.1049 
         -50      39.3469 -0.000197181 -5.05252e-05     -36.1027 
         -50      39.6197 -0.000197154 -5.00477e-05     -36.1005 
         -50      39.8934 -0.000197146 -4.94996e-05     -36.0982 
         -50       40.168 -0.000197127 -4.89263e-05      -36.096 
         -50      40.4436 -0.000197078 -4.83717e-05     -36.0938 
         -50      40.7202 -0.000196981 -4.78748e-05     -36.0915 
         -50      40.9977 -0.000196826 -4.74682e-05     -36.0893 
         -50      41.2761 -0.000196605 -4.71739e-05     -36.0871 
         -50      41.5554 -0.000196311 -4.70026e-05     -36.0848 
         -50      41.8358 -0.000195938 -4.69523e-05     -36.0826 
         -50       42.117  -0.00019548  -4.7007e-05     -36.0804 
         -50      42.3992 -0.000194933 -4.71367e-05     -36.0782 
         -50      42.6823 -0.000194286 -4.72975e-05      -36.076 
         -50      42.9664 -0.000193531 -4.74332e-05     -36.0738 
         -50      43.2514 -0.000192653 -4.74758e-05     -36.0716 
         -50      43.5373 -0.000191639 -4.73495e-05     -36.0694 
         -50      43.8243 -0.000190467 -4.69724e-05     -36.0672 
         -50      44.1121 -0.000189117 -4.62619e-05      -36.065 
         -50      44.4009 -0.000187564 -4.51389e-05     -36.0629 
         -50      44.6906 -0.000185779  -4.3534e-05     -36.0607 
         -50      44.9813 -0.000184595 -4.19039e-05     -36.0585 
         -50      45.2729 -0.000188552 -4.33003e-05     -36.0564 
         -50      45.5654 -0.000190244 -4.36745e-05     -36.0542 
         -50      45.8589 -0.000190431 -4.34955e-05     -36.0521 
         -50      46.1534 -0.000189703  -4.3085e-05       -36.05 
         -50      46.4488   -0.0001885 -4.26418e-05     -36.0479 
         -50      46.7451 -0.000187128 -4.22643e-05     -36.0458 
         -50      47.0423 -0.000185771 -4.19729e-05     -36.0437 
         -50      47.3406 -0.000184513 -4.17301e-05     -36.0416 
         -50      47.6397 -0.000183353 -4.14598e-05     -36.0395 
         -50      47.9398 -0.000182989  -4.1553e-05     -36.0374 
         -50      48.2409 -0.000183216 -4.14623e-05     -36.0354 
         -50      48.5428 -0.000183706 -4.11802e-05     -36.0334 
         -50      48.8457 -0.000184164 -4.07377e-05     -36.0313 
         -50      49.1496  -0.00018434 -4.01965e-05     -36.0293 
         -50      49.4545 -0.000184044 -3.96378e-05     -36.0273 
         -50      49.7602 -0.000183165 -3.91494e-05     -36.0253 
         -50      50.0668 -0.000181687 -3.88047e-05     -36.0234 
         -50      50.3744 -0.000179704 -3.86409e-05     -36.0214 
         -50      50.6831 -0.000177437 -3.86298e-05     -36.0194 
         -50      50.9926 -0.000175252 -3.86447e-05     -36.0175 
         -50       51.303 -0.000173675 -3.84218e-05     -36.0156 
         -50      51.6144 -0.000173408 -3.75153e-05     -36.0137 
         -50      51.9268 -0.000174776  -3.6207e-05     -36.0118 
         -50        52.24 -0.000175687  -3.6684e-05     -36.0099 
         -50      52.5542 -0.000176811 -3.65225e-05     -36.0081 
         -50      52.8694  -0.00017782 -3.59492e-05     -36.0062 
         -50      53.1856 -0.000178355 -3.51155e-05     -36.0045 
         -50      53.5026 -0.000178018  -3.4101e-05     -36.0027 
         -50      53.8205 -0.000176375  -3.2914e-05     -36.0009 
         -50      54.1396 -0.000174285 -3.17833e-05     -35.9992 
         -50      54.4594 -0.000175256 -3.14483e-05     -35.9975 
         -50      54.7802 -0.000175343 -3.10374e-05     -35.9958 
         -50      55.1019 -0.000174919 -3.06232e-05     -35.9941 
         -50      55.4247 -0.000174247 -3.02409e-05     -35.9924 
         -50      55.7483 -0.000173501 -2.98994e-05     -35.9907 
         -50      56.0729 -0.000172782 -2.95892e-05     -35.9891 
         -50      56.3984 -0.000172141 -2.92902e-05     -35.9874 
         -50       56.725  -0.00017159 -2.89792e-05     -35.9858 
         -50      57.0523 -0.000171121 -2.86352e-05     -35.9843 
         -50      57.3807 -0.000170714 -2.82433e-05     -35.9827 
         -50      57.7099 -0.000170348  -2.7798e-05     -35.9812 
         -50      58.0403 -0.000170008 -2.73042e-05     -35.9796 
         -50      58.3714 -0.000169689  -2.6778e-05     -35.9782 
         -50      58.7035 -0.000169396 -2.62437e-05     -35.9767 
         -50      59.0367 -0.000169142  -2.5731e-05     -35.9753 
         -50      59.3707 -0.000168946 -2.52699e-05     -35.9739 
         -50      59.7056 -0.000168819 -2.48825e-05     -35.9725 
         -50      60.0414 -0.000168755 -2.45741e-05     -35.9712 
         -50      60.3784 -0.000168716 -2.43215e-05     -35.9698 
         -50      60.7161 -0.000168608 -2.40595e-05     -35.9685 
         -50      61.0548 -0.000168257  -2.3664e-05     -35.9673 
         -50      61.3944 -0.000167382 -2.29336e-05      -35.966 
         -50      61.7351 -0.000165558 -2.15674e-05     -35.9648 
         -50      62.0767 -0.000163632 -2.00371e-05     -35.9636 
         -50      62.4191 -0.000164655 -2.07238e-05     -35.9625 
         -50      62.7625 -0.000164115 -2.07662e-05     -35.9613 
         -50       63.107  -0.00016303 -2.03724e-05     -35.9602 
         -50      63.4523 -0.000162079 -1.97083e-05     -35.9592 
         -50      63.7985 -0.000161658 -1.89013e-05     -35.9581 
         -50      64.1458 -0.000161938 -1.80456e-05     -35.9571 
         -50      64.4939  -0.00016291 -1.72077e-05     -35.9561 
         -50       64.843 -0.000164441 -1.64288e-05     -35.9552 
         -50      65.1929 -0.000166311 -1.57305e-05     -35.9543 
         -50       65.544 -0.000168258 -1.51179e-05     -35.9534 
         -50      65.8959  -0.00017001 -1.45846e-05     -35.9525 
         -50      66.2487 -0.000171315 -1.41147e-05     -35.9517 
         -50      66.6025 -0.000171971  -1.3687e-05     -35.9509 
         -50      66.9573 -0.000171842 -1.32776e-05     -35.9501 
         -50       67.313 -0.000170873 -1.28632e-05     -35.9494 
         -50      67.6695 -0.000169098 -1.24224e-05     -35.9487 
         -50      68.0271 -0.000166643 -1.19384e-05      -35.948 
         -50      68.3857 -0.000163719 -1.14003e-05     -35.9474 
         -50      68.7451 -0.000160613 -1.08051e-05     -35.9468 
         -50      69.1055  -0.00015766 -1.01571e-05     -35.9462 
         -50      69.4669 -0.000155224 -9.46936e-06     -35.9457 
         -50      69.8291 -0.000153658 -8.76368e-06     -35.9452 
         -50      70.1923 -0.000153253   -8.069e-06     -35.9447 
         -50      70.5564 -0.000154192 -7.42106e-06     -35.9442 
         -50      70.9217  -0.00015648 -6.86031e-06     -35.9438 
         -50      71.2877  -0.00015987 -6.43053e-06     -35.9434 
         -50      71.6546 -0.000163778 -6.17459e-06     -35.9431 
         -50      72.0225 -0.000167186 -6.13187e-06     -35.9427 
         -50      72.3915 -0.000168536 -6.33401e-06     -35.9424 
         -50      72.7613 -0.000168253   -6.282e-06      -35.942 
         -50       73.132 -0.000174681  -4.3365e-06     -35.9416 
         -50      73.5036 -0.000175793 -2.59202e-06     -35.9412 
         -50      73.8764 -0.000166605 -1.16777e-06      -35.941 
         -50      74.2499 -0.000140444 -1.85566e-07     -35.9408 
         -50      74.6244 -8.86088e-05  2.39009e-07     -35.9406 
         -50           75           -0  4.96139e-17     -35.9406 
         -25            0 -2.75653e-19 -2.60541e-24     -35.3406 
         -25     0.000471 -2.69689e-05 -2.65056e-10     -35.3406 
         -25     0.001884 -9.56364e-05 -1.05843e-09     -35.3406 
         -25     0.004239 -0.000175695 -2.38081e-09     -35.3406 
         -25     0.007537 -0.000234787 -4.25204e-09     -35.3406 
         -25     0.011776  -0.00025571 -6.72979e-09     -35.3406 
         -25     0.016958 -0.000245223 -9.93292e-09     -35.3406 
         -25     0.023081 -0.000227815 -1.40512e-08     -35.3406 
         -25      0.03015  -0.00022657 -1.93641e-08     -35.3406 
         -25     0.038157 -0.000243127 -2.62452e-08     -35.3406 
         -25     0.047107 -0.000255496 -3.52242e-08     -35.3406 
         -25     0.056999 -0.000246354 -4.70584e-08     -35.3406 
         -25     0.067837 -0.000241952 -6.28755e-08     -35.3406 
         -25     0.079614 -0.000264516 -8.42952e-08     -35.3406 
         -25     0.092332 -0.000255469 -1.12642e-07     -35.3406 
         -25     0.105992 -0.000260509 -1.49224e-07     -35.3406 
         -25       0.1206 -0.000262311 -1.96194e-07     -35.3406 
         -25     0.136145 -0.000263904 -2.55343e-07     -35.3406 
         -25     0.152631 -0.000266061 -3.28357e-07     -35.3406 
         -25     0.170067  -0.00026804 -4.16944e-07     -35.3406 
         -25     0.188438 -0.000268945  -5.2283e-07     -35.3406 
         -25     0.207751 -0.000269047 -6.48004e-07     -35.3406 
         -25     0.228006 -0.000269696 -7.94161e-07     -35.3406 
         -25     0.249212 -0.000269502 -9.61487e-07     -35.3406 
         -25     0.271351 -0.000269325 -1.15262e-06     -35.3406 
         -25     0.294433 -0.000268846  -1.3704e-06     -35.3406 
         -25     0.318456 -0.000268072  -1.6137e-06     -35.3406 
         -25     0.343432 -0.000267123 -1.88186e-06     -35.3406 
         -25     0.369339 -0.000266076 -2.17398e-06     -35.3406 
         -25     0.396189 -0.000264977 -2.48936e-06     -35.3406 
         -25     0.423981 -0.000263847 -2.82671e-06     -35.3406 
         -25     0.452726 -0.000262699 -3.18433e-06     -35.3406 
         -25     0.482403 -0.000261549 -3.55969e-06     -35.3406 
         -25     0.513021 -0.000260429  -3.9509e-06     -35.3406 
         -25     0.544594 -0.000259372 -4.35793e-06     -35.3406 
         -25     0.577096 -0.000258392 -4.78482e-06     -35.3406 
         -25     0.610541 -0.000257409 -5.24373e-06     -35.3406 
         -25     0.644927  -0.00025648 -5.70316e-06     -35.3406 
         -25      0.68027 -0.000255545 -6.17676e-06     -35.3406 
         -25     0.716541 -0.000254577 -6.65624e-06     -35.3406 
         -25     0.753754 -0.000253556 -7.13574e-06     -35.3406 
         -25     0.791909 -0.000252465 -7.61101e-06     -35.3406 
         -25     0.831022 -0.000251293  -8.0796e-06     -35.3406 
         -25     0.871061 -0.000250037 -8.53978e-06     -35.3406 
         -25     0.912043 -0.000248698 -8.99135e-06     -35.3406 
         -25     0.953966 -0.000247283 -9.43429e-06     -35.3406 
         -25     0.996849 -0.000245805 -9.86874e-06     -35.3406 
         -25      1.04066 -0.000244283 -1.02937e-05     -35.3406 
         -25      1.08541 -0.000242738 -1.07078e-05     -35.3405 
         -25      1.13112 -0.000241199 -1.11084e-05     -35.3405 
         -25      1.17775 -0.000239699 -1.14911e-05     -35.3405 
         -25      1.22533 -0.000238275 -1.18516e-05     -35.3405 
         -25      1.27384 -0.000236973 -1.21854e-05     -35.3405 