Variables = x, y, u, v, p

Zone, I=6400, F=POINT
         -50            0            0            0      2.20826 
         -50     0.000471  5.90434e-06  5.67708e-11      2.20826 
         -50     0.001884   2.1096e-05  1.41405e-10      2.20826 
         -50     0.004239  3.93374e-05 -8.53988e-11      2.20826 
         -50     0.007537   5.3984e-05 -1.41297e-09      2.20826 
         -50     0.011776  6.15127e-05 -5.25699e-09      2.20826 
         -50     0.016958  6.32878e-05 -1.36729e-08      2.20826 
         -50     0.023081  6.41856e-05 -2.90981e-08      2.20826 
         -50      0.03015  6.85953e-05 -5.39179e-08      2.20826 
         -50     0.038157   7.6325e-05 -8.99456e-08      2.20826 
         -50     0.047107  8.24184e-05 -1.38389e-07      2.20826 
         -50     0.056999  8.33975e-05 -2.00198e-07      2.20826 
         -50     0.067837  8.55496e-05 -2.76733e-07      2.20826 
         -50     0.079614  9.42402e-05 -3.68816e-07      2.20826 
         -50     0.092332  9.62414e-05 -4.74477e-07      2.20826 
         -50     0.105992  0.000101677 -5.92432e-07      2.20826 
         -50       0.1206  0.000106834 -7.19245e-07      2.20826 
         -50     0.136145  0.000112156 -8.51046e-07      2.20826 
         -50     0.152631  0.000117697  -9.8368e-07      2.20826 
         -50     0.170067  0.000123248 -1.11248e-06      2.20826 
         -50     0.188438  0.000128566  -1.2322e-06      2.20826 
         -50     0.207751  0.000133619 -1.33824e-06      2.20826 
         -50     0.228006  0.000138579 -1.42905e-06      2.20826 
         -50     0.249212  0.000143201 -1.51186e-06      2.20826 
         -50     0.271351  0.000147565 -1.58882e-06      2.20826 
         -50     0.294433  0.000151622 -1.67505e-06      2.20826 
         -50     0.318456  0.000155373 -1.79645e-06      2.20826 
         -50     0.343432  0.000158839  -1.9708e-06      2.20826 
         -50     0.369339  0.000162031 -2.20462e-06      2.20825 
         -50     0.396189  0.000164958 -2.49135e-06      2.20825 
         -50     0.423981  0.000167621 -2.81012e-06      2.20825 
         -50     0.452726  0.000170017 -3.12711e-06      2.20825 
         -50     0.482403  0.000172137 -3.39954e-06      2.20825 
         -50     0.513021  0.000173969 -3.58517e-06      2.20825 
         -50     0.544594    0.0001755 -3.65687e-06      2.20825 
         -50     0.577096  0.000176706 -3.62564e-06      2.20825 
         -50     0.610541   0.00017755  -3.5756e-06      2.20825 
         -50     0.644927  0.000178037 -3.57472e-06      2.20825 
         -50      0.68027  0.000178125 -3.55876e-06      2.20825 
         -50     0.716541  0.000177782 -3.54876e-06      2.20825 
         -50     0.753754  0.000176986 -3.55778e-06      2.20825 
         -50     0.791909  0.000175731 -3.59137e-06      2.20825 
         -50     0.831022  0.000174023 -3.64836e-06      2.20825 
         -50     0.871061  0.000171883 -3.72209e-06      2.20825 
         -50     0.912043  0.000169344 -3.80222e-06      2.20825 
         -50     0.953966  0.000166451 -3.87675e-06      2.20824 
         -50     0.996849   0.00016326 -3.93421e-06      2.20824 
         -50      1.04066  0.000159833 -3.96583e-06      2.20824 
         -50      1.08541  0.000156235 -3.96763e-06      2.20824 
         -50      1.13112  0.000152529 -3.94173e-06      2.20824 
         -50      1.17775  0.000148772 -3.89673e-06      2.20824 
         -50      1.22533  0.000145005 -3.84659e-06      2.20824 
         -50      1.27384  0.000141248 -3.80736e-06      2.20824 
         -50      1.32333   0.00013749 -3.79101e-06      2.20823 
         -50      1.37373  0.000133683 -3.79552e-06      2.20823 
         -50      1.42507  0.000129726 -3.79017e-06      2.20823 
         -50      1.47736  0.000125455 -3.69475e-06      2.20823 
         -50      1.53061  0.000118648 -3.52404e-06      2.20823 
         -50      1.58478  0.000109218 -3.45446e-06      2.20823 
         -50      1.63989  9.99161e-05 -3.37605e-06      2.20822 
         -50      1.69595  9.09074e-05 -3.29365e-06      2.20822 
         -50      1.75297  8.23158e-05 -3.21296e-06      2.20822 
         -50      1.81091  7.42352e-05 -3.14034e-06      2.20822 
         -50      1.86979  6.67133e-05  -3.0823e-06      2.20822 
         -50      1.92964  5.97644e-05 -3.04522e-06      2.20821 
         -50       1.9904  5.33824e-05 -3.03492e-06      2.20821 
         -50      2.05211  4.75277e-05 -3.05615e-06      2.20821 
         -50      2.11476   4.2146e-05 -3.11215e-06      2.20821 
         -50      2.17838  3.71693e-05 -3.20427e-06       2.2082 
         -50      2.24291  3.25307e-05  -3.3313e-06       2.2082 
         -50      2.30839  2.81604e-05  -3.4893e-06       2.2082 
         -50       2.3748  2.40009e-05 -3.67114e-06      2.20819 
         -50      2.44219  2.00107e-05 -3.86631e-06      2.20819 
         -50      2.51049  1.61764e-05  -4.0605e-06      2.20819 
         -50      2.57974  1.25086e-05 -4.23605e-06      2.20818 
         -50      2.64993  9.05194e-06 -4.37191e-06      2.20818 
         -50      2.72108  5.88258e-06 -4.44414e-06      2.20818 
         -50      2.79315  3.11136e-06 -4.42661e-06      2.20817 
         -50      2.86617  8.69892e-07 -4.29235e-06      2.20817 
         -50      2.94012 -6.95243e-07 -4.01486e-06      2.20817 
         -50      3.01505  -1.4409e-06 -3.57008e-06      2.20816 
         -50      3.09089 -1.25053e-06 -2.93975e-06      2.20816 
         -50      3.16767  -6.8451e-08 -2.11372e-06      2.20815 
         -50      3.24542  2.06055e-06 -1.09409e-06      2.20815 
         -50      3.32409  4.93315e-06  9.80731e-08      2.20814 
         -50       3.4037  8.12615e-06  1.41945e-06      2.20814 
         -50      3.48425  1.09112e-05  2.79564e-06      2.20814 
         -50      3.56577  1.21565e-05  4.11379e-06      2.20813 
         -50       3.6482  1.02067e-05  5.21067e-06      2.20813 
         -50      3.73158    2.746e-06  5.86457e-06      2.20812 
         -50       3.8159  5.77265e-07  6.21332e-06      2.20811 
         -50      3.90119  3.26505e-06  6.59168e-06      2.20811 
         -50       3.9874  7.75273e-06  7.27759e-06       2.2081 
         -50      4.07454  1.21402e-05  7.91229e-06       2.2081 
         -50      4.16263   1.6101e-05  8.51094e-06      2.20809 
         -50      4.25169  1.94673e-05  9.07196e-06      2.20809 
         -50      4.34166  2.21798e-05  9.57817e-06      2.20808 
         -50      4.43258  2.42715e-05  1.00101e-05      2.20807 
         -50      4.52447  2.58366e-05  1.03554e-05      2.20807 
         -50      4.61726  2.70051e-05   1.0617e-05      2.20806 
         -50        4.711  2.79227e-05  1.08185e-05      2.20805 
         -50      4.80569  2.87258e-05  1.10052e-05      2.20804 
         -50      4.90135  2.95237e-05  1.12406e-05      2.20804 
         -50      4.99791  3.03823e-05  1.15968e-05      2.20803 
         -50      5.09542  3.13161e-05  1.21389e-05      2.20802 
         -50      5.19387  3.22839e-05  1.29005e-05      2.20801 
         -50       5.2933  3.31946e-05  1.38506e-05      2.20801 
         -50      5.39364  3.39202e-05  1.48471e-05        2.208 
         -50      5.49491  3.43248e-05   1.5583e-05      2.20799 
         -50      5.59713  3.43027e-05  1.55131e-05      2.20798 
         -50      5.70033  3.48819e-05  1.49096e-05      2.20797 
         -50      5.80443  3.65386e-05  1.55282e-05      2.20796 
         -50      5.90948  3.73711e-05  1.57575e-05      2.20795 
         -50      6.01551  3.79373e-05    1.575e-05      2.20794 
         -50      6.12244  3.85646e-05  1.56192e-05      2.20793 
         -50      6.23031  3.93886e-05  1.54459e-05      2.20792 
         -50      6.33912  4.03941e-05  1.52844e-05      2.20791 
         -50      6.44892  4.14624e-05  1.51693e-05       2.2079 
         -50      6.55962  4.24209e-05  1.51223e-05      2.20789 
         -50      6.67126  4.31014e-05  1.51592e-05      2.20788 
         -50      6.78384   4.3398e-05  1.52987e-05      2.20787 
         -50      6.89741  4.32522e-05  1.53796e-05      2.20786 
         -50      7.01187      4.3e-05  1.52798e-05      2.20785 
         -50      7.12728  4.30221e-05  1.51274e-05      2.20783 
         -50      7.24363  4.35072e-05  1.50249e-05      2.20782 
         -50      7.36097  4.44589e-05  1.50489e-05      2.20781 
         -50       7.4792  4.57184e-05  1.52472e-05       2.2078 
         -50      7.59838   4.7008e-05  1.56322e-05      2.20778 
         -50      7.71854  4.79937e-05  1.61706e-05      2.20777 
         -50       7.8396  4.83704e-05  1.67671e-05      2.20776 
         -50      7.96161  4.79789e-05  1.72459e-05      2.20774 
         -50      8.08455  4.69484e-05   1.7323e-05      2.20773 
         -50      8.20849  4.58746e-05  1.65734e-05      2.20771 
         -50      8.33332  4.62279e-05  1.62062e-05       2.2077 
         -50      8.45909  4.72907e-05  1.71775e-05      2.20769 
         -50       8.5858  4.81617e-05  1.75541e-05      2.20767 
         -50      8.71351   4.8887e-05  1.75683e-05      2.20765 
         -50       8.8421  4.94852e-05  1.73868e-05      2.20764 
         -50      8.97164  4.99564e-05   1.7122e-05      2.20762 
         -50      9.10212  5.02896e-05  1.68438e-05      2.20761 
         -50       9.2336  5.04711e-05  1.65896e-05      2.20759 
         -50      9.36596  5.04922e-05  1.63745e-05      2.20757 
         -50      9.49927   5.0358e-05  1.61987e-05      2.20755 
         -50      9.63352  5.00943e-05  1.60543e-05      2.20754 
         -50      9.76877   4.9755e-05  1.59297e-05      2.20752 
         -50       9.9049  4.94291e-05  1.58115e-05       2.2075 
         -50       10.042  4.92462e-05  1.56834e-05      2.20748 
         -50      10.1801  4.93819e-05  1.55226e-05      2.20746 
         -50       10.319  5.00618e-05  1.52915e-05      2.20744 
         -50      10.4589  4.97815e-05  1.53432e-05      2.20742 
         -50      10.5998  4.97689e-05  1.56802e-05       2.2074 
         -50      10.7416  5.04883e-05  1.61783e-05      2.20738 
         -50      10.8843  5.15798e-05  1.67104e-05      2.20736 
         -50       11.028  5.24178e-05  1.70134e-05      2.20734 
         -50      11.1726  5.19991e-05  1.66496e-05      2.20732 
         -50      11.3182  4.88005e-05  1.49585e-05       2.2073 
         -50      11.4647  5.04484e-05  1.55648e-05      2.20728 
         -50      11.6122  5.17643e-05  1.61229e-05      2.20726 
         -50      11.7605  5.21927e-05  1.63729e-05      2.20723 
         -50      11.9099  5.20616e-05  1.64731e-05      2.20721 
         -50      12.0602   5.1647e-05  1.65502e-05      2.20719 
         -50      12.2114  5.11827e-05  1.66853e-05      2.20716 
         -50      12.3636  5.08695e-05  1.69042e-05      2.20714 
         -50      12.5167  5.06446e-05  1.71775e-05      2.20712 
         -50      12.6707  5.06551e-05  1.70858e-05      2.20709 
         -50      12.8257   5.0756e-05  1.67656e-05      2.20707 
         -50      12.9817   5.0846e-05   1.6324e-05      2.20704 
         -50      13.1386  5.08663e-05  1.58428e-05      2.20701 
         -50      13.2964  5.07978e-05  1.53807e-05      2.20699 
         -50      13.4551   5.0657e-05  1.49776e-05      2.20696 
         -50      13.6149  5.04888e-05  1.46568e-05      2.20694 
         -50      13.7755  5.03583e-05  1.44291e-05      2.20691 
         -50      13.9371  5.03397e-05  1.42944e-05      2.20688 
         -50      14.0996  5.05025e-05  1.42445e-05      2.20685 
         -50      14.2631  5.08954e-05  1.42655e-05      2.20682 
         -50      14.4275  5.15262e-05  1.43389e-05       2.2068 
         -50      14.5928  5.23394e-05   1.4443e-05      2.20677 
         -50      14.7592  5.31902e-05  1.45536e-05      2.20674 
         -50      14.9264  5.38122e-05  1.46436e-05      2.20671 
         -50      15.0946  5.37856e-05  1.46825e-05      2.20668 
         -50      15.2637  5.24961e-05  1.46349e-05      2.20665 
         -50      15.4338  4.90902e-05  1.44574e-05      2.20662 
         -50      15.6048  4.91617e-05  1.43888e-05      2.20659 
         -50      15.7767  5.14408e-05  1.44263e-05      2.20655 
         -50      15.9496  5.25799e-05  1.44779e-05      2.20652 
         -50      16.1235  5.28055e-05  1.45711e-05      2.20649 
         -50      16.2982  5.23862e-05    1.471e-05      2.20646 
         -50      16.4739  5.16015e-05   1.4882e-05      2.20642 
         -50      16.6506   5.0714e-05  1.50639e-05      2.20639 
         -50      16.8282  4.99457e-05  1.52283e-05      2.20636 
         -50      17.0068  4.94592e-05  1.53483e-05      2.20632 
         -50      17.1862  4.93417e-05   1.5404e-05      2.20629 
         -50      17.3667  4.95975e-05  1.53863e-05      2.20626 
         -50      17.5481  5.01441e-05   1.5302e-05      2.20622 
         -50      17.7304  5.08177e-05   1.5177e-05      2.20618 
         -50      17.9136  5.13848e-05  1.50592e-05      2.20615 
         -50      18.0979  5.15636e-05  1.50208e-05      2.20611 
         -50       18.283  5.10535e-05  1.51598e-05      2.20608 
         -50      18.4691   4.9577e-05  1.55994e-05      2.20604 
         -50      18.6561  4.71358e-05  1.64034e-05        2.206 
         -50      18.8441  4.73492e-05  1.62725e-05      2.20596 
         -50       19.033  4.77548e-05  1.62763e-05      2.20593 
         -50      19.2228  4.85158e-05  1.63142e-05      2.20589 
         -50      19.4136  4.96454e-05  1.63683e-05      2.20585 
         -50      19.6054   5.0909e-05  1.65251e-05      2.20581 
         -50       19.798  5.17074e-05  1.69993e-05      2.20577 
         -50      19.9917  5.09462e-05  1.81607e-05      2.20573 
         -50      20.1862  4.84766e-05  1.85782e-05      2.20569 
         -50      20.3818  4.72104e-05  1.83758e-05      2.20565 
         -50      20.5782  4.68739e-05  1.82424e-05      2.20561 
         -50      20.7756  4.71027e-05  1.81354e-05      2.20557 
         -50       20.974  4.76305e-05  1.80295e-05      2.20553 
         -50      21.1732  4.82709e-05  1.79128e-05      2.20549 
         -50      21.3734  4.89034e-05  1.77839e-05      2.20545 
         -50      21.5745  4.94582e-05  1.76481e-05       2.2054 
         -50      21.7767  4.99024e-05  1.75151e-05      2.20536 
         -50      21.9797  5.02278e-05  1.73962e-05      2.20532 
         -50      22.1837  5.04409e-05  1.73017e-05      2.20528 
         -50      22.3886  5.05532e-05  1.72397e-05      2.20523 
         -50      22.5945  5.05742e-05  1.72135e-05      2.20519 
         -50      22.8013  5.05064e-05  1.72215e-05      2.20515 
         -50      23.0091  5.03429e-05  1.72561e-05       2.2051 
         -50      23.2177  5.00672e-05  1.73039e-05      2.20506 
         -50      23.4274  4.96562e-05  1.73461e-05      2.20501 
         -50       23.638  4.90865e-05  1.73601e-05      2.20497 
         -50      23.8495  4.83435e-05  1.73212e-05      2.20492 
         -50       24.062  4.74345e-05  1.72055e-05      2.20488 
         -50      24.2754  4.64078e-05  1.69938e-05      2.20483 
         -50      24.4897  4.53718e-05  1.66759e-05      2.20478 
         -50       24.705  4.45233e-05  1.62564e-05      2.20474 
         -50      24.9213  4.41785e-05   1.5761e-05      2.20469 
         -50      25.1385  4.48105e-05  1.52454e-05      2.20464 
         -50      25.3566   4.7575e-05  1.62704e-05       2.2046 
         -50      25.5756  5.44884e-05  1.70435e-05      2.20455 
         -50      25.7957  5.45684e-05  1.62531e-05       2.2045 
         -50      26.0166    5.289e-05  1.59219e-05      2.20446 
         -50      26.2385  5.04351e-05  1.62767e-05      2.20441 
         -50      26.4613  4.78044e-05  1.68611e-05      2.20436 
         -50      26.6851  4.54301e-05   1.7387e-05      2.20431 
         -50      26.9098  4.35968e-05  1.77004e-05      2.20426 
         -50      27.1354  4.24528e-05  1.77497e-05      2.20421 
         -50      27.3621  4.20322e-05  1.75554e-05      2.20416 
         -50      27.5896  4.22744e-05  1.71832e-05      2.20411 
         -50      27.8181  4.30432e-05  1.67203e-05      2.20406 
         -50      28.0475  4.41496e-05   1.6255e-05      2.20401 
         -50      28.2779  4.53742e-05  1.58609e-05      2.20396 
         -50      28.5092  4.64893e-05  1.55853e-05      2.20391 
         -50      28.7414  4.72863e-05  1.54417e-05      2.20386 
         -50      28.9746  4.75997e-05  1.54087e-05      2.20381 
         -50      29.2088  4.73342e-05  1.54342e-05      2.20376 
         -50      29.4439  4.64932e-05  1.54459e-05      2.20371 
         -50      29.6799  4.52073e-05  1.53685e-05      2.20366 
         -50      29.9168  4.37644e-05   1.5149e-05      2.20361 
         -50      30.1548  4.26409e-05  1.47883e-05      2.20355 
         -50      30.3936  4.25352e-05  1.43835e-05       2.2035 
         -50      30.6334  4.43984e-05  1.41773e-05      2.20345 
         -50      30.8742  4.81288e-05  1.43614e-05       2.2034 
         -50      31.1158  4.68615e-05  1.39916e-05      2.20335 
         -50      31.3584  4.50802e-05   1.3821e-05      2.20329 
         -50       31.602  4.33596e-05  1.37437e-05      2.20324 
         -50      31.8465  4.20401e-05   1.3688e-05      2.20319 
         -50      32.0919  4.12773e-05  1.36107e-05      2.20313 
         -50      32.3383   4.1083e-05  1.34918e-05      2.20308 
         -50      32.5856  4.13695e-05  1.33286e-05      2.20303 
         -50       32.834  4.19873e-05  1.31314e-05      2.20297 
         -50      33.0831  4.27575e-05  1.29185e-05      2.20292 
         -50      33.3333   4.3503e-05  1.27122e-05      2.20287 
         -50      33.5843  4.40719e-05  1.25351e-05      2.20281 
         -50      33.8364  4.43568e-05  1.24068e-05      2.20276 
         -50      34.0894  4.43075e-05  1.23418e-05       2.2027 
         -50      34.3433  4.39382e-05  1.23473e-05      2.20265 
         -50      34.5981  4.33266e-05  1.24219e-05      2.20259 
         -50       34.854  4.26057e-05  1.25554e-05      2.20254 
         -50      35.1107  4.19485e-05   1.2729e-05      2.20248 
         -50      35.3684  4.15418e-05  1.29167e-05      2.20243 
         -50      35.6271  4.15526e-05  1.30877e-05      2.20237 
         -50      35.8867  4.20835e-05  1.32089e-05      2.20232 
         -50      36.1472  4.31172e-05  1.32503e-05      2.20226 
         -50      36.4086  4.44504e-05  1.31897e-05      2.20221 
         -50      36.6711  4.57492e-05  1.29101e-05      2.20215 
         -50      36.9344  4.57979e-05  1.23984e-05       2.2021 
         -50      37.1987  4.33269e-05  1.25843e-05      2.20204 
         -50      37.4639  4.14745e-05   1.2739e-05      2.20198 
         -50      37.7301   4.0899e-05  1.24373e-05      2.20193 
         -50      37.9972  4.06697e-05   1.1863e-05      2.20187 
         -50      38.2652  4.08223e-05  1.12142e-05      2.20182 
         -50      38.5342  4.11201e-05  1.06792e-05      2.20176 
         -50      38.8042  4.13774e-05  1.03611e-05       2.2017 
         -50      39.0751  4.14583e-05  1.02961e-05      2.20165 
         -50      39.3469  4.09947e-05  1.06759e-05      2.20159 
         -50      39.6197  4.04699e-05  1.10496e-05      2.20153 
         -50      39.8934  3.99783e-05  1.13371e-05      2.20148 
         -50       40.168   3.9531e-05  1.15234e-05      2.20142 
         -50      40.4436  3.91329e-05  1.16004e-05      2.20136 
         -50      40.7202   3.8785e-05  1.15686e-05       2.2013 
         -50      40.9977  3.84876e-05  1.14375e-05      2.20125 
         -50      41.2761  3.82413e-05  1.12252e-05      2.20119 
         -50      41.5554  3.80485e-05  1.09578e-05      2.20113 
         -50      41.8358  3.79146e-05  1.06676e-05      2.20107 
         -50       42.117  3.78481e-05  1.03912e-05      2.20102 
         -50      42.3992  3.78596e-05   1.0166e-05      2.20096 
         -50      42.6823  3.79612e-05  1.00259e-05       2.2009 
         -50      42.9664  3.81643e-05  9.99717e-06      2.20084 
         -50      43.2514  3.84768e-05  1.00916e-05      2.20078 
         -50      43.5373  3.88998e-05  1.03001e-05      2.20073 
         -50      43.8243  3.94226e-05  1.05846e-05      2.20067 
         -50      44.1121  4.00175e-05  1.08679e-05      2.20061 
         -50      44.4009  4.06332e-05  1.10248e-05      2.20055 
         -50      44.6906  4.11875e-05  1.08688e-05      2.20049 
         -50      44.9813   4.1041e-05  1.02541e-05      2.20043 
         -50      45.2729  3.79415e-05  1.02997e-05      2.20037 
         -50      45.5654  3.65332e-05  1.04313e-05      2.20031 
         -50      45.8589  3.60711e-05  1.05689e-05      2.20026 
         -50      46.1534  3.60198e-05  1.06623e-05       2.2002 
         -50      46.4488   3.6028e-05  1.06851e-05      2.20014 
         -50      46.7451  3.59039e-05  1.06296e-05      2.20008 
         -50      47.0423  3.55905e-05  1.05012e-05      2.20002 
         -50      47.3406  3.51395e-05  1.03137e-05      2.19996 
         -50      47.6397  3.46883e-05  1.00858e-05      2.19991 
         -50      47.9398  3.52116e-05  9.87542e-06      2.19984 
         -50      48.2409  3.52839e-05  9.71474e-06      2.19978 
         -50      48.5428    3.502e-05  9.67265e-06      2.19972 
         -50      48.8457  3.45631e-05  9.76977e-06      2.19966 
         -50      49.1496  3.40795e-05  9.97793e-06       2.1996 
         -50      49.4545  3.37484e-05  1.02263e-05      2.19954 
         -50      49.7602  3.37441e-05  1.04143e-05      2.19948 
         -50      50.0668  3.42071e-05   1.0434e-05      2.19943 
         -50      50.3744  3.52067e-05  1.01991e-05      2.19937 
         -50      50.6831  3.66937e-05  9.68306e-06      2.19932 
         -50      50.9926  3.84378e-05  8.96855e-06      2.19927 
         -50       51.303  3.99602e-05  8.30334e-06      2.19922 
         -50      51.6144  4.04484e-05  8.16936e-06      2.19918 
         -50      51.9268  3.96015e-05  8.54902e-06      2.19913 
         -50        52.24  3.93984e-05  7.53527e-06      2.19906 
         -50      52.5542  3.80148e-05  7.09631e-06      2.19898 
         -50      52.8694  3.61792e-05   7.0826e-06      2.19891 
         -50      53.1856   3.4535e-05  7.35027e-06      2.19882 
         -50      53.5026  3.36538e-05   7.7581e-06      2.19874 
         -50      53.8205  3.40391e-05  8.16551e-06      2.19865 
         -50      54.1396   3.5036e-05  8.43839e-06      2.19856 
         -50      54.4594  3.36281e-05  8.59672e-06      2.19848 
         -50      54.7802   3.3084e-05  8.63267e-06      2.19841 
         -50      55.1019  3.31267e-05  8.53365e-06      2.19834 
         -50      55.4247  3.35292e-05  8.31197e-06      2.19828 
         -50      55.7483  3.41099e-05  7.99695e-06      2.19823 
         -50      56.0729  3.47307e-05  7.62692e-06      2.19817 
         -50      56.3984  3.52921e-05  7.24304e-06      2.19811 
         -50       56.725  3.57292e-05  6.88355e-06      2.19805 
         -50      57.0523  3.60073e-05  6.57983e-06      2.19799 
         -50      57.3807  3.61181e-05  6.35228e-06      2.19793 
         -50      57.7099  3.60742e-05  6.20867e-06      2.19786 
         -50      58.0403  3.59045e-05  6.14327e-06       2.1978 
         -50      58.3714  3.56489e-05  6.13736e-06      2.19772 
         -50      58.7035  3.53529e-05  6.16112e-06      2.19765 
         -50      59.0367  3.50615e-05  6.17733e-06      2.19757 
         -50      59.3707  3.48142e-05  6.14641e-06       2.1975 
         -50      59.7056  3.46378e-05  6.03341e-06      2.19742 
         -50      60.0414  3.45401e-05  5.81668e-06      2.19734 
         -50      60.3784  3.45038e-05  5.49831e-06      2.19726 
         -50      60.7161  3.44786e-05  5.11735e-06      2.19718 
         -50      61.0548  3.43745e-05  4.76377e-06       2.1971 
         -50      61.3944   3.4054e-05  4.59587e-06      2.19703 
         -50      61.7351  3.33238e-05  4.85967e-06      2.19695 
         -50      62.0767  3.38971e-05  5.27373e-06      2.19688 
         -50      62.4191  3.89829e-05  4.25779e-06      2.19682 
         -50      62.7625  4.10958e-05  3.83593e-06      2.19673 
         -50       63.107  4.12133e-05  3.79375e-06      2.19664 
         -50      63.4523   4.0108e-05    3.963e-06      2.19654 
         -50      63.7985  3.83723e-05  4.21629e-06      2.19644 
         -50      64.1458  3.64406e-05  4.46213e-06      2.19635 
         -50      64.4939  3.46155e-05  4.63951e-06      2.19625 
         -50       64.843  3.30851e-05  4.71373e-06      2.19616 
         -50      65.1929  3.19463e-05  4.67129e-06      2.19608 
         -50       65.544   3.1224e-05  4.51558e-06        2.196 
         -50      65.8959  3.08895e-05  4.26298e-06      2.19593 
         -50      66.2487  3.08759e-05  3.93856e-06      2.19587 
         -50      66.6025  3.10941e-05  3.57267e-06      2.19581 
         -50      66.9573  3.14465e-05  3.19742e-06      2.19575 
         -50       67.313  3.18381e-05  2.84424e-06       2.1957 
         -50      67.6695  3.21866e-05  2.54034e-06      2.19564 
         -50      68.0271  3.24303e-05  2.30696e-06      2.19559 
         -50      68.3857  3.25335e-05  2.15729e-06      2.19554 
         -50      68.7451  3.24901e-05  2.09518e-06      2.19548 
         -50      69.1055  3.23243e-05  2.11371e-06      2.19543 
         -50      69.4669  3.20892e-05  2.19495e-06      2.19537 
         -50      69.8291  3.18629e-05  2.30959e-06      2.19531 
         -50      70.1923  3.17406e-05  2.41761e-06      2.19526 
         -50      70.5564  3.18251e-05  2.46916e-06      2.19521 
         -50      70.9217  3.22135e-05  2.40606e-06      2.19516 
         -50      71.2877  3.29806e-05  2.16416e-06      2.19513 
         -50      71.6546  3.41589e-05  1.67601e-06      2.19512 
         -50      72.0225  3.57155e-05    8.744e-07      2.19513 
         -50      72.3915  3.75251e-05 -3.03985e-07      2.19518 
         -50      72.7613  3.88785e-05 -1.31366e-06      2.19525 
         -50       73.132  3.81953e-05 -2.03651e-07      2.19527 
         -50      73.5036  3.68212e-05  6.86692e-07      2.19528 
         -50      73.8764  3.38387e-05  1.25547e-06      2.19526 
         -50      74.2499  2.79596e-05  1.39707e-06      2.19522 
         -50      74.6244  1.74415e-05  1.00962e-06      2.19514 
         -50           75           -0  4.96139e-17      2.19501 
         -25            0  4.97979e-20 -8.64608e-26      2.19279 
         -25     0.000471  4.87745e-06  1.81967e-11      2.19279 
         -25     0.001884  1.73593e-05  3.91769e-10      2.19279 
         -25     0.004239  3.21218e-05  2.04224e-09      2.19279 
         -25     0.007537  4.34816e-05  6.40175e-09      2.19279 
         -25     0.011776   4.8399e-05  1.52885e-08      2.19279 
         -25     0.016958  4.79809e-05  3.08126e-08      2.19279 
         -25     0.023081  4.63209e-05  5.52926e-08      2.19279 
         -25      0.03015  4.71047e-05  9.12624e-08      2.19279 
         -25     0.038157  5.01452e-05  1.41326e-07      2.19279 
         -25     0.047107  5.12212e-05  2.08153e-07      2.19279 
         -25     0.056999  4.73931e-05  2.94107e-07      2.19279 
         -25     0.067837  4.40392e-05  4.01001e-07      2.19279 
         -25     0.079614  4.57846e-05  5.29937e-07      2.19279 
         -25     0.092332  4.14756e-05  6.82069e-07      2.19279 
         -25     0.105992   3.9818e-05  8.57783e-07      2.19279 
         -25       0.1206  3.77771e-05  1.05661e-06      2.19279 
         -25     0.136145  3.58629e-05  1.27743e-06      2.19279 
         -25     0.152631  3.42506e-05  1.51894e-06      2.19279 
         -25     0.170067   3.2885e-05  1.77948e-06      2.19279 
         -25     0.188438  3.16771e-05   2.0566e-06      2.19279 
         -25     0.207751  3.06931e-05  2.34776e-06      2.19279 
         -25     0.228006  3.01527e-05  2.65039e-06      2.19278 
         -25     0.249212  2.98961e-05  2.96327e-06      2.19278 
         -25     0.271351  3.00186e-05  3.28422e-06      2.19278 
         -25     0.294433  3.04894e-05  3.60757e-06      2.19278 
         -25     0.318456  3.12894e-05  3.93499e-06      2.19278 
         -25     0.343432  3.24089e-05  4.26672e-06      2.19278 
         -25     0.369339  3.38273e-05  4.60119e-06      2.19278 
         -25     0.396189  3.55187e-05  4.93659e-06      2.19278 
         -25     0.423981  3.74527e-05  5.27096e-06      2.19278 
         -25     0.452726  3.95993e-05  5.60332e-06      2.19278 
         -25     0.482403  4.19286e-05  5.93359e-06      2.19278 
         -25     0.513021  4.44173e-05  6.26315e-06      2.19278 
         -25     0.544594  4.70464e-05  6.59315e-06      2.19278 
         -25     0.577096  4.97917e-05  6.92077e-06      2.19278 
         -25     0.610541  5.26154e-05  7.23239e-06      2.19278 
         -25     0.644927  5.54613e-05  7.52777e-06      2.19278 
         -25      0.68027  5.83927e-05  7.86559e-06      2.19278 
         -25     0.716541  6.13347e-05  8.22431e-06      2.19278 
         -25     0.753754  6.42215e-05  8.58831e-06      2.19278 
         -25     0.791909  6.69939e-05  8.94709e-06      2.19278 
         -25     0.831022   6.9602e-05  9.29503e-06      2.19278 
         -25     0.871061   7.2003e-05  9.62988e-06      2.19278 
         -25     0.912043  7.41682e-05  9.95248e-06      2.19278 
         -25     0.953966  7.60788e-05  1.02647e-05      2.19278 
         -25     0.996849  7.77276e-05  1.05685e-05      2.19278 
         -25      1.04066  7.91154e-05  1.08637e-05      2.19278 
         -25      1.08541  8.02535e-05  1.11475e-05      2.19278 
         -25      1.13112  8.11586e-05  1.14141e-05      2.19278 
         -25      1.17775  8.18491e-05  1.16538e-05      2.19278 
         -25      1.22533  8.23422e-05  1.18558e-05      2.19278 
         -25      1.27384  8.26473e-05   1.2011e-05      2.19278 