Variables = x, y, u, v, p

Zone, I=416, F=POINT
         -50            0            0            0     -8.74184 
         -50     0.013333 -0.000166493 -3.51927e-08     -8.74184 
         -50     0.053333 -0.000156631 -1.87395e-07     -8.74184 
         -50         0.12 -0.000154986  -4.9797e-07     -8.74184 
         -50     0.213332 -0.000153807 -9.50067e-07     -8.74183 
         -50     0.333332 -0.000151837 -1.36831e-06     -8.74183 
         -50         0.48 -0.000149285 -2.51173e-06     -8.74182 
         -50     0.653331 -0.000148831 -4.20589e-06     -8.74179 
         -50     0.853332 -0.000151956 -6.00446e-06     -8.74176 
         -50         1.08 -0.000156112 -7.97359e-06     -8.74171 
         -50      1.33333 -0.000158127  -1.0033e-05     -8.74164 
         -50      1.61333 -0.000159052 -1.20332e-05     -8.74154 
         -50         1.92 -0.000158704 -1.38092e-05     -8.74141 
         -50      2.25333 -0.000158366 -1.60533e-05     -8.74124 
         -50      2.61333  -0.00016293 -2.11648e-05     -8.74102 
         -50            3 -0.000170816 -2.92214e-05     -8.74075 
         -25            0           -0           -0     -8.40206 
         -25     0.013333 -0.000121877 -1.65179e-08     -8.40206 
         -25     0.053333 -0.000113094 -1.35611e-07     -8.40206 
         -25         0.12 -0.000108718 -4.56723e-07     -8.40206 
         -25     0.213332 -0.000105483 -9.84123e-07     -8.40206 
         -25     0.333332 -0.000105038 -1.62994e-06     -8.40206 
         -25         0.48 -0.000106974  -2.2356e-06     -8.40205 
         -25     0.653331 -0.000110427 -2.99411e-06     -8.40204 
         -25     0.853332 -0.000113556 -3.86809e-06     -8.40203 
         -25         1.08 -0.000114106 -4.58963e-06     -8.40201 
         -25      1.33333 -0.000112727 -5.14272e-06     -8.40198 
         -25      1.61333 -0.000111592 -5.60798e-06     -8.40194 
         -25         1.92 -0.000113936 -6.11808e-06     -8.40189 
         -25      2.25333 -0.000123549  -7.2831e-06     -8.40182 
         -25      2.61333 -0.000133687 -8.03512e-06     -8.40174 
         -25            3 -0.000134783 -5.80073e-06     -8.40164 
           0            0            0            0     -8.11878 
           0     0.013333 -0.000338713  0.000190158     -8.11963 
           0     0.053333 -0.000193755  0.000100234     -8.12018 
           0         0.12 -0.000142681   6.5581e-05     -8.12078 
           0     0.213332 -0.000114314  5.05015e-05      -8.1214 
           0     0.333332  -9.7853e-05  4.10262e-05     -8.12202 
           0         0.48 -8.74193e-05  3.40188e-05     -8.12264 
           0     0.653331 -8.11111e-05  2.88648e-05     -8.12323 
           0     0.853332 -7.77405e-05  2.50292e-05     -8.12381 
           0         1.08 -7.79449e-05    2.209e-05     -8.12437 
           0      1.33333 -8.10192e-05  1.96352e-05     -8.12489 
           0      1.61333 -8.46791e-05  1.76546e-05     -8.12539 
           0         1.92 -8.83837e-05  1.60134e-05     -8.12587 
           0      2.25333 -9.38617e-05  1.42094e-05     -8.12631 
           0      2.61333 -9.81312e-05  1.29837e-05     -8.12672 
           0            3  -9.5606e-05  1.40833e-05      -8.1271 
          20            0 -0.000225464    0.0001313     -7.94564 
          20     0.013333 -0.000224237  0.000131422     -7.94563 
          20     0.053333 -0.000222081  0.000131545     -7.94563 
          20         0.12 -0.000223653  0.000130983     -7.94563 
          20     0.213332  -0.00023533  0.000128829     -7.94563 
          20     0.333332 -0.000258478  0.000124385     -7.94563 
          20         0.48 -0.000277806    0.0001177     -7.94562 
          20     0.653331 -0.000271596  0.000109182     -7.94562 
          20     0.853332 -0.000234197   9.8898e-05     -7.94561 
          20         1.08 -0.000179698  8.63603e-05      -7.9456 
          20      1.33333 -0.000120717  7.15088e-05     -7.94559 
          20      1.61333 -6.23908e-05  5.50798e-05     -7.94557 
          20         1.92 -1.19793e-05  3.81732e-05     -7.94555 
          20      2.25333  2.25761e-05  2.20203e-05     -7.94552 
          20      2.61333  3.85132e-05  7.98752e-06     -7.94549 
          20            3  3.99126e-05 -3.62412e-06     -7.94545 
          40            0  -0.00453915   0.00200326     -7.77664 
          40     0.013333  -0.00454395   0.00200546     -7.77664 
          40     0.053333  -0.00457249   0.00200872     -7.77665 
          40         0.12  -0.00466543   0.00200339     -7.77665 
          40     0.213332  -0.00487291   0.00197547     -7.77666 
          40     0.333332  -0.00519105   0.00191182     -7.77666 
          40         0.48  -0.00545169   0.00180899     -7.77666 
          40     0.653331  -0.00531317   0.00167839     -7.77664 
          40     0.853332  -0.00453667   0.00153649     -7.77661 
          40         1.08  -0.00324398   0.00138959     -7.77654 
          40      1.33333  -0.00172621   0.00123603     -7.77644 
          40      1.61333 -0.000217637   0.00107633     -7.77629 
          40         1.92    0.0010646  0.000915043     -7.77609 
          40      2.25333   0.00193999   0.00075874     -7.77586 
          40      2.61333   0.00235222  0.000613607      -7.7756 
          40            3   0.00239114  0.000484768     -7.77534 
          60            0            0            0     -7.60501 
          60     0.013333 -0.000107071  9.85243e-07     -7.60501 
          60     0.053333 -0.000466646  1.47238e-05     -7.60501 
          60         0.12  -0.00163548  6.54887e-05     -7.60501 
          60     0.213332   -0.0034733  0.000170995     -7.60501 
          60     0.333332  -0.00521944  0.000331167     -7.60501 
          60         0.48   -0.0061402  0.000542013     -7.60501 
          60     0.653331  -0.00633252  0.000793532     -7.60501 
          60     0.853332    -0.006479    0.0010554     -7.60501 
          60         1.08  -0.00606021   0.00132014       -7.605 
          60      1.33333  -0.00476575   0.00158119     -7.60497 
          60      1.61333  -0.00313573    0.0017937     -7.60493 
          60         1.92  -0.00149694   0.00192463     -7.60486 
          60      2.25333  -0.00011082   0.00196134     -7.60477 
          60      2.61333  0.000836692   0.00190827     -7.60466 
          60            3   0.00130644   0.00179217     -7.60453 
          80            0            0            0     -7.43485 
          80     0.013333  0.000403228  7.46863e-07     -7.43485 
          80     0.053333   0.00142959  1.18598e-05     -7.43485 
          80         0.12   0.00208386  5.70164e-05     -7.43485 
          80     0.213332   0.00188308  0.000160811     -7.43485 
          80     0.333332    0.0011392  0.000331472     -7.43485 
          80         0.48   0.00052933  0.000563746     -7.43485 
          80     0.653331  0.000650343  0.000856809     -7.43485 
          80     0.853332   0.00160061   0.00120408     -7.43484 
          80         1.08   0.00244784   0.00155869     -7.43484 
          80      1.33333   0.00237858   0.00185982     -7.43484 
          80      1.61333   0.00171873   0.00208168     -7.43485 
          80         1.92  0.000953317   0.00220617     -7.43485 
          80      2.25333  0.000267334   0.00221997     -7.43486 
          80      2.61333 -0.000252201   0.00213537     -7.43488 
          80            3 -0.000562329    0.0019779      -7.4349 
         100            0           -0           -0     -7.27033 
         100     0.013333  0.000467067 -1.33926e-07     -7.27033 
         100     0.053333   0.00185298  -5.4392e-07     -7.27033 
         100         0.12   0.00333558  6.60966e-06     -7.27033 
         100     0.213332   0.00416292  4.34513e-05     -7.27033 
         100     0.333332   0.00419101  0.000132199     -7.27033 
         100         0.48   0.00388402  0.000276343     -7.27033 
         100     0.653331   0.00364202  0.000457077     -7.27032 
         100     0.853332   0.00332509  0.000638145     -7.27033 
         100         1.08   0.00264154  0.000788959     -7.27033 
         100      1.33333   0.00172301  0.000896415     -7.27035 
         100      1.61333  0.000875495  0.000965763     -7.27039 
         100         1.92  0.000153646    0.0010001     -7.27044 
         100      2.25333  -0.00045579  0.000991802     -7.27051 
         100      2.61333 -0.000897671  0.000947494     -7.27059 
         100            3  -0.00111649   0.00087453     -7.27068 
         150            0           -0           -0     -6.87076 
         150     0.013333  0.000255831  7.13097e-07     -6.87076 
         150     0.053333  0.000929989  1.11833e-05     -6.87076 
         150         0.12   0.00126561  5.29035e-05     -6.87076 
         150     0.213332  0.000978962  0.000146285     -6.87076 
         150     0.333332   0.00040496  0.000294167     -6.87076 
         150         0.48  2.77412e-05  0.000484285     -6.87076 
         150     0.653331  4.88861e-05  0.000703186     -6.87076 
         150     0.853332  0.000324392  0.000934858     -6.87076 
         150         1.08  0.000506755   0.00115449     -6.87076 
         150      1.33333  0.000502596   0.00134135     -6.87076 
         150      1.61333  0.000444932   0.00148492     -6.87076 
         150         1.92  0.000282573   0.00157085     -6.87076 
         150      2.25333  9.87158e-05   0.00158964     -6.87076 
         150      2.61333 -4.32331e-05   0.00154477     -6.87076 
         150            3 -0.000138487   0.00144772     -6.87076 
         200            0           -0           -0      -6.4755 
         200     0.013333 -0.000853089 -2.02313e-06      -6.4755 
         200     0.053333   -0.0022408 -3.16368e-05      -6.4755 
         200         0.12  -0.00243897 -0.000149491      -6.4755 
         200     0.213332 -0.000738663 -0.000413668      -6.4755 
         200     0.333332   0.00175368  -0.00083175      -6.4755 
         200         0.48   0.00350833  -0.00136398      -6.4755 
         200     0.653331   0.00388235  -0.00196763      -6.4755 
         200     0.853332   0.00316406  -0.00260694      -6.4755 
         200         1.08   0.00225901  -0.00322628     -6.47551 
         200      1.33333    0.0017733  -0.00376453     -6.47551 
         200      1.61333   0.00141468  -0.00418997     -6.47551 
         200         1.92  0.000939048  -0.00447616     -6.47552 
         200      2.25333  0.000430689  -0.00459033     -6.47554 
         200      2.61333 -1.21406e-05  -0.00452507     -6.47556 
         200            3 -0.000342205  -0.00430006     -6.47558 
         250            0           -0           -0     -6.08221 
         250     0.013333  0.000309742 -1.01341e-06     -6.08221 
         250     0.053333   0.00151217 -1.37104e-05     -6.08221 
         250         0.12   0.00328292 -5.22281e-05     -6.08221 
         250     0.213332   0.00489131 -0.000110952     -6.08221 
         250     0.333332   0.00571092 -0.000166068      -6.0822 
         250         0.48   0.00579618 -0.000201357      -6.0822 
         250     0.653331    0.0055215 -0.000224147     -6.08219 
         250     0.853332   0.00493647 -0.000260493     -6.08219 
         250         1.08   0.00388748 -0.000329924      -6.0822 
         250      1.33333    0.0026883 -0.000419422     -6.08221 
         250      1.61333   0.00171527 -0.000497239     -6.08225 
         250         1.92  0.000804162 -0.000553371     -6.08231 
         250      2.25333 -6.80961e-05 -0.000587806      -6.0824 
         250      2.61333 -0.000808645 -0.000595733     -6.08251 
         250            3  -0.00132247 -0.000578957     -6.08264 
         300            0            0            0     -5.69414 
         300     0.013333 -0.000374001 -3.66741e-08     -5.69414 
         300     0.053333  -0.00109846 -1.03149e-06     -5.69414 
         300         0.12  -0.00185166  -7.9966e-06     -5.69414 
         300     0.213332  -0.00219228 -3.23379e-05     -5.69414 
         300     0.333332  -0.00198448 -8.65837e-05     -5.69414 
         300         0.48  -0.00147006 -0.000174875     -5.69414 
         300     0.653331 -0.000976533 -0.000290701     -5.69414 
         300     0.853332 -0.000645381 -0.000423133     -5.69414 
         300         1.08 -0.000456292 -0.000563773     -5.69414 
         300      1.33333 -0.000355707 -0.000706744     -5.69413 
         300      1.61333 -0.000262687 -0.000842895     -5.69412 
         300         1.92 -0.000138962  -0.00095977     -5.69411 
         300      2.25333 -1.18401e-05  -0.00104642     -5.69409 
         300      2.61333  9.67995e-05   -0.0010959     -5.69407 
         300            3  0.000174267  -0.00110565     -5.69404 
         350            0           -0           -0     -5.30693 
         350     0.013333  0.000106903  1.48041e-06     -5.30693 
         350     0.053333  0.000167364  2.22574e-05     -5.30693 
         350         0.12 -0.000789967  0.000100418     -5.30693 
         350     0.213332  -0.00288081  0.000266814     -5.30693 
         350     0.333332  -0.00522781  0.000519965     -5.30693 
         350         0.48  -0.00687258  0.000832599     -5.30693 
         350     0.653331  -0.00748209   0.00118036     -5.30694 
         350     0.853332  -0.00716202   0.00155488     -5.30694 
         350         1.08  -0.00619749   0.00194744     -5.30694 
         350      1.33333  -0.00504674   0.00233226     -5.30693 
         350      1.61333   -0.0039863   0.00267615     -5.30691 
         350         1.92  -0.00290078   0.00295439     -5.30687 
         350      2.25333  -0.00174957   0.00314483     -5.30682 
         350      2.61333 -0.000624198   0.00322949     -5.30675 
         350            3  0.000335149   0.00320265     -5.30666 
         400            0  2.15094e-21  -2.2027e-27     -4.91783 
         400     0.013333  0.000160744  1.83385e-07     -4.91783 
         400     0.053333   0.00071805  3.21728e-06     -4.91783 
         400         0.12   0.00120616  1.71392e-05     -4.91783 
         400     0.213332   0.00137211  5.21012e-05     -4.91783 
         400     0.333332   0.00131083  0.000111476     -4.91783 
         400         0.48   0.00129465  0.000189411     -4.91783 
         400     0.653331   0.00147586  0.000278159     -4.91783 
         400     0.853332    0.0017958  0.000370687     -4.91783 
         400         1.08   0.00198367  0.000453291     -4.91783 
         400      1.33333   0.00177883  0.000508556     -4.91783 
         400      1.61333   0.00133656  0.000534369     -4.91783 
         400         1.92    0.0009283  0.000540152     -4.91784 
         400      2.25333    0.0005375  0.000526998     -4.91786 
         400      2.61333  0.000153743  0.000494954     -4.91788 
         400            3 -0.000181295  0.000445583     -4.91791 
         450            0            0            0     -4.53327 
         450     0.013333  7.65566e-05  4.54665e-07     -4.53327 
         450     0.053333  0.000360992  6.94642e-06     -4.53327 
         450         0.12  0.000410477  3.18443e-05     -4.53327 
         450     0.213332  0.000116019  8.53472e-05     -4.53327 
         450     0.333332 -0.000275379  0.000166404     -4.53327 
         450         0.48 -0.000467114  0.000265942     -4.53327 
         450     0.653331 -0.000353915   0.00037843     -4.53327 
         450     0.853332  3.07276e-05  0.000503846     -4.53327 
         450         1.08  0.000495026  0.000635078     -4.53327 
         450      1.33333  0.000703251  0.000752799     -4.53327 
         450      1.61333  0.000615103  0.000844422     -4.53326 
         450         1.92   0.00049494  0.000912078     -4.53326 
         450      2.25333  0.000383254  0.000953768     -4.53325 
         450      2.61333  0.000264861  0.000965671     -4.53325 
         450            3  0.000143367  0.000945771     -4.53324 
         500            0            0            0     -4.15097 
         500     0.013333 -7.46104e-05  1.39114e-06     -4.15097 
         500     0.053333 -0.000468337   2.0887e-05     -4.15097 
         500         0.12  -0.00192904  9.36935e-05     -4.15097 
         500     0.213332  -0.00430977  0.000245506     -4.15097 
         500     0.333332  -0.00653519  0.000466877     -4.15097 
         500         0.48  -0.00763658  0.000722845     -4.15097 
         500     0.653331  -0.00747999  0.000987429     -4.15097 
         500     0.853332  -0.00644091   0.00125641     -4.15097 
         500         1.08  -0.00504603   0.00152399     -4.15097 
         500      1.33333    -0.003909   0.00176451     -4.15096 
         500      1.61333  -0.00317344   0.00195666     -4.15095 
         500         1.92  -0.00242796   0.00209986     -4.15092 
         500      2.25333   -0.0015813   0.00218941     -4.15087 
         500      2.61333 -0.000703159   0.00221647      -4.1508 
         500            3  0.000107392   0.00217508     -4.15072 
         550            0            0            0     -3.75889 
         550     0.013333   0.00204125 -1.43845e-06     -3.75889 
         550     0.053333   0.00788319 -1.82753e-05     -3.75889 
         550         0.12    0.0155465 -6.04287e-05     -3.75889 
         550     0.213332    0.0220492 -9.15674e-05     -3.75888 
         550     0.333332    0.0252238 -3.71212e-05     -3.75888 
         550         0.48    0.0252912  0.000156811     -3.75887 
         550     0.653331    0.0239982  0.000483626     -3.75886 
         550     0.853332    0.0225459  0.000886961     -3.75885 
         550         1.08    0.0206861   0.00128964     -3.75885 
         550      1.33333    0.0178014   0.00163649     -3.75887 
         550      1.61333    0.0143025    0.0019276     -3.75892 
         550         1.92    0.0108297   0.00218487     -3.75903 
         550      2.25333   0.00725019   0.00239767      -3.7592 
         550      2.61333   0.00357078   0.00254718     -3.75945 
         550            3  8.72881e-05   0.00261987     -3.75977 
         600            0            0            0     -3.39021 
         600     0.013333  -0.00196151  6.64703e-07     -3.39021 
         600     0.053333  -0.00699667  7.41389e-06      -3.3902 
         600         0.12   -0.0133411  1.65986e-05     -3.39021 
         600     0.213332   -0.0185055 -8.44402e-06     -3.39021 
         600     0.333332   -0.0209544 -0.000124165     -3.39021 
         600         0.48   -0.0210558 -0.000365107     -3.39022 
         600     0.653331   -0.0202357 -0.000722892     -3.39023 
         600     0.853332   -0.0194691  -0.00115796     -3.39023 
         600         1.08   -0.0185863  -0.00161326     -3.39024 
         600      1.33333   -0.0168155  -0.00203066     -3.39022 
         600      1.61333   -0.0140504  -0.00238057     -3.39018 
         600         1.92   -0.0110061  -0.00267064     -3.39011 
         600      2.25333  -0.00784461  -0.00289861     -3.38998 
         600      2.61333  -0.00458522  -0.00304875      -3.3898 
         600            3  -0.00139947  -0.00310609     -3.38956 
         650            0            0            0     -3.00103 
         650     0.013333  0.000934964 -3.99677e-07     -3.00103 
         650     0.053333   0.00366479 -4.56167e-06     -3.00103 
         650         0.12   0.00711426 -1.11846e-05     -3.00103 
         650     0.213332   0.00993906 -7.06148e-07     -3.00103 
         650     0.333332    0.0113001  5.72753e-05     -3.00102 
         650         0.48    0.0114027  0.000180767     -3.00102 
         650     0.653331    0.0110329  0.000364136     -3.00101 
         650     0.853332    0.0107144  0.000584656     -3.00101 
         650         1.08    0.0103062  0.000809217     -3.00101 
         650      1.33333   0.00932777   0.00100437     -3.00101 
         650      1.61333   0.00774907   0.00115653     -3.00103 
         650         1.92   0.00605516   0.00127588     -3.00107 
         650      2.25333   0.00433778   0.00136676     -3.00114 
         650      2.61333   0.00257366   0.00142269     -3.00123 
         650            3  0.000827422   0.00143642     -3.00136 
         700            0           -0           -0     -2.62738 
         700     0.013333 -0.000298156 -5.35515e-08     -2.62738 
         700     0.053333 -0.000841319 -1.12797e-06     -2.62738 
         700         0.12  -0.00144372 -7.04741e-06     -2.62738 
         700     0.213332  -0.00184559 -2.41395e-05     -2.62738 
         700     0.333332   -0.0020042 -5.64706e-05     -2.62738 
         700         0.48  -0.00206857 -0.000102657     -2.62738 
         700     0.653331  -0.00219506 -0.000159012     -2.62738 
         700     0.853332  -0.00243815 -0.000222719     -2.62738 
         700         1.08   -0.0026992 -0.000287824     -2.62738 
         700      1.33333  -0.00271333 -0.000340683     -2.62738 
         700      1.61333  -0.00235101 -0.000370035     -2.62738 
         700         1.92  -0.00187851 -0.000380661     -2.62738 
         700      2.25333  -0.00142342 -0.000379885     -2.62736 
         700      2.61333 -0.000976128 -0.000368831     -2.62735 
         700            3 -0.000520386 -0.000346269     -2.62732 
         750            0            0            0     -2.25185 
         750     0.013333 -0.000333622   4.0616e-07     -2.25185 
         750     0.053333  -0.00110816  5.69658e-06     -2.25185 
         750         0.12  -0.00231823  2.29873e-05     -2.25185 
         750     0.213332  -0.00359639  5.24466e-05     -2.25185 
         750     0.333332  -0.00449649  8.41408e-05     -2.25185 
         750         0.48  -0.00485885  0.000106544     -2.25185 
         750     0.653331  -0.00485484  0.000117068     -2.25185 
         750     0.853332  -0.00466874  0.000123985     -2.25185 
         750         1.08  -0.00427598  0.000140281     -2.25185 
         750      1.33333  -0.00364089  0.000171188     -2.25185 
         750      1.61333  -0.00296179  0.000207379     -2.25184 
         750         1.92  -0.00239126  0.000237445     -2.25183 
         750      2.25333  -0.00182374  0.000260246     -2.25181 
         750      2.61333  -0.00120822  0.000276173     -2.25177 
         750            3 -0.000582647   0.00028457     -2.25172 
         800            0            0            0     -1.87457 
         800     0.013333  0.000338665  1.24983e-07     -1.87457 
         800     0.053333   0.00135018  2.63715e-06     -1.87457 
         800         0.12    0.0023038  1.70273e-05     -1.87457 
         800     0.213332   0.00254781   6.1707e-05     -1.87457 
         800     0.333332   0.00194936  0.000153917     -1.87456 
         800         0.48   0.00100259   0.00029541     -1.87456 
         800     0.653331  0.000320293  0.000470924     -1.87456 
         800     0.853332  0.000110443  0.000658551     -1.87456 
         800         1.08   0.00010829  0.000836839     -1.87456 
         800      1.33333 -6.57087e-05  0.000989618     -1.87456 
         800      1.61333 -0.000412805   0.00111539     -1.87456 
         800         1.92  -0.00062311   0.00122466     -1.87457 
         800      2.25333  -0.00070461   0.00131735     -1.87459 
         800      2.61333  -0.00073437   0.00138664     -1.87461 
         800            3 -0.000738422   0.00142457     -1.87464 
         850            0            0            0     -1.50399 
         850     0.013333  -0.00178632  3.34208e-07     -1.50399 
         850     0.053333  -0.00629678  2.97549e-06     -1.50399 
         850         0.12   -0.0118299 -5.69979e-07     -1.50399 
         850     0.213332   -0.0160245 -4.78314e-05     -1.50399 
         850     0.333332   -0.0174179 -0.000194027       -1.504 
         850         0.48   -0.0164201 -0.000473336       -1.504 
         850     0.653331    -0.014592 -0.000875361     -1.50401 
         850     0.853332   -0.0131133   -0.0013572     -1.50402 
         850         1.08   -0.0120352  -0.00186571     -1.50402 
         850      1.33333   -0.0107419  -0.00235553     -1.50401 
         850      1.61333  -0.00898487  -0.00280526     -1.50399 
         850         1.92  -0.00715477  -0.00321769     -1.50395 
         850      2.25333  -0.00535231  -0.00358784     -1.50388 
         850      2.61333  -0.00351097  -0.00389452     -1.50377 
         850            3  -0.00162537  -0.00411341     -1.50362 
         900            0  2.59964e-19  4.79758e-26     -1.11495 
         900     0.013333   0.00098116 -2.98913e-06     -1.11495 
         900     0.053333   0.00472288 -4.37115e-05     -1.11495 
         900         0.12     0.011677 -0.000189529     -1.11495 
         900     0.213332    0.0205407 -0.000479996     -1.11495 
         900     0.333332    0.0283585 -0.000884113     -1.11495 
         900         0.48    0.0328442  -0.00132462     -1.11495 
         900     0.653331    0.0339032  -0.00174402     -1.11494 
         900     0.853332     0.032699  -0.00214176     -1.11493 
         900         1.08    0.0300279  -0.00255656     -1.11492 
         900      1.33333    0.0262252  -0.00301287     -1.11492 
         900      1.61333    0.0220084  -0.00348589     -1.11495 
         900         1.92    0.0181499  -0.00392338     -1.11502 
         900      2.25333    0.0143443   -0.0042941     -1.11514 
         900      2.61333    0.0102787  -0.00458225     -1.11532 
         900            3   0.00599618  -0.00477139     -1.11557 
         950            0            0            0    -0.745121 
         950     0.013333   0.00286944   2.0702e-06    -0.745121 
         950     0.053333   0.00987539  3.40685e-05     -0.74512 
         950         0.12    0.0165156  0.000174637    -0.745118 
         950     0.213332    0.0187929  0.000535517    -0.745114 
         950     0.333332    0.0160033   0.00120177     -0.74511 
         950         0.48    0.0107667   0.00217873    -0.745104 
         950     0.653331   0.00635294   0.00340394    -0.745098 
         950     0.853332   0.00443419   0.00480193    -0.745093 
         950         1.08    0.0048039   0.00630825    -0.745091 
         950      1.33333   0.00594317   0.00784772    -0.745094 
         950      1.61333   0.00615702   0.00932731    -0.745105 
         950         1.92   0.00515805    0.0106819    -0.745128 
         950      2.25333   0.00386761    0.0118784    -0.745169 
         950      2.61333   0.00267042    0.0128681    -0.745232 
         950            3   0.00147304    0.0135882     -0.74532 
        1000            0            0            0    -0.385291 
        1000     0.013333  -0.00186836  3.22125e-06    -0.385291 
        1000     0.053333  -0.00759957  4.65836e-05     -0.38529 
        1000         0.12   -0.0172464  0.000197963    -0.385289 
        1000     0.213332   -0.0286912  0.000488613     -0.38529 
        1000     0.333332   -0.0383556   0.00087309    -0.385294 
        1000         0.48   -0.0438255   0.00126308    -0.385302 
        1000     0.653331   -0.0452947   0.00159802    -0.385315 
        1000     0.853332   -0.0443276   0.00188196     -0.38533 
        1000         1.08   -0.0418632   0.00216844    -0.385341 
        1000      1.33333   -0.0378381     0.002513    -0.385338 
        1000      1.61333   -0.0324961   0.00292294    -0.385308 
        1000         1.92   -0.0270042   0.00334356    -0.385233 
        1000      2.25333   -0.0216347   0.00372367    -0.385095 
        1000      2.61333   -0.0160849   0.00403753    -0.384874 
        1000            3   -0.0101741   0.00427129    -0.384558 
