Variables = x, y, u, v, p

Zone, I=416, F=POINT
         -50            0            0            0     -304.691 
         -50     0.013333 -3.49381e-05 -3.68495e-08     -304.691 
         -50     0.053333 -4.76801e-05  3.41965e-08     -304.691 
         -50         0.12 -6.53089e-05  2.65617e-07     -304.691 
         -50     0.213332 -8.30376e-05   5.6102e-07     -304.691 
         -50     0.333332 -9.42559e-05  7.49555e-07     -304.691 
         -50         0.48 -9.88809e-05  3.11903e-07     -304.691 
         -50     0.653331 -9.88479e-05  4.60562e-07      -304.69 
         -50     0.853332 -9.24087e-05 -3.11352e-07      -304.69 
         -50         1.08 -7.91168e-05 -8.85402e-07     -304.689 
         -50      1.33333 -6.14407e-05  -8.9789e-07     -304.688 
         -50      1.61333 -4.20878e-05 -9.87755e-07     -304.686 
         -50         1.92 -2.73182e-05 -1.72236e-06     -304.684 
         -50      2.25333 -1.03284e-05  2.32922e-07     -304.681 
         -50      2.61333  6.22547e-06  3.11158e-06     -304.678 
         -50            3  1.17832e-05  1.67381e-06     -304.674 
         -25            0           -0           -0      -296.52 
         -25     0.013333 -2.84719e-05 -1.63621e-08      -296.52 
         -25     0.053333 -3.39667e-05  -1.1248e-07      -296.52 
         -25         0.12 -3.64623e-05 -4.94663e-07      -296.52 
         -25     0.213332 -3.60213e-05 -1.33878e-06      -296.52 
         -25     0.333332 -3.42182e-05 -2.64515e-06      -296.52 
         -25         0.48 -3.37708e-05 -4.26594e-06      -296.52 
         -25     0.653331 -3.50046e-05 -6.03667e-06      -296.52 
         -25     0.853332 -3.53453e-05   -7.793e-06      -296.52 
         -25         1.08 -3.32773e-05  -9.2058e-06      -296.52 
         -25      1.33333 -3.17775e-05 -1.02883e-05     -296.519 
         -25      1.61333 -3.34866e-05 -1.09623e-05     -296.519 
         -25         1.92 -3.28684e-05 -1.04252e-05     -296.518 
         -25      2.25333  -3.0434e-05 -1.01157e-05     -296.518 
         -25      2.61333 -2.78556e-05 -9.06726e-06     -296.517 
         -25            3  -2.3989e-05 -4.58437e-06     -296.515 
           0            0  8.60698e-16 -4.96608e-16     -288.868 
           0     0.013333  0.000127779 -3.50399e-06     -288.875 
           0     0.053333  2.91509e-06 -6.29797e-06     -288.888 
           0         0.12 -1.39645e-05  1.19476e-05     -288.902 
           0     0.213332 -2.59318e-05  8.85575e-06     -288.917 
           0     0.333332 -3.76888e-05  8.01213e-06     -288.932 
           0         0.48 -4.60496e-05   8.7952e-06     -288.946 
           0     0.653331 -4.95647e-05   1.0265e-05     -288.961 
           0     0.853332 -4.93409e-05  1.20813e-05     -288.974 
           0         1.08 -4.72818e-05  1.39283e-05     -288.987 
           0      1.33333 -4.29083e-05  1.54275e-05         -289 
           0      1.61333 -3.69146e-05   1.6586e-05     -289.012 
           0         1.92 -3.27312e-05  1.69593e-05     -289.023 
           0      2.25333 -3.20173e-05  1.63966e-05     -289.034 
           0      2.61333 -3.45744e-05  1.46891e-05     -289.044 
           0            3 -3.80585e-05  1.15497e-05     -289.054 
          20            0 -5.46877e-05  9.36202e-05     -283.633 
          20     0.013333 -6.15435e-05  9.46852e-05     -283.633 
          20     0.053333 -8.28385e-05  9.78169e-05     -283.632 
          20         0.12 -0.000120206  0.000102858     -283.632 
          20     0.213332 -0.000173595  0.000109702     -283.632 
          20     0.333332  -0.00023528  0.000118496     -283.632 
          20         0.48 -0.000281761  0.000129919     -283.632 
          20     0.653331 -0.000293543  0.000143817     -283.632 
          20     0.853332 -0.000269435  0.000158731     -283.631 
          20         1.08 -0.000228027  0.000171735     -283.631 
          20      1.33333 -0.000183447    0.0001801      -283.63 
          20      1.61333 -0.000132211  0.000182554      -283.63 
          20         1.92 -8.16462e-05  0.000178087     -283.629 
          20      2.25333 -3.92506e-05  0.000167086     -283.628 
          20      2.61333 -1.01929e-05  0.000151677     -283.627 
          20            3  7.16279e-06  0.000135797     -283.626 
          40            0            0            0     -278.062 
          40     0.013333 -1.73261e-05  1.76678e-07     -278.062 
          40     0.053333 -4.66721e-05   2.7029e-06     -278.062 
          40         0.12 -0.000179268  1.17993e-05     -278.062 
          40     0.213332 -0.000379783  2.98621e-05     -278.062 
          40     0.333332 -0.000531017  5.54095e-05     -278.062 
          40         0.48 -0.000564642  8.57814e-05     -278.062 
          40     0.653331 -0.000533659  0.000118186     -278.062 
          40     0.853332 -0.000516863  0.000148922     -278.061 
          40         1.08 -0.000450223  0.000177592     -278.061 
          40      1.33333 -0.000322624  0.000202609     -278.061 
          40      1.61333  -0.00018698  0.000219005     -278.061 
          40         1.92 -6.17994e-05   0.00022416      -278.06 
          40      2.25333  4.01487e-05  0.000218353      -278.06 
          40      2.61333   0.00010437   0.00020252     -278.059 
          40            3  0.000125695   0.00017966     -278.059 
          60            0            0            0     -272.426 
          60     0.013333 -4.52267e-06  3.35743e-07     -272.426 
          60     0.053333 -4.22193e-05  4.97542e-06     -272.426 
          60         0.12 -0.000279405  2.17377e-05     -272.426 
          60     0.213332 -0.000680648  5.51188e-05     -272.426 
          60     0.333332  -0.00105544  0.000101933     -272.426 
          60         0.48  -0.00126619    0.0001564     -272.426 
          60     0.653331   -0.0012675  0.000217509     -272.426 
          60     0.853332  -0.00106938  0.000286847     -272.426 
          60         1.08   -0.0008038  0.000358342     -272.426 
          60      1.33333 -0.000583026  0.000421153     -272.426 
          60      1.61333 -0.000379099  0.000466999     -272.426 
          60         1.92 -0.000167179  0.000490636     -272.426 
          60      2.25333  2.00414e-05    0.0004896     -272.425 
          60      2.61333  0.000147846  0.000466349     -272.425 
          60            3  0.000208881  0.000428952     -272.425 
          80            0           -0           -0     -266.835 
          80     0.013333   6.2141e-05   2.4871e-07     -266.835 
          80     0.053333   0.00022107  3.79013e-06     -266.835 
          80         0.12  0.000270028  1.72921e-05     -266.835 
          80     0.213332  0.000149404  4.62426e-05     -266.835 
          80     0.333332 -3.02872e-05  9.07278e-05     -266.835 
          80         0.48 -0.000132828  0.000147452     -266.835 
          80     0.653331 -8.50994e-05  0.000214128     -266.835 
          80     0.853332   9.6029e-05  0.000287745     -266.835 
          80         1.08  0.000253342  0.000358799     -266.835 
          80      1.33333  0.000257885  0.000415703     -266.835 
          80      1.61333  0.000190544  0.000454583     -266.835 
          80         1.92  0.000127055  0.000474293     -266.835 
          80      2.25333  6.86433e-05  0.000472522     -266.835 
          80      2.61333  1.53136e-05  0.000451193     -266.835 
          80            3  -2.4764e-05  0.000415983     -266.835 
         100            0           -0           -0     -261.255 
         100     0.013333  1.36253e-05  2.22426e-07     -261.255 
         100     0.053333  4.95492e-05  3.39565e-06     -261.255 
         100         0.12  -4.6168e-05  1.54752e-05     -261.255 
         100     0.213332 -0.000276533   4.0952e-05     -261.255 
         100     0.333332 -0.000498857  7.83921e-05     -261.255 
         100         0.48  -0.00059462  0.000122383     -261.255 
         100     0.653331 -0.000556293  0.000168557     -261.255 
         100     0.853332 -0.000447583  0.000213671     -261.255 
         100         1.08 -0.000357714  0.000252626     -261.255 
         100      1.33333 -0.000298282  0.000281649     -261.255 
         100      1.61333 -0.000212527  0.000300342     -261.255 
         100         1.92 -0.000113705  0.000307126     -261.255 
         100      2.25333 -2.52651e-05  0.000300026     -261.255 
         100      2.61333  4.01564e-05  0.000280556     -261.255 
         100            3  7.83194e-05  0.000252339     -261.255 
         150            0            0            0     -247.307 
         150     0.013333 -0.000119829  1.64563e-07     -247.307 
         150     0.053333 -0.000397442  2.18587e-06     -247.307 
         150         0.12 -0.000791543  8.14681e-06     -247.307 
         150     0.213332   -0.0011665  1.69749e-05     -247.307 
         150     0.333332  -0.00141568  2.49916e-05     -247.307 
         150         0.48  -0.00153857  2.95707e-05     -247.307 
         150     0.653331  -0.00157625  3.14096e-05     -247.307 
         150     0.853332  -0.00151144  3.50673e-05     -247.307 
         150         1.08  -0.00129491  4.52275e-05     -247.307 
         150      1.33333 -0.000982848  6.15576e-05     -247.307 
         150      1.61333 -0.000671302  7.84831e-05     -247.307 
         150         1.92  -0.00036284  9.31776e-05     -247.307 
         150      2.25333  -7.2539e-05  0.000105151     -247.307 
         150      2.61333   0.00016313  0.000112529     -247.307 
         150            3   0.00031239  0.000115428     -247.307 
         200            0           -0           -0     -233.341 
         200     0.013333 -3.43775e-06  9.83514e-08     -233.341 
         200     0.053333   2.5865e-05  1.47778e-06     -233.341 
         200         0.12 -3.69536e-06   6.6754e-06     -233.341 
         200     0.213332   -0.0001124  1.78101e-05     -233.341 
         200     0.333332 -0.000252475  3.50413e-05     -233.341 
         200         0.48 -0.000365193  5.70287e-05     -233.341 
         200     0.653331  -0.00041971  8.26061e-05     -233.341 
         200     0.853332 -0.000407401  0.000111319     -233.341 
         200         1.08 -0.000344826  0.000141889     -233.341 
         200      1.33333 -0.000272345  0.000171314     -233.341 
         200      1.61333 -0.000206858  0.000196471     -233.341 
         200         1.92 -0.000139372  0.000215153     -233.341 
         200      2.25333 -7.12549e-05   0.00022569     -233.341 
         200      2.61333 -1.05545e-05  0.000227196     -233.341 
         200            3  3.46667e-05  0.000220445     -233.341 
         250            0           -0           -0     -219.357 
         250     0.013333   2.7951e-05 -2.03992e-07     -219.357 
         250     0.053333  0.000217725 -2.93386e-06     -219.357 
         250         0.12  0.000555842 -1.23155e-05     -219.357 
         250     0.213332  0.000938698 -2.97183e-05     -219.357 
         250     0.333332   0.00121073  -5.1641e-05     -219.357 
         250         0.48   0.00130615 -7.31691e-05     -219.357 
         250     0.653331   0.00126464 -9.24563e-05     -219.357 
         250     0.853332   0.00113719 -0.000110814     -219.357 
         250         1.08  0.000957242 -0.000128832     -219.357 
         250      1.33333  0.000760649 -0.000145057     -219.357 
         250      1.61333  0.000559382 -0.000157582     -219.357 
         250         1.92  0.000344906 -0.000165306     -219.357 
         250      2.25333  0.000130124  -0.00016753     -219.357 
         250      2.61333  -6.1246e-05 -0.000163624     -219.357 
         250            3 -0.000206369 -0.000154261     -219.357 
         300            0           -0           -0     -205.362 
         300     0.013333 -0.000116506  -4.1116e-07     -205.362 
         300     0.053333 -0.000230304 -6.25721e-06     -205.362 
         300         0.12 -7.70435e-05 -2.86811e-05     -205.362 
         300     0.213332  0.000418657 -7.74608e-05     -205.362 
         300     0.333332   0.00102547 -0.000153191     -205.362 
         300         0.48    0.0014593 -0.000248251     -205.362 
         300     0.653331   0.00160983 -0.000354883     -205.362 
         300     0.853332   0.00150977 -0.000469224     -205.362 
         300         1.08   0.00125913 -0.000586986     -205.362 
         300      1.33333  0.000992909  -0.00069949     -205.362 
         300      1.61333  0.000765312 -0.000797049     -205.362 
         300         1.92  0.000529027 -0.000872801     -205.362 
         300      2.25333  0.000279718 -0.000920063     -205.362 
         300      2.61333   4.1926e-05  -0.00093434     -205.362 
         300            3 -0.000153715 -0.000915412     -205.362 
         350            0            0            0     -191.356 
         350     0.013333 -0.000298643 -3.10964e-09     -191.356 
         350     0.053333 -0.000986972 -5.11746e-07     -191.356 
         350         0.12  -0.00175292 -5.24487e-06     -191.356 
         350     0.213332  -0.00224494 -2.26476e-05     -191.356 
         350     0.333332  -0.00235519 -6.09298e-05     -191.356 
         350         0.48  -0.00225052 -0.000121937     -191.356 
         350     0.653331  -0.00214577 -0.000201193     -191.356 
         350     0.853332  -0.00210276 -0.000290587     -191.356 
         350         1.08  -0.00200318 -0.000379181     -191.356 
         350      1.33333  -0.00172925 -0.000456746     -191.356 
         350      1.61333  -0.00134693 -0.000520213     -191.356 
         350         1.92 -0.000949536 -0.000569352     -191.355 
         350      2.25333 -0.000542485 -0.000600191     -191.355 
         350      2.61333 -0.000148249 -0.000609963     -191.355 
         350            3  0.000186129 -0.000598024     -191.355 
         400            0            0            0     -177.338 
         400     0.013333 -0.000138479  2.71707e-07     -177.338 
         400     0.053333 -0.000496235  3.84794e-06     -177.338 
         400         0.12  -0.00107384  1.57876e-05     -177.338 
         400     0.213332  -0.00168517  3.69462e-05     -177.338 
         400     0.333332  -0.00208744  6.16179e-05     -177.338 
         400         0.48  -0.00219666  8.26551e-05     -177.338 
         400     0.653331  -0.00210199  9.77219e-05     -177.338 
         400     0.853332  -0.00190397  0.000109689     -177.338 
         400         1.08   -0.0016372   0.00012209     -177.338 
         400      1.33333  -0.00133165  0.000135136     -177.338 
         400      1.61333  -0.00102987  0.000146028     -177.338 
         400         1.92 -0.000727164   0.00015269     -177.338 
         400      2.25333 -0.000412585  0.000154802     -177.338 
         400      2.61333 -0.000104805  0.000151886     -177.338 
         400            3  0.000159857  0.000143959     -177.338 
         450            0            0            0     -163.311 
         450     0.013333  0.000374149  3.10813e-07     -163.311 
         450     0.053333   0.00129805  5.30591e-06     -163.311 
         450         0.12    0.0020906  2.80589e-05     -163.311 
         450     0.213332   0.00222401  8.71452e-05     -163.311 
         450     0.333332   0.00173447  0.000194519     -163.311 
         450         0.48   0.00109211  0.000346939     -163.311 
         450     0.653331  0.000707476  0.000531235     -163.311 
         450     0.853332  0.000657525  0.000732968     -163.311 
         450         1.08   0.00073195  0.000936745     -163.311 
         450      1.33333  0.000677535   0.00112662     -163.311 
         450      1.61333   0.00048735    0.0012931     -163.311 
         450         1.92  0.000295119   0.00143162     -163.311 
         450      2.25333  0.000116238   0.00153275     -163.311 
         450      2.61333 -5.20442e-05   0.00158757     -163.311 
         450            3 -0.000196303   0.00159092     -163.311 
         500            0           -0           -0     -149.274 
         500     0.013333 -4.52236e-05 -7.57795e-07     -149.274 
         500     0.053333  0.000125335 -1.12236e-05     -149.274 
         500         0.12  0.000847687  -4.9632e-05     -149.274 
         500     0.213332   0.00208877 -0.000129165     -149.274 
         500     0.333332    0.0033688 -0.000247005     -149.274 
         500         0.48   0.00423115 -0.000389198     -149.274 
         500     0.653331   0.00456162 -0.000544937     -149.274 
         500     0.853332   0.00443177 -0.000713633     -149.274 
         500         1.08   0.00390798 -0.000898388     -149.274 
         500      1.33333   0.00316946  -0.00109213     -149.274 
         500      1.61333   0.00248627  -0.00127584     -149.274 
         500         1.92   0.00187563  -0.00143364     -149.274 
         500      2.25333   0.00124088  -0.00155626     -149.274 
         500      2.61333  0.000583406  -0.00163444     -149.274 
         500            3 -2.58352e-05   -0.0016612     -149.274 
         550            0 -5.88875e-20   1.2536e-26     -135.236 
         550     0.013333 -9.83035e-05  3.40433e-07     -135.236 
         550     0.053333 -0.000368146  4.86596e-06     -135.236 
         550         0.12 -0.000884323  2.03756e-05     -135.236 
         550     0.213332  -0.00151458  4.95444e-05     -135.236 
         550     0.333332  -0.00201792  8.80121e-05     -135.236 
         550         0.48  -0.00227244  0.000129388     -135.236 
         550     0.653331  -0.00232082  0.000171794     -135.236 
         550     0.853332  -0.00221848  0.000218949     -135.236 
         550         1.08  -0.00195349  0.000275938     -135.236 
         550      1.33333  -0.00155769  0.000342587     -135.236 
         550      1.61333  -0.00116374  0.000411325     -135.236 
         550         1.92 -0.000835416  0.000473661     -135.236 
         550      2.25333 -0.000520035  0.000525388     -135.236 
         550      2.61333 -0.000201661  0.000563115     -135.236 
         550            3  9.09534e-05  0.000583974     -135.236 
         600            0            0            0     -121.192 
         600     0.013333  0.000287277  1.58735e-07     -121.192 
         600     0.053333   0.00103744  2.87789e-06     -121.192 
         600         0.12   0.00174283  1.62611e-05     -121.192 
         600     0.213332   0.00196023  5.35378e-05     -121.192 
         600     0.333332    0.0016375  0.000125239     -121.192 
         600         0.48   0.00110371  0.000231281     -121.192 
         600     0.653331  0.000717747   0.00036245     -121.192 
         600     0.853332  0.000594973  0.000507066     -121.192 
         600         1.08  0.000599209  0.000653202     -121.192 
         600      1.33333  0.000527579  0.000789772     -121.192 
         600      1.61333  0.000354843  0.000911384     -121.192 
         600         1.92  0.000193368   0.00101732     -121.192 
         600      2.25333  5.41109e-05   0.00110278     -121.192 
         600      2.61333 -7.44305e-05   0.00116113     -121.192 
         600            3 -0.000189371   0.00118671     -121.192 
         650            0            0            0     -107.139 
         650     0.013333 -0.000343971 -5.03842e-07     -107.139 
         650     0.053333  -0.00100199 -7.94939e-06     -107.139 
         650         0.12  -0.00137833 -3.83725e-05     -107.139 
         650     0.213332  -0.00107603 -0.000109921     -107.139 
         650     0.333332  -0.00027485 -0.000230338     -107.139 
         650         0.48  0.000505577 -0.000392384     -107.139 
         650     0.653331  0.000892025 -0.000582802     -107.139 
         650     0.853332   0.00082472 -0.000791994     -107.139 
         650         1.08  0.000467476  -0.00101191     -107.139 
         650      1.33333  0.000130042  -0.00122824     -107.139 
         650      1.61333  2.58591e-05  -0.00142446     -107.139 
         650         1.92  3.43298e-05  -0.00159275     -107.139 
         650      2.25333  3.34187e-05  -0.00172791     -107.139 
         650      2.61333   9.0386e-06  -0.00182115     -107.139 
         650            3 -1.28469e-05  -0.00186365     -107.139 
         700            0  9.27833e-20  5.69196e-26     -93.0718 
         700     0.013333  0.000317042  5.89113e-07     -93.0718 
         700     0.053333   0.00102614  9.20341e-06     -93.0718 
         700         0.12    0.0013969  4.39663e-05     -93.0718 
         700     0.213332  0.000977812  0.000125043     -93.0718 
         700     0.333332  -4.0412e-05   0.00026138     -93.0718 
         700         0.48    -0.001083  0.000445962     -93.0718 
         700     0.653331  -0.00171419  0.000664939     -93.0718 
         700     0.853332  -0.00182385  0.000908399     -93.0718 
         700         1.08  -0.00152166   0.00116967     -93.0718 
         700      1.33333  -0.00108521   0.00143605     -93.0718 
         700      1.61333 -0.000804454   0.00168818     -93.0718 
         700         1.92 -0.000675419   0.00191209     -93.0718 
         700      2.25333  -0.00055218   0.00209904     -93.0718 
         700      2.61333 -0.000393442   0.00223813     -93.0718 
         700            3 -0.000230103   0.00231808     -93.0718 
         750            0            0            0     -78.9922 
         750     0.013333 -0.000401821 -7.22901e-08     -78.9922 
         750     0.053333  -0.00135813 -1.42866e-06     -78.9922 
         750         0.12  -0.00247967 -8.72309e-06     -78.9922 
         750     0.213332  -0.00331933 -3.05461e-05     -78.9922 
         750     0.333332  -0.00367145  -7.5421e-05     -78.9922 
         750         0.48  -0.00364723 -0.000146935     -78.9922 
         750     0.653331  -0.00349929 -0.000243469     -78.9922 
         750     0.853332  -0.00341979 -0.000361005     -78.9922 
         750         1.08   -0.0034361 -0.000493167     -78.9922 
         750      1.33333  -0.00338838 -0.000628757     -78.9922 
         750      1.61333  -0.00309586 -0.000754375     -78.9922 
         750         1.92   -0.0026079 -0.000863647     -78.9922 
         750      2.25333  -0.00205294 -0.000954919     -78.9922 
         750      2.61333  -0.00147043  -0.00102418     -78.9922 
         750            3 -0.000864021  -0.00106623     -78.9922 
         800            0            0            0     -64.9013 
         800     0.013333  -0.00023458  7.86277e-08     -64.9013 
         800     0.053333 -0.000798963  1.00613e-06     -64.9013 
         800         0.12  -0.00154968  3.27753e-06     -64.9013 
         800     0.213332  -0.00221485  4.21044e-06     -64.9013 
         800     0.333332  -0.00255646 -2.53255e-06     -64.9013 
         800         0.48  -0.00253198 -2.32449e-05     -64.9013 
         800     0.653331  -0.00228763 -5.98574e-05     -64.9013 
         800     0.853332  -0.00199688 -0.000109491     -64.9013 
         800         1.08  -0.00173867 -0.000167347     -64.9013 
         800      1.33333  -0.00151717 -0.000230006     -64.9013 
         800      1.61333  -0.00132204 -0.000295816     -64.9013 
         800         1.92  -0.00111924 -0.000362638     -64.9012 
         800      2.25333 -0.000883051 -0.000425605     -64.9012 
         800      2.61333 -0.000616336 -0.000481223     -64.9012 
         800            3 -0.000339346 -0.000526356     -64.9012 
         850            0           -0           -0     -50.8056 
         850     0.013333 -0.000282365 -3.82414e-07     -50.8056 
         850     0.053333 -0.000815494 -5.99053e-06     -50.8056 
         850         0.12  -0.00112853 -2.88261e-05     -50.8056 
         850     0.213332 -0.000860074 -8.30788e-05     -50.8056 
         850     0.333332 -7.72883e-05 -0.000176813     -50.8056 
         850         0.48  0.000829733 -0.000307519     -50.8056 
         850     0.653331   0.00149981 -0.000466165     -50.8056 
         850     0.853332   0.00179371 -0.000644527     -50.8056 
         850         1.08   0.00174523 -0.000837549     -50.8056 
         850      1.33333   0.00149223  -0.00103917     -50.8056 
         850      1.61333   0.00122073  -0.00123919     -50.8056 
         850         1.92   0.00102643   -0.0014268     -50.8056 
         850      2.25333  0.000848497  -0.00159348     -50.8056 
         850      2.61333  0.000647861  -0.00173067     -50.8056 
         850            3   0.00043031  -0.00182924     -50.8056 
         900            0            0            0      -36.706 
         900     0.013333  0.000159439 -3.53374e-07      -36.706 
         900     0.053333  0.000772143  -5.1185e-06      -36.706 
         900         0.12   0.00182303  -2.1921e-05      -36.706 
         900     0.213332   0.00310734 -5.48757e-05      -36.706 
         900     0.333332   0.00425643 -0.000100213      -36.706 
         900         0.48   0.00499977 -0.000149274      -36.706 
         900     0.653331   0.00532296 -0.000195375      -36.706 
         900     0.853332   0.00535845 -0.000237783      -36.706 
         900         1.08   0.00518846  -0.00028095      -36.706 
         900      1.33333   0.00480007 -0.000330293      -36.706 
         900      1.61333   0.00421294 -0.000387008      -36.706 
         900         1.92   0.00354766 -0.000446145      -36.706 
         900      2.25333   0.00285308 -0.000501217     -36.7061 
         900      2.61333   0.00211812 -0.000548593     -36.7061 
         900            3   0.00133844 -0.000585711     -36.7061 
         950            0            0            0     -22.5979 
         950     0.013333  0.000164485  2.12259e-09     -22.5979 
         950     0.053333  0.000676983  1.97197e-07     -22.5979 
         950         0.12    0.0013161  2.02622e-06     -22.5979 
         950     0.213332   0.00185314  9.06702e-06     -22.5979 
         950     0.333332   0.00215824  2.55724e-05     -22.5979 
         950         0.48    0.0022581  5.37773e-05     -22.5979 
         950     0.653331   0.00226821  9.30248e-05     -22.5979 
         950     0.853332   0.00228362  0.000140986     -22.5979 
         950         1.08   0.00231664  0.000194237     -22.5979 
         950      1.33333   0.00229395   0.00024788     -22.5979 
         950      1.61333   0.00213408  0.000296568     -22.5979 
         950         1.92   0.00185122  0.000337938     -22.5979 
         950      2.25333   0.00152095  0.000372214      -22.598 
         950      2.61333   0.00116996  0.000398763      -22.598 
         950            3  0.000794344  0.000415975      -22.598 
        1000            0 -9.27771e-20  2.15092e-24     -8.47714 
        1000     0.013333 -0.000178043    2.151e-08     -8.47714 
        1000     0.053333 -0.000558895  8.40259e-08     -8.47714 
        1000         0.12 -0.000994217 -8.78432e-07     -8.47714 
        1000     0.213332  -0.00126088 -6.49201e-06     -8.47714 
        1000     0.333332    -0.001233 -2.19063e-05     -8.47714 
        1000         0.48 -0.000977399 -5.02758e-05     -8.47714 
        1000     0.653331 -0.000672435 -9.03356e-05     -8.47714 
        1000     0.853332 -0.000445648 -0.000137456     -8.47714 
        1000         1.08 -0.000303507 -0.000186527     -8.47715 
        1000      1.33333 -0.000189196 -0.000233804     -8.47715 
        1000      1.61333 -7.91626e-05 -0.000278009     -8.47715 
        1000         1.92 -3.58181e-06 -0.000319667     -8.47715 
        1000      2.25333  3.99448e-05  -0.00035886     -8.47715 
        1000      2.61333  6.85934e-05 -0.000393055     -8.47714 
        1000            3  9.12555e-05 -0.000419379     -8.47714 
