Variables = x, y, u, v, p

Zone, I=416, F=POINT
         -50            0            0            0      494.639 
         -50     0.013333  0.000726162   1.3276e-07      494.639 
         -50     0.053333  0.000646349    4.457e-07      494.639 
         -50         0.12  0.000613889  8.84767e-07      494.639 
         -50     0.213332  0.000604096  1.07639e-06      494.639 
         -50     0.333332  0.000607045  8.51959e-07      494.639 
         -50         0.48  0.000611928  3.85953e-07      494.638 
         -50     0.653331  0.000615548 -1.22564e-06      494.638 
         -50     0.853332   0.00062087  -2.8524e-06      494.637 
         -50         1.08  0.000631329 -3.48315e-06      494.635 
         -50      1.33333  0.000645367 -3.75715e-06      494.634 
         -50      1.61333  0.000656902 -3.38299e-06      494.631 
         -50         1.92  0.000656584 -2.71712e-06      494.627 
         -50      2.25333  0.000646586 -2.40389e-07      494.623 
         -50      2.61333  0.000647621  1.02967e-05      494.618 
         -50            3  0.000664314  2.84401e-05      494.611 
         -25            0           -0           -0      481.347 
         -25     0.013333  0.000616359  2.34465e-08      481.347 
         -25     0.053333  0.000548919 -6.39946e-08      481.347 
         -25         0.12  0.000527285 -6.06908e-07      481.347 
         -25     0.213332  0.000528549 -1.98516e-06      481.347 
         -25     0.333332  0.000538742 -4.33739e-06      481.347 
         -25         0.48  0.000546001 -7.55521e-06      481.347 
         -25     0.653331  0.000547608 -1.12615e-05      481.346 
         -25     0.853332  0.000547007 -1.52099e-05      481.346 
         -25         1.08  0.000550206 -1.87688e-05      481.346 
         -25      1.33333  0.000556527 -2.13878e-05      481.345 
         -25      1.61333  0.000563324 -2.28078e-05      481.345 
         -25         1.92  0.000570655 -2.30128e-05      481.344 
         -25      2.25333  0.000579742 -2.10374e-05      481.342 
         -25      2.61333  0.000588303 -1.74435e-05      481.341 
         -25            3  0.000591033  -1.4656e-05      481.339 
           0            0  7.22926e-15 -4.84867e-15      468.891 
           0     0.013333   0.00157051 -0.000969391      468.904 
           0     0.053333   0.00100065 -0.000494295      468.925 
           0         0.12  0.000802112 -0.000332355      468.948 
           0     0.213332  0.000716236 -0.000252069      468.972 
           0     0.333332  0.000671776  -0.00020289      468.996 
           0         0.48  0.000637709 -0.000166823      469.019 
           0     0.653331  0.000611698 -0.000139911      469.043 
           0     0.853332  0.000589229 -0.000119251      469.065 
           0         1.08  0.000569932 -0.000102912      469.086 
           0      1.33333  0.000555807 -8.97572e-05      469.107 
           0      1.61333  0.000547471 -7.85386e-05      469.126 
           0         1.92  0.000543563 -6.89794e-05      469.145 
           0      2.25333  0.000538686 -6.09477e-05      469.163 
           0      2.61333  0.000531227 -5.40123e-05      469.179 
           0            3  0.000522439  -5.0074e-05      469.195 
          20            0  0.000716182 -0.000140699      460.372 
          20     0.013333  0.000704797 -0.000140816      460.372 
          20     0.053333  0.000671541 -0.000140716      460.372 
          20         0.12  0.000620793 -0.000139003      460.371 
          20     0.213332  0.000564466 -0.000133364      460.371 
          20     0.333332  0.000521869 -0.000121012      460.371 
          20         0.48  0.000505794 -0.000100379      460.371 
          20     0.653331  0.000491836 -7.29878e-05       460.37 
          20     0.853332  0.000457299  -4.1968e-05       460.37 
          20         1.08  0.000402427 -1.06451e-05      460.369 
          20      1.33333  0.000347699  1.94234e-05      460.368 
          20      1.61333  0.000303054  4.65697e-05      460.367 
          20         1.92  0.000277683  6.85677e-05      460.366 
          20      2.25333  0.000276876  8.48274e-05      460.364 
          20      2.61333  0.000299157  9.54922e-05      460.363 
          20            3  0.000331985  0.000100132      460.361 
          40            0            0            0      451.304 
          40     0.013333   0.00082457 -1.71585e-07      451.304 
          40     0.053333   0.00141507 -2.12361e-06      451.304 
          40         0.12   0.00216284 -5.14176e-06      451.304 
          40     0.213332   0.00271148 -5.49942e-07      451.304 
          40     0.333332   0.00295436   2.2737e-05      451.304 
          40         0.48   0.00299644  6.59884e-05      451.304 
          40     0.653331    0.0029078  0.000119796      451.304 
          40     0.853332   0.00274569  0.000180679      451.304 
          40         1.08   0.00245446  0.000247303      451.304 
          40      1.33333   0.00195099  0.000305383      451.303 
          40      1.61333   0.00135451  0.000347473      451.303 
          40         1.92  0.000770575  0.000370239      451.302 
          40      2.25333   0.00029747  0.000372604      451.301 
          40      2.61333 -2.89569e-06  0.000358892        451.3 
          40            3 -0.000129909  0.000333436      451.299 
          60            0            0            0      442.131 
          60     0.013333  0.000696683 -1.39157e-07      442.131 
          60     0.053333   0.00098087 -1.60529e-06      442.131 
          60         0.12   0.00136141 -4.21254e-06      442.131 
          60     0.213332   0.00162935 -3.29756e-06      442.131 
          60     0.333332   0.00173585  6.14458e-06      442.131 
          60         0.48   0.00178017  2.39331e-05      442.131 
          60     0.653331   0.00182228  4.37801e-05      442.131 
          60     0.853332   0.00176886  5.39361e-05      442.131 
          60         1.08   0.00153936  4.77479e-05       442.13 
          60      1.33333   0.00122166  2.98015e-05       442.13 
          60      1.61333  0.000899328  8.97332e-06       442.13 
          60         1.92  0.000599211 -1.09031e-05       442.13 
          60      2.25333  0.000351879 -2.96694e-05       442.13 
          60      2.61333   0.00018874 -4.39662e-05       442.13 
          60            3  0.000121864  -5.3955e-05       442.13 
          80            0           -0           -0      433.032 
          80     0.013333   0.00063361  1.41944e-07      433.032 
          80     0.053333  0.000704333  2.29765e-06      433.032 
          80         0.12  0.000720602  1.12646e-05      433.032 
          80     0.213332  0.000595688  3.18965e-05      433.032 
          80     0.333332  0.000411406  6.47593e-05      433.032 
          80         0.48  0.000294371  0.000106544      433.032 
          80     0.653331  0.000307572   0.00015358      433.032 
          80     0.853332  0.000399758  0.000200231      433.032 
          80         1.08  0.000431291  0.000237474      433.032 
          80      1.33333  0.000398559  0.000261763      433.032 
          80      1.61333  0.000399472  0.000276501      433.032 
          80         1.92  0.000422941  0.000280991      433.032 
          80      2.25333   0.00045214  0.000273706      433.032 
          80      2.61333  0.000479808  0.000256277      433.031 
          80            3  0.000501353  0.000231502      433.031 
         100            0           -0           -0      423.952 
         100     0.013333  0.000650447  1.39911e-07      423.952 
         100     0.053333  0.000771135  2.23073e-06      423.952 
         100         0.12   0.00086278  1.07905e-05      423.952 
         100     0.213332  0.000821027  3.05331e-05      423.952 
         100     0.333332  0.000700332  6.27445e-05      423.952 
         100         0.48  0.000608006  0.000105224      423.952 
         100     0.653331  0.000603257  0.000155015      423.952 
         100     0.853332  0.000656831  0.000207997      423.952 
         100         1.08  0.000662798   0.00025682      423.952 
         100      1.33333  0.000601432  0.000295759      423.952 
         100      1.61333  0.000559585   0.00032452      423.952 
         100         1.92  0.000529304  0.000340782      423.952 
         100      2.25333  0.000499932  0.000341598      423.952 
         100      2.61333  0.000474934  0.000328152      423.952 
         100            3  0.000461446  0.000304547      423.952 
         150            0            0            0      401.263 
         150     0.013333  0.000496681  6.94378e-08      401.263 
         150     0.053333  0.000249311  8.56217e-07      401.263 
         150         0.12 -2.15615e-05  2.74024e-06      401.263 
         150     0.213332 -0.000248786  4.25876e-06      401.263 
         150     0.333332 -0.000390158  3.08727e-06      401.263 
         150         0.48  -0.00046664 -1.91914e-06      401.263 
         150     0.653331 -0.000507562 -9.87454e-06      401.263 
         150     0.853332 -0.000490978 -1.72767e-05      401.263 
         150         1.08 -0.000367738  -2.0136e-05      401.263 
         150      1.33333 -0.000171994 -1.80724e-05      401.263 
         150      1.61333  2.93848e-05 -1.42018e-05      401.263 
         150         1.92  0.000234345 -9.61181e-06      401.263 
         150      2.25333  0.000430517 -4.02153e-06      401.263 
         150      2.61333  0.000592761  1.45655e-06      401.263 
         150            3  0.000699972  6.60556e-06      401.263 
         200            0           -0           -0      378.558 
         200     0.013333  0.000647629 -3.63982e-08      378.558 
         200     0.053333  0.000803442 -3.90585e-07      378.558 
         200         0.12    0.0010316  -7.3982e-07      378.558 
         200     0.213332   0.00119065  1.21603e-06      378.558 
         200     0.333332    0.0012193  8.75438e-06      378.558 
         200         0.48   0.00115629  2.34566e-05      378.558 
         200     0.653331   0.00107403  4.42812e-05      378.558 
         200     0.853332   0.00100451  6.87586e-05      378.558 
         200         1.08  0.000935623  9.43432e-05      378.558 
         200      1.33333  0.000847359  0.000118367      378.558 
         200      1.61333  0.000744867  0.000139123      378.558 
         200         1.92  0.000637658  0.000155261      378.558 
         200      2.25333  0.000532784  0.000165004      378.558 
         200      2.61333  0.000440079   0.00016787      378.558 
         200            3   0.00037117  0.000164236      378.558 
         250            0           -0           -0      355.836 
         250     0.013333  0.000747525 -6.57887e-09      355.836 
         250     0.053333   0.00113927   3.2546e-07      355.836 
         250         0.12   0.00158493  4.09653e-06      355.836 
         250     0.213332   0.00181483  1.83807e-05      355.836 
         250     0.333332   0.00178527  4.93406e-05      355.836 
         250         0.48   0.00165411  9.67925e-05      355.836 
         250     0.653331   0.00156819  0.000154961      355.836 
         250     0.853332   0.00151847  0.000215364      355.836 
         250         1.08   0.00139778  0.000269604      355.836 
         250      1.33333   0.00118893  0.000313502      355.836 
         250      1.61333  0.000973648  0.000348059      355.836 
         250         1.92   0.00076699  0.000372364      355.836 
         250      2.25333  0.000568395   0.00038294      355.836 
         250      2.61333  0.000395528  0.000379304      355.836 
         250            3  0.000272568    0.0003624      355.836 
         300            0           -0           -0      333.099 
         300     0.013333  0.000710489  2.46204e-07      333.099 
         300     0.053333  0.000949466  3.91983e-06      333.099 
         300         0.12   0.00109759   1.8945e-05      333.099 
         300     0.213332  0.000986285  5.36203e-05      333.099 
         300     0.333332  0.000729957  0.000109931      333.099 
         300         0.48  0.000543421  0.000182977      333.099 
         300     0.653331  0.000535157  0.000266778      333.099 
         300     0.853332  0.000668992  0.000356335      333.099 
         300         1.08  0.000799175  0.000443768      333.099 
         300      1.33333  0.000801964  0.000519513      333.099 
         300      1.61333  0.000730487  0.000579508      333.099 
         300         1.92   0.00066545  0.000622467      333.099 
         300      2.25333   0.00060523  0.000644276      333.099 
         300      2.61333  0.000546802  0.000642758      333.099 
         300            3  0.000497603  0.000618601      333.099 
         350            0            0            0       310.35 
         350     0.013333  0.000660985  4.57537e-07       310.35 
         350     0.053333  0.000718758  6.92142e-06       310.35 
         350         0.12  0.000534783  3.13791e-05       310.35 
         350     0.213332  3.15356e-05  8.34121e-05       310.35 
         350     0.333332 -0.000529832  0.000161911       310.35 
         350         0.48 -0.000866099  0.000257873       310.35 
         350     0.653331 -0.000892397  0.000364352       310.35 
         350     0.853332 -0.000663149  0.000479282       310.35 
         350         1.08 -0.000320392  0.000597646       310.35 
         350      1.33333 -6.02518e-05  0.000707474       310.35 
         350      1.61333  8.56316e-05  0.000798887       310.35 
         350         1.92  0.000230579  0.000868308       310.35 
         350      2.25333  0.000387469  0.000910591       310.35 
         350      2.61333  0.000536066   0.00092161       310.35 
         350            3  0.000656706  0.000900678       310.35 
         400            0            0            0      287.589 
         400     0.013333  0.000845083   3.1231e-07      287.589 
         400     0.053333   0.00140465  5.08222e-06      287.589 
         400         0.12   0.00185935  2.53792e-05      287.589 
         400     0.213332   0.00185158  7.47319e-05      287.589 
         400     0.333332   0.00146149  0.000159747      287.589 
         400         0.48   0.00102988   0.00027629      287.589 
         400     0.653331  0.000815626  0.000415595      287.589 
         400     0.853332  0.000859018   0.00056964      287.589 
         400         1.08   0.00100704  0.000728084      287.589 
         400      1.33333   0.00103736  0.000876295      287.589 
         400      1.61333  0.000920848   0.00100367      287.589 
         400         1.92  0.000789362   0.00110614      287.589 
         400      2.25333  0.000665166   0.00117665      287.589 
         400      2.61333  0.000546441   0.00120898      287.589 
         400            3  0.000443118   0.00120031      287.589 
         450            0            0            0      264.819 
         450     0.013333  0.000687795 -2.94897e-07      264.819 
         450     0.053333   0.00101808 -4.16246e-06      264.819 
         450         0.12    0.0016309 -1.70654e-05      264.819 
         450     0.213332    0.0023165 -4.02373e-05      264.819 
         450     0.333332   0.00282276 -6.85317e-05      264.819 
         450         0.48   0.00305114  -9.5378e-05      264.819 
         450     0.653331   0.00307326 -0.000118606      264.819 
         450     0.853332   0.00296489 -0.000141432      264.819 
         450         1.08   0.00271862 -0.000169103      264.819 
         450      1.33333   0.00234428 -0.000203116      264.819 
         450      1.61333   0.00194077 -0.000238421      264.819 
         450         1.92   0.00155378  -0.00026918      264.819 
         450      2.25333   0.00115637  -0.00029309      264.819 
         450      2.61333  0.000756653 -0.000308344      264.819 
         450            3  0.000396866 -0.000313706      264.819 
         500            0           -0           -0      242.037 
         500     0.013333  0.000374109  1.46405e-08      242.037 
         500     0.053333 -0.000177865 -9.76707e-08      242.037 
         500         0.12 -0.000757519 -2.52372e-06      242.037 
         500     0.213332    -0.001119 -1.31685e-05      242.037 
         500     0.333332  -0.00116399 -3.86515e-05      242.037 
         500         0.48  -0.00101211 -8.11749e-05      242.037 
         500     0.653331 -0.000845619 -0.000137417      242.037 
         500     0.853332 -0.000743949 -0.000201167      242.037 
         500         1.08 -0.000652696 -0.000265341      242.037 
         500      1.33333 -0.000491331 -0.000324053      242.037 
         500      1.61333 -0.000272874 -0.000375136      242.037 
         500         1.92 -5.25252e-05 -0.000418316      242.037 
         500      2.25333  0.000169653 -0.000451348      242.037 
         500      2.61333  0.000391562 -0.000471329      242.037 
         500            3  0.000594672 -0.000476313      242.037 
         550            0  7.13543e-19 -1.66505e-26      219.251 
         550     0.013333  0.000733559  1.37452e-07      219.251 
         550     0.053333   0.00106511  2.22937e-06      219.251 
         550         0.12   0.00140677  1.11467e-05      219.251 
         550     0.213332   0.00153328   3.3133e-05      219.251 
         550     0.333332    0.0014271   7.2079e-05      219.251 
         550         0.48   0.00122498  0.000127552      219.251 
         550     0.653331   0.00107251  0.000196733      219.251 
         550     0.853332   0.00103772  0.000276877      219.251 
         550         1.08   0.00109626  0.000364344      219.251 
         550      1.33333   0.00113678  0.000452227      219.251 
         550      1.61333   0.00107529  0.000532771      219.251 
         550         1.92  0.000960412  0.000602124      219.251 
         550      2.25333  0.000834277  0.000657328      219.251 
         550      2.61333  0.000706314  0.000694503      219.251 
         550            3  0.000580148  0.000710377      219.251 
         600            0            0            0      196.459 
         600     0.013333  0.000514509  1.01054e-07      196.459 
         600     0.053333  0.000285767  1.46851e-06      196.459 
         600         0.12 -2.28743e-05  6.27535e-06      196.459 
         600     0.213332 -0.000367124  1.54862e-05      196.459 
         600     0.333332 -0.000642247  2.73993e-05      196.459 
         600         0.48 -0.000781692  3.88545e-05      196.459 
         600     0.653331 -0.000796359  4.78629e-05      196.459 
         600     0.853332 -0.000733496  5.45582e-05      196.459 
         600         1.08 -0.000629422  5.97896e-05      196.459 
         600      1.33333 -0.000507023  6.36445e-05      196.459 
         600      1.61333 -0.000369071  6.62426e-05      196.459 
         600         1.92 -0.000205478   6.8008e-05      196.459 
         600      2.25333 -2.10675e-05  6.88469e-05      196.459 
         600      2.61333  0.000175071  6.84714e-05      196.459 
         600            3  0.000369454  6.66125e-05      196.459 
         650            0            0            0      173.657 
         650     0.013333  0.000678778  -1.0828e-07      173.657 
         650     0.053333  0.000931964 -1.42111e-06      173.657 
         650         0.12   0.00132817 -5.05421e-06      173.657 
         650     0.213332    0.0016757 -9.17435e-06      173.657 
         650     0.333332   0.00183562 -9.25548e-06      173.657 
         650         0.48   0.00181745 -2.05476e-06      173.657 
         650     0.653331   0.00172964  1.14104e-05      173.657 
         650     0.853332   0.00163576  2.66199e-05      173.657 
         650         1.08   0.00150393  3.81746e-05      173.657 
         650      1.33333   0.00130456  4.37063e-05      173.657 
         650      1.61333   0.00109838  4.58189e-05      173.657 
         650         1.92  0.000933287  4.80047e-05      173.657 
         650      2.25333  0.000778749   4.9911e-05      173.657 
         650      2.61333  0.000620703  5.10742e-05      173.657 
         650            3  0.000470722  5.13264e-05      173.657 
         700            0  5.77866e-19 -5.52487e-26       150.84 
         700     0.013333  0.000359119 -3.31639e-08       150.84 
         700     0.053333 -0.000225975 -7.87579e-07       150.84 
         700         0.12 -0.000827579  -5.4836e-06       150.84 
         700     0.213332  -0.00118423 -2.06942e-05       150.84 
         700     0.333332  -0.00120211 -5.29438e-05       150.84 
         700         0.48  -0.00101801 -0.000103971       150.84 
         700     0.653331 -0.000837879 -0.000170285       150.84 
         700     0.853332 -0.000766858 -0.000246113       150.84 
         700         1.08 -0.000755835 -0.000324567       150.84 
         700      1.33333 -0.000672332 -0.000398058       150.84 
         700      1.61333 -0.000473074 -0.000462171       150.84 
         700         1.92 -0.000251668 -0.000517566       150.84 
         700      2.25333 -3.53003e-05 -0.000563549       150.84 
         700      2.61333  0.000181977 -0.000597097       150.84 
         700            3  0.000398251 -0.000614976       150.84 
         750            0            0            0       128.01 
         750     0.013333  0.000751319  5.45415e-08       128.01 
         750     0.053333   0.00114512  1.05438e-06       128.01 
         750         0.12   0.00159993  6.31802e-06       128.01 
         750     0.213332   0.00184656  2.17717e-05       128.01 
         750     0.333332   0.00180682  5.27615e-05       128.01 
         750         0.48   0.00160723   0.00010025       128.01 
         750     0.653331   0.00142917  0.000160891       128.01 
         750     0.853332   0.00136148   0.00022991       128.01 
         750         1.08    0.0013704  0.000302175       128.01 
         750      1.33333   0.00134521  0.000371579       128.01 
         750      1.61333   0.00121921  0.000432952       128.01 
         750         1.92   0.00105354  0.000485826       128.01 
         750      2.25333  0.000893564  0.000529296       128.01 
         750      2.61333  0.000739672  0.000561428       128.01 
         750            3  0.000585107   0.00057958       128.01 
         800            0            0            0      105.168 
         800     0.013333  0.000384078  6.89418e-08      105.168 
         800     0.053333 -0.000175874  8.18252e-07      105.168 
         800         0.12 -0.000849893  2.23876e-06      105.168 
         800     0.213332  -0.00141965  1.28946e-06      105.168 
         800     0.333332  -0.00171794 -7.38723e-06      105.168 
         800         0.48  -0.00175424 -2.77239e-05      105.168 
         800     0.653331  -0.00166351  -5.9714e-05      105.168 
         800     0.853332  -0.00156609 -0.000100088      105.168 
         800         1.08  -0.00147574 -0.000143745      105.168 
         800      1.33333  -0.00132397 -0.000185272      105.168 
         800      1.61333  -0.00107542 -0.000221299      105.168 
         800         1.92 -0.000786292 -0.000252392      105.168 
         800      2.25333 -0.000486344 -0.000278943      105.168 
         800      2.61333 -0.000174878 -0.000299867      105.168 
         800            3  0.000146312 -0.000313457      105.168 
         850            0           -0           -0      82.3228 
         850     0.013333  0.000564886 -8.18084e-08      82.3228 
         850     0.053333  0.000517421 -1.18868e-06      82.3228 
         850         0.12    0.0005571 -5.13331e-06      82.3228 
         850     0.213332  0.000659868 -1.30954e-05      82.3228 
         850     0.333332  0.000779781 -2.48366e-05      82.3228 
         850         0.48  0.000879509 -3.94496e-05      82.3228 
         850     0.653331  0.000952088  -5.6565e-05      82.3228 
         850     0.853332  0.000994843 -7.68394e-05      82.3228 
         850         1.08  0.000986679 -0.000101655      82.3228 
         850      1.33333  0.000908153  -0.00013187      82.3228 
         850      1.61333  0.000791399 -0.000165801      82.3228 
         850         1.92  0.000702903 -0.000199504      82.3228 
         850      2.25333  0.000638678 -0.000230361      82.3228 
         850      2.61333  0.000580142 -0.000256684      82.3228 
         850            3  0.000521462  -0.00027716      82.3228 
         900            0            0            0       59.471 
         900     0.013333  0.000444759  4.19681e-08       59.471 
         900     0.053333  4.87168e-05  5.08491e-07       59.471 
         900         0.12 -0.000411806  1.42086e-06       59.471 
         900     0.213332 -0.000789211  7.66146e-07       59.471 
         900     0.333332 -0.000954227 -5.42759e-06       59.471 
         900         0.48 -0.000900759   -2.064e-05       59.471 
         900     0.653331 -0.000729742 -4.55227e-05       59.471 
         900     0.853332 -0.000550887 -7.79532e-05       59.471 
         900         1.08 -0.000406043 -0.000114658       59.471 
         900      1.33333 -0.000278268 -0.000152696       59.471 
         900      1.61333 -0.000148859 -0.000190357       59.471 
         900         1.92 -2.25493e-05 -0.000227227       59.471 
         900      2.25333  0.000105518 -0.000262123       59.471 
         900      2.61333  0.000241043 -0.000293125       59.471 
         900            3  0.000381498 -0.000318183       59.471 
         950            0            0            0      36.6081 
         950     0.013333  0.000329137 -1.85235e-07      36.6081 
         950     0.053333  -0.00028999 -3.02248e-06      36.6081 
         950         0.12 -0.000810324  -1.5465e-05      36.6081 
         950     0.213332 -0.000904436 -4.76031e-05      36.6081 
         950     0.333332 -0.000515476 -0.000107692      36.6081 
         950         0.48  0.000113491  -0.00019706      36.6081 
         950     0.653331  0.000672034 -0.000310146      36.6081 
         950     0.853332  0.000995583 -0.000439148      36.6081 
         950         1.08   0.00109218 -0.000577645      36.6081 
         950      1.33333   0.00105877 -0.000720374      36.6082 
         950      1.61333  0.000997658 -0.000861991      36.6082 
         950         1.92  0.000960525 -0.000996912      36.6082 
         950      2.25333  0.000928622  -0.00111974      36.6082 
         950      2.61333  0.000885729  -0.00122438      36.6082 
         950            3  0.000829999  -0.00130426      36.6082 
        1000            0  6.69054e-19  1.13262e-24      13.7329 
        1000     0.013333  0.000628181 -5.53699e-07      13.7329 
        1000     0.053333  0.000924632 -8.33711e-06      13.7329 
        1000         0.12   0.00185736 -3.76691e-05      13.7329 
        1000     0.213332   0.00338856  -0.00010073      13.7329 
        1000     0.333332   0.00504886 -0.000197979      13.7329 
        1000         0.48   0.00628628 -0.000318352      13.7329 
        1000     0.653331   0.00687543 -0.000449013      13.7329 
        1000     0.853332   0.00691487 -0.000584028      13.7329 
        1000         1.08   0.00657008 -0.000724853      13.7329 
        1000      1.33333    0.0059652 -0.000872993      13.7329 
        1000      1.61333   0.00525023  -0.00102354      13.7329 
        1000         1.92   0.00456036   -0.0011668      13.7329 
        1000      2.25333   0.00386311  -0.00129584      13.7328 
        1000      2.61333   0.00310776  -0.00140427      13.7328 
        1000            3   0.00228886  -0.00148548      13.7328 
