Variables = x, y, u, v, p

Zone, I=416, F=POINT
         -50            0            0            0       156.09 
         -50     0.013333  0.000175007   3.9104e-08       156.09 
         -50     0.053333   0.00014912  1.09063e-07       156.09 
         -50         0.12  0.000147512  1.98413e-07       156.09 
         -50     0.213332  0.000151193  3.60848e-07       156.09 
         -50     0.333332  0.000155463  8.75585e-07       156.09 
         -50         0.48  0.000158832  3.53365e-07       156.09 
         -50     0.653331  0.000161594  1.04401e-06       156.09 
         -50     0.853332  0.000164196  2.47397e-06       156.09 
         -50         1.08  0.000167198  3.27085e-06      156.089 
         -50      1.33333  0.000169366  4.35195e-06      156.089 
         -50      1.61333  0.000166275  5.40954e-06      156.088 
         -50         1.92  0.000157621  5.78499e-06      156.087 
         -50      2.25333  0.000141248  4.96843e-06      156.085 
         -50      2.61333  0.000127567  4.96359e-06      156.084 
         -50            3   0.00012783  9.57069e-06      156.082 
         -25            0           -0           -0       151.89 
         -25     0.013333  0.000152636   8.8362e-09       151.89 
         -25     0.053333  0.000139064  3.12431e-08       151.89 
         -25         0.12  0.000144721  1.60398e-07       151.89 
         -25     0.213332  0.000149297  5.76797e-07      151.889 
         -25     0.333332  0.000150749  1.35224e-06      151.889 
         -25         0.48  0.000151057   2.4509e-06      151.889 
         -25     0.653331  0.000150386  3.49531e-06      151.889 
         -25     0.853332  0.000145968  4.29579e-06      151.889 
         -25         1.08  0.000138313  4.98051e-06      151.889 
         -25      1.33333  0.000131343  5.26718e-06      151.889 
         -25      1.61333  0.000125836  5.37547e-06      151.889 
         -25         1.92  0.000124987  5.76156e-06      151.889 
         -25      2.25333  0.000128506  5.73214e-06      151.888 
         -25      2.61333  0.000134302  7.02628e-06      151.888 
         -25            3  0.000139411  1.03564e-05      151.887 
           0            0  1.66115e-15 -1.11785e-15      147.951 
           0     0.013333  0.000338713 -0.000228024      147.956 
           0     0.053333    0.0002079 -0.000106957      147.962 
           0         0.12  0.000161856 -7.33526e-05      147.969 
           0     0.213332  0.000138786 -5.49029e-05      147.977 
           0     0.333332  0.000124575 -4.37432e-05      147.985 
           0         0.48  0.000113364  -3.5497e-05      147.992 
           0     0.653331  0.000106839 -2.91127e-05      147.999 
           0     0.853332  0.000105977 -2.38626e-05      148.007 
           0         1.08  0.000108363 -1.94888e-05      148.013 
           0      1.33333   0.00010999 -1.55904e-05       148.02 
           0      1.61333  0.000110718 -1.25222e-05      148.026 
           0         1.92  0.000111318 -1.00883e-05      148.032 
           0      2.25333   0.00011264  -8.1974e-06      148.037 
           0      2.61333   0.00011662  -6.2116e-06      148.043 
           0            3  0.000118437 -6.07452e-06      148.048 
          20            0  0.000185763  -9.5769e-05      145.258 
          20     0.013333  0.000191774 -9.67129e-05      145.258 
          20     0.053333  0.000210473 -9.94423e-05      145.258 
          20         0.12  0.000243492 -0.000103675      145.258 
          20     0.213332  0.000291384 -0.000109081      145.258 
          20     0.333332  0.000347907 -0.000115558      145.258 
          20         0.48  0.000390931 -0.000123574      145.258 
          20     0.653331  0.000399448   -0.0001333      145.257 
          20     0.853332  0.000369859 -0.000143655      145.257 
          20         1.08  0.000319761 -0.000152347      145.257 
          20      1.33333   0.00026527 -0.000157292      145.257 
          20      1.61333  0.000204645 -0.000157413      145.256 
          20         1.92  0.000147147 -0.000151997      145.256 
          20      2.25333  0.000104107 -0.000141563      145.256 
          20      2.61333   7.2562e-05 -0.000128918      145.255 
          20            3  5.14942e-05 -0.000115252      145.254 
          40            0            0            0      142.391 
          40     0.013333  0.000222803 -1.83832e-07      142.391 
          40     0.053333  0.000442468 -2.45684e-06      142.391 
          40         0.12  0.000754253  -8.6331e-06      142.391 
          40     0.213332  0.000988479 -1.56972e-05      142.391 
          40     0.333332   0.00106347 -1.78139e-05      142.391 
          40         0.48   0.00101628 -1.38283e-05      142.391 
          40     0.653331  0.000909167  -7.4786e-06      142.391 
          40     0.853332  0.000811669  1.81167e-06      142.391 
          40         1.08  0.000687914   1.4735e-05      142.391 
          40      1.33333  0.000493993  2.67001e-05      142.391 
          40      1.61333  0.000285909  3.70757e-05      142.391 
          40         1.92  9.76516e-05  4.54043e-05      142.391 
          40      2.25333 -4.62975e-05   5.0942e-05       142.39 
          40      2.61333 -0.000128292  5.47246e-05       142.39 
          40            3 -0.000150961  5.54633e-05       142.39 
          60            0            0            0      139.491 
          60     0.013333  0.000310426  -1.7511e-07      139.491 
          60     0.053333  0.000751157 -2.01721e-06      139.491 
          60         0.12   0.00128823 -5.26051e-06      139.491 
          60     0.213332   0.00163762 -3.25099e-06      139.491 
          60     0.333332   0.00171628  1.24543e-05      139.491 
          60         0.48    0.0016751  4.38276e-05      139.491 
          60     0.653331   0.00164688  8.37961e-05      139.491 
          60     0.853332    0.0015586  0.000118039      139.491 
          60         1.08   0.00131226  0.000138499      139.491 
          60      1.33333  0.000972442  0.000148499      139.491 
          60      1.61333  0.000605795  0.000153703      139.491 
          60         1.92  0.000247103  0.000154139      139.491 
          60      2.25333 -4.85092e-05  0.000148351      139.491 
          60      2.61333 -0.000245245  0.000138371      139.491 
          60            3  -0.00033838  0.000124461      139.491 
          80            0           -0           -0      136.615 
          80     0.013333  0.000231902 -1.01443e-07      136.615 
          80     0.053333   0.00047221 -1.21515e-06      136.615 
          80         0.12  0.000798217 -3.63245e-06      136.615 
          80     0.213332   0.00106091 -4.68998e-06      136.615 
          80     0.333332   0.00119911 -6.33352e-07      136.615 
          80         0.48   0.00126015  1.00219e-05      136.615 
          80     0.653331   0.00129475  2.49002e-05      136.615 
          80     0.853332    0.0012364  3.59651e-05      136.615 
          80         1.08  0.000986128  3.48323e-05      136.615 
          80      1.33333  0.000668509   2.3788e-05      136.615 
          80      1.61333  0.000425189  1.21823e-05      136.615 
          80         1.92  0.000209122  1.91617e-06      136.615 
          80      2.25333  2.15413e-05 -8.07439e-06      136.615 
          80      2.61333 -0.000116038 -1.61863e-05      136.615 
          80            3  -0.00018854 -2.15875e-05      136.615 
         100            0           -0           -0      133.745 
         100     0.013333  0.000115808  -3.9852e-09      133.745 
         100     0.053333  4.14125e-05 -4.96584e-08      133.745 
         100         0.12 -2.92009e-05 -2.20817e-07      133.745 
         100     0.213332 -8.16722e-05 -8.77586e-07      133.745 
         100     0.333332 -9.51786e-05 -3.02014e-06      133.745 
         100         0.48 -7.50344e-05  -7.9869e-06      133.745 
         100     0.653331 -5.01062e-05 -1.66218e-05      133.745 
         100     0.853332   -4.255e-05 -2.88603e-05      133.745 
         100         1.08 -4.71103e-05 -4.38696e-05      133.745 
         100      1.33333  -3.1844e-05 -5.93746e-05      133.745 
         100      1.61333  1.31757e-05 -7.26695e-05      133.745 
         100         1.92  5.44435e-05 -8.32354e-05      133.745 
         100      2.25333  9.00221e-05 -9.02208e-05      133.745 
         100      2.61333  0.000119676  -9.3529e-05      133.745 
         100            3  0.000140169 -9.30188e-05      133.745 
         150            0            0            0      126.574 
         150     0.013333 -1.10267e-05  2.23919e-07      126.574 
         150     0.053333 -0.000451796  2.94101e-06      126.574 
         150         0.12  -0.00102634  1.05954e-05      126.574 
         150     0.213332  -0.00152216  2.04234e-05      126.574 
         150     0.333332  -0.00178632  2.56425e-05      126.574 
         150         0.48  -0.00185115  2.20885e-05      126.574 
         150     0.653331  -0.00181172  1.17733e-05      126.574 
         150     0.853332  -0.00167029  1.64791e-06      126.574 
         150         1.08  -0.00138695 -3.04431e-06      126.574 
         150      1.33333  -0.00102365 -2.73677e-06      126.574 
         150      1.61333 -0.000654956 -1.38488e-06      126.574 
         150         1.92   -0.0002823  -4.6824e-08      126.574 
         150      2.25333  6.54241e-05  2.39955e-06      126.574 
         150      2.61333  0.000344726  4.22762e-06      126.574 
         150            3  0.000520568  5.43224e-06      126.574 
         200            0           -0           -0      119.402 
         200     0.013333  0.000116074 -1.15343e-07      119.402 
         200     0.053333  7.23192e-05 -1.73841e-06      119.402 
         200         0.12  0.000104419 -7.77487e-06      119.402 
         200     0.213332   0.00019332 -2.01192e-05      119.402 
         200     0.333332  0.000266301 -3.76787e-05      119.402 
         200         0.48  0.000271478 -5.79453e-05      119.402 
         200     0.653331  0.000211594 -7.96523e-05      119.402 
         200     0.853332   0.00011955 -0.000102093      119.402 
         200         1.08  5.22224e-05 -0.000122582      119.402 
         200      1.33333   4.0141e-05 -0.000138006      119.402 
         200      1.61333  4.81534e-05 -0.000147845      119.402 
         200         1.92   5.3391e-05 -0.000152241      119.402 
         200      2.25333  6.07671e-05 -0.000150473      119.402 
         200      2.61333  7.18539e-05 -0.000142768      119.402 
         200            3  8.31013e-05 -0.000130273      119.402 
         250            0           -0           -0      112.226 
         250     0.013333  0.000343977 -3.84078e-07      112.226 
         250     0.053333  0.000945726 -5.28404e-06      112.226 
         250         0.12   0.00185941  -2.0638e-05      112.226 
         250     0.213332   0.00273515 -4.49959e-05      112.226 
         250     0.333332   0.00324865 -6.82171e-05      112.226 
         250         0.48   0.00336232 -8.07746e-05      112.226 
         250     0.653331   0.00324086 -8.17661e-05      112.226 
         250     0.853332   0.00298462 -7.81312e-05      112.226 
         250         1.08   0.00258484 -7.66504e-05      112.226 
         250      1.33333   0.00208413 -7.81197e-05      112.226 
         250      1.61333   0.00156138 -7.83416e-05      112.226 
         250         1.92   0.00101537 -7.56443e-05      112.226 
         250      2.25333   0.00046736 -7.10948e-05      112.226 
         250      2.61333 -2.49925e-05 -6.39507e-05      112.226 
         250            3 -0.000396805 -5.49296e-05      112.226 
         300            0           -0           -0      105.046 
         300     0.013333  4.40027e-05 -5.55525e-07      105.046 
         300     0.053333 -6.69051e-05 -8.29091e-06      105.046 
         300         0.12  0.000168413 -3.70169e-05      105.046 
         300     0.213332  0.000786087 -9.73108e-05      105.046 
         300     0.333332    0.0014963  -0.00018826      105.046 
         300         0.48   0.00199531 -0.000301169      105.046 
         300     0.653331    0.0021714 -0.000429654      105.046 
         300     0.853332   0.00202805 -0.000572663      105.046 
         300         1.08   0.00165509 -0.000726359      105.046 
         300      1.33333   0.00126042  -0.00087758      105.046 
         300      1.61333  0.000956263  -0.00101067      105.046 
         300         1.92  0.000663912  -0.00111585      105.046 
         300      2.25333  0.000364361  -0.00118457      105.046 
         300      2.61333   8.6024e-05  -0.00121048      105.046 
         300            3 -0.000134254   -0.0011929      105.046 
         350            0            0            0      97.8643 
         350     0.013333  0.000226068 -7.86696e-08      97.8643 
         350     0.053333  0.000447001 -9.60374e-07      97.8643 
         350         0.12  0.000737578 -2.83202e-06      97.8643 
         350     0.213332  0.000930308 -2.76622e-06      97.8643 
         350     0.333332  0.000938013  4.12869e-06      97.8643 
         350         0.48  0.000817566  2.01412e-05      97.8643 
         350     0.653331  0.000675346  4.27221e-05      97.8643 
         350     0.853332  0.000544225  6.66871e-05      97.8643 
         350         1.08  0.000406373  8.86275e-05      97.8643 
         350      1.33333  0.000289677   0.00010961      97.8643 
         350      1.61333    0.0002183  0.000131547      97.8643 
         350         1.92  0.000153264  0.000152593      97.8643 
         350      2.25333  8.78557e-05  0.000170201      97.8642 
         350      2.61333  3.02479e-05  0.000182826      97.8642 
         350            3 -1.18269e-05  0.000189501      97.8642 
         400            0            0            0      90.6808 
         400     0.013333  0.000329036 -4.53702e-07      90.6808 
         400     0.053333  0.000919509 -6.39227e-06      90.6808 
         400         0.12   0.00189166 -2.59988e-05      90.6808 
         400     0.213332   0.00290867   -6.014e-05      90.6808 
         400     0.333332   0.00357177 -9.89719e-05      90.6808 
         400         0.48   0.00375883 -0.000131053      90.6808 
         400     0.653331    0.0036242 -0.000153659      90.6808 
         400     0.853332   0.00331282 -0.000173124      90.6808 
         400         1.08    0.0028537 -0.000196445      90.6808 
         400      1.33333   0.00231624  -0.00022271      90.6808 
         400      1.61333   0.00180708  -0.00024483      90.6808 
         400         1.92   0.00130213 -0.000259263      90.6808 
         400      2.25333  0.000776123 -0.000265751      90.6808 
         400      2.61333  0.000259831 -0.000263525      90.6807 
         400            3   -0.0001868 -0.000252496      90.6807 
         450            0            0            0      83.4931 
         450     0.013333 -0.000294865 -2.23194e-07      83.4931 
         450     0.053333   -0.0013521 -3.95472e-06      83.4931 
         450         0.12  -0.00237391  -2.1751e-05      83.4931 
         450     0.213332  -0.00282104 -6.98939e-05      83.4931 
         450     0.333332  -0.00262652 -0.000160633      83.4931 
         450         0.48  -0.00215703 -0.000294082      83.4931 
         450     0.653331  -0.00180506 -0.000461228      83.4931 
         450     0.853332   -0.0017093 -0.000650521      83.4931 
         450         1.08  -0.00172548 -0.000847652      83.4931 
         450      1.33333  -0.00159617  -0.00103515      83.4931 
         450      1.61333  -0.00127024  -0.00120042      83.4931 
         450         1.92 -0.000897391  -0.00133847      83.4931 
         450      2.25333 -0.000515337  -0.00144065      83.4931 
         450      2.61333 -0.000136428  -0.00149861      83.4931 
         450            3  0.000208217  -0.00150724      83.4932 
         500            0           -0           -0      76.3056 
         500     0.013333  0.000386191  2.70787e-07      76.3056 
         500     0.053333  0.000927813  4.32316e-06      76.3056 
         500         0.12    0.0013833  2.12618e-05      76.3056 
         500     0.213332   0.00142099  6.24249e-05      76.3056 
         500     0.333332    0.0010595  0.000134717      76.3056 
         500         0.48  0.000569668  0.000236883      76.3056 
         500     0.653331  0.000206761  0.000362637      76.3056 
         500     0.853332  7.14178e-05  0.000505778      76.3056 
         500         1.08  0.000127319  0.000660647      76.3056 
         500      1.33333  0.000236813  0.000818475      76.3056 
         500      1.61333  0.000266722  0.000967278      76.3056 
         500         1.92  0.000230742   0.00109728      76.3056 
         500      2.25333  0.000183603   0.00120063      76.3056 
         500      2.61333  0.000141126   0.00126948      76.3056 
         500            3  0.000100071   0.00129803      76.3056 
         550            0  7.14997e-20 -5.25312e-27      69.1161 
         550     0.013333 -0.000129833 -1.64816e-07      69.1161 
         550     0.053333 -0.000791172 -2.78081e-06      69.1161 
         550         0.12   -0.0014308  -1.4565e-05       69.116 
         550     0.213332  -0.00173201 -4.51413e-05       69.116 
         550     0.333332  -0.00165166  -0.00010143       69.116 
         550         0.48  -0.00139957 -0.000183475       69.116 
         550     0.653331  -0.00120828 -0.000286436       69.116 
         550     0.853332  -0.00117439 -0.000404438       69.116 
         550         1.08  -0.00123148 -0.000530161       69.116 
         550      1.33333  -0.00121627  -0.00065357       69.116 
         550      1.61333  -0.00105213 -0.000765789      69.1161 
         550         1.92 -0.000819232 -0.000862618      69.1161 
         550      2.25333 -0.000564933 -0.000939443      69.1161 
         550      2.61333 -0.000301686 -0.000990598      69.1161 
         550            3 -4.17857e-05  -0.00101149      69.1161 
         600            0            0            0      61.9264 
         600     0.013333  0.000135979  1.94822e-07      61.9264 
         600     0.053333  5.41576e-05  2.90197e-06      61.9264 
         600         0.12 -0.000163855  1.29081e-05      61.9264 
         600     0.213332 -0.000515513  3.36672e-05      61.9264 
         600     0.333332 -0.000857686  6.40912e-05      61.9264 
         600         0.48  -0.00105584  9.97405e-05      61.9264 
         600     0.653331  -0.00108702  0.000137081      61.9264 
         600     0.853332 -0.000995231  0.000175761      61.9264 
         600         1.08 -0.000820424  0.000216763      61.9264 
         600      1.33333 -0.000619766  0.000258356      61.9264 
         600      1.61333 -0.000463222  0.000295767      61.9264 
         600         1.92 -0.000338515  0.000325882      61.9264 
         600      2.25333  -0.00020628  0.000347812      61.9264 
         600      2.61333 -6.25437e-05  0.000360246      61.9264 
         600            3  7.54867e-05  0.000361787      61.9264 
         650            0            0            0      54.7347 
         650     0.013333  2.93513e-05 -1.71615e-07      54.7347 
         650     0.053333   -0.0002164 -2.67332e-06      54.7347 
         650         0.12 -0.000349293 -1.27696e-05      54.7347 
         650     0.213332 -0.000235694  -3.6531e-05      54.7347 
         650     0.333332  8.82227e-05  -7.7297e-05      54.7347 
         650         0.48  0.000461752 -0.000134012      54.7347 
         650     0.653331  0.000742524 -0.000203059      54.7347 
         650     0.853332  0.000873448 -0.000281227      54.7347 
         650         1.08  0.000860021 -0.000366513      54.7347 
         650      1.33333  0.000751961 -0.000456167      54.7347 
         650      1.61333  0.000628626 -0.000545016      54.7347 
         650         1.92  0.000534207  -0.00062695      54.7347 
         650      2.25333  0.000444064 -0.000697307      54.7347 
         650      2.61333  0.000344945 -0.000751388      54.7347 
         650            3  0.000243999 -0.000785057      54.7347 
         700            0  2.11484e-19 -1.05937e-26      47.5401 
         700     0.013333   0.00025846 -1.14883e-07      47.5401 
         700     0.053333  0.000593079 -1.59914e-06      47.5401 
         700         0.12   0.00111945 -6.40322e-06      47.5401 
         700     0.213332   0.00168237 -1.45376e-05      47.5401 
         700     0.333332   0.00212251 -2.32121e-05      47.5401 
         700         0.48   0.00237031  -2.8801e-05      47.5401 
         700     0.653331   0.00246503 -2.93595e-05      47.5401 
         700     0.853332    0.0024747 -2.55535e-05      47.5401 
         700         1.08   0.00241409 -2.03414e-05      47.5401 
         700      1.33333    0.0022491 -1.72161e-05      47.5401 
         700      1.61333   0.00197993 -1.75972e-05      47.5401 
         700         1.92   0.00166267 -1.99898e-05      47.5401 
         700      2.25333   0.00131678 -2.30108e-05      47.5401 
         700      2.61333  0.000946182 -2.62812e-05        47.54 
         700            3  0.000564696 -2.96394e-05        47.54 
         750            0            0            0      40.3416 
         750     0.013333  0.000253768 -2.73819e-08      40.3416 
         750     0.053333  0.000547305  -3.0166e-07      40.3416 
         750         0.12  0.000949676 -6.01187e-07      40.3416 
         750     0.213332   0.00129899  9.77775e-07      40.3416 
         750     0.333332   0.00148631  7.71707e-06      40.3416 
         750         0.48   0.00151034  2.21955e-05      40.3416 
         750     0.653331   0.00144923  4.45933e-05      40.3416 
         750     0.853332   0.00137411  7.29643e-05      40.3416 
         750         1.08    0.0013009  0.000104576      40.3416 
         750      1.33333   0.00121166  0.000137223      40.3416 
         750      1.61333   0.00109348  0.000169458      40.3416 
         750         1.92   0.00094339  0.000199826      40.3416 
         750      2.25333  0.000769181  0.000226963      40.3416 
         750      2.61333  0.000578094  0.000249167      40.3416 
         750            3  0.000378943  0.000264869      40.3416 
         800            0            0            0      33.1403 
         800     0.013333  5.87985e-05  1.17092e-07      33.1403 
         800     0.053333 -0.000199043   1.6419e-06      33.1403 
         800         0.12 -0.000563407  6.62333e-06      33.1403 
         800     0.213332 -0.000933919  1.50895e-05      33.1403 
         800     0.333332  -0.00117531  2.40623e-05      33.1403 
         800         0.48  -0.00123885  2.99304e-05      33.1403 
         800     0.653331  -0.00118129  3.15373e-05      33.1403 
         800     0.853332  -0.00107553  3.08254e-05      33.1403 
         800         1.08 -0.000936677  3.12249e-05      33.1403 
         800      1.33333 -0.000754512  3.47771e-05      33.1403 
         800      1.61333 -0.000563109   4.0268e-05      33.1403 
         800         1.92 -0.000404732  4.45169e-05      33.1403 
         800      2.25333 -0.000257464  4.76451e-05      33.1404 
         800      2.61333 -0.000104437  4.92427e-05      33.1404 
         800            3  4.97338e-05  4.89945e-05      33.1404 
         850            0           -0           -0      25.9396 
         850     0.013333  7.27149e-05 -1.75615e-07      25.9396 
         850     0.053333 -5.62432e-05 -2.70261e-06      25.9396 
         850         0.12 -3.34547e-05 -1.26938e-05      25.9396 
         850     0.213332  0.000228419 -3.56377e-05      25.9396 
         850     0.333332  0.000655343 -7.39538e-05      25.9396 
         850         0.48   0.00107307 -0.000125687      25.9396 
         850     0.653331   0.00135271 -0.000186622      25.9396 
         850     0.853332   0.00146592 -0.000253441      25.9396 
         850         1.08   0.00143664 -0.000324891      25.9396 
         850      1.33333   0.00130269 -0.000400032      25.9396 
         850      1.61333   0.00112653 -0.000475756      25.9396 
         850         1.92  0.000969023 -0.000547307      25.9396 
         850      2.25333  0.000813891 -0.000610521      25.9396 
         850      2.61333  0.000643897 -0.000662256      25.9395 
         850            3  0.000461575 -0.000699309      25.9395 
         900            0            0            0      18.7382 
         900     0.013333  0.000329316  -2.5931e-07      18.7382 
         900     0.053333  0.000898652 -3.72695e-06      18.7382 
         900         0.12   0.00183748 -1.56958e-05      18.7382 
         900     0.213332   0.00290297  -3.8106e-05      18.7382 
         900     0.333332   0.00375785 -6.61922e-05      18.7382 
         900         0.48   0.00419696 -9.16107e-05      18.7382 
         900     0.653331   0.00426142  -0.00010886      18.7382 
         900     0.853332   0.00410984 -0.000118402      18.7382 
         900         1.08   0.00384293 -0.000124646      18.7382 
         900      1.33333   0.00348286 -0.000131455      18.7382 
         900      1.61333   0.00305492  -0.00013929      18.7382 
         900         1.92   0.00259789 -0.000146544      18.7382 
         900      2.25333   0.00211018 -0.000151522      18.7381 
         900      2.61333   0.00158286 -0.000153973      18.7381 
         900            3   0.00102512 -0.000153759      18.7381 
         950            0            0            0      11.5331 
         950     0.013333  0.000481592  1.80573e-07      11.5331 
         950     0.053333   0.00130073  3.03923e-06      11.5331 
         950         0.12   0.00216074  1.60182e-05      11.5331 
         950     0.213332   0.00258944  5.04634e-05      11.5331 
         950     0.333332    0.0024524  0.000116002      11.5331 
         950         0.48   0.00198237    0.0002147      11.5331 
         950     0.653331   0.00152383  0.000341317      11.5331 
         950     0.853332   0.00128254  0.000488332      11.5331 
         950         1.08   0.00126595  0.000648648      11.5331 
         950      1.33333   0.00132734  0.000813771      11.5331 
         950      1.61333   0.00128865  0.000973667      11.5331 
         950         1.92   0.00111565   0.00112102      11.5331 
         950      2.25333  0.000902428   0.00125227      11.5331 
         950      2.61333  0.000687842    0.0013619      11.5331 
         950            3  0.000465171   0.00144295       11.533 
        1000            0  1.61488e-19 -7.48645e-25      4.32428 
        1000     0.013333   0.00010403  3.04536e-07      4.32428 
        1000     0.053333 -0.000110744  4.54565e-06      4.32428 
        1000         0.12 -0.000622008  2.02753e-05      4.32428 
        1000     0.213332  -0.00142702  5.35069e-05      4.32428 
        1000     0.333332  -0.00228809  0.000104074      4.32428 
        1000         0.48  -0.00293674  0.000166372      4.32428 
        1000     0.653331  -0.00327065  0.000234354      4.32428 
        1000     0.853332  -0.00334178  0.000305586      4.32428 
        1000         1.08  -0.00321573  0.000381695      4.32428 
        1000      1.33333  -0.00291373  0.000465168      4.32428 
        1000      1.61333  -0.00248882  0.000554622      4.32428 
        1000         1.92  -0.00206066  0.000643265      4.32428 
        1000      2.25333  -0.00165065  0.000724801      4.32429 
        1000      2.61333  -0.00122842  0.000794537      4.32431 
        1000            3 -0.000774669  0.000848706      4.32433 
