Variables = x, y, u, v, p

Zone, I=416, F=POINT
         -50            0            0            0      180.287 
         -50     0.013333 -7.36735e-06  1.00031e-08      180.287 
         -50     0.053333 -1.75355e-05 -1.25006e-07      180.287 
         -50         0.12 -2.79112e-05 -6.27587e-07      180.287 
         -50     0.213332 -3.21485e-05 -1.68665e-06      180.287 
         -50     0.333332 -3.25338e-05 -3.15777e-06      180.287 
         -50         0.48 -3.41366e-05 -5.81433e-06      180.287 
         -50     0.653331 -3.85039e-05 -9.07247e-06      180.287 
         -50     0.853332 -4.17706e-05 -1.18098e-05      180.286 
         -50         1.08 -3.94478e-05 -1.45903e-05      180.286 
         -50      1.33333 -3.30387e-05 -1.63327e-05      180.285 
         -50      1.61333 -2.26944e-05 -1.75651e-05      180.284 
         -50         1.92 -8.95829e-06 -1.70691e-05      180.283 
         -50      2.25333  5.54664e-06 -1.62648e-05      180.281 
         -50      2.61333  1.19354e-05 -1.72467e-05      180.279 
         -50            3  7.43621e-06 -2.05248e-05      180.277 
         -25            0           -0           -0      175.502 
         -25     0.013333  2.24195e-06  5.06554e-09      175.502 
         -25     0.053333  1.29711e-05   1.1463e-08      175.502 
         -25         0.12  2.13463e-05  1.17982e-07      175.502 
         -25     0.213332  2.37884e-05  5.37074e-07      175.502 
         -25     0.333332  2.07682e-05  1.46429e-06      175.502 
         -25         0.48  1.62088e-05  2.89576e-06      175.502 
         -25     0.653331  1.32924e-05  4.64961e-06      175.502 
         -25     0.853332  1.12759e-05  6.37267e-06      175.502 
         -25         1.08  8.34791e-06  8.11703e-06      175.502 
         -25      1.33333  3.25295e-06  9.49097e-06      175.502 
         -25      1.61333 -5.49938e-06  1.02856e-05      175.502 
         -25         1.92  -1.4625e-05  1.07038e-05      175.501 
         -25      2.25333 -2.66046e-05  9.81592e-06      175.501 
         -25      2.61333 -3.08882e-05  1.16457e-05        175.5 
         -25            3  -1.9888e-05  1.90561e-05        175.5 
           0            0 -4.49102e-16  2.31291e-16      171.019 
           0     0.013333 -9.20428e-05  2.00281e-05      171.023 
           0     0.053333 -1.23006e-05  1.01457e-05       171.03 
           0         0.12   6.4662e-06  5.81851e-07      171.038 
           0     0.213332  1.60217e-05  5.73223e-07      171.047 
           0     0.333332  2.26992e-05  3.04823e-07      171.056 
           0         0.48   2.6214e-05  2.25269e-07      171.064 
           0     0.653331  2.87779e-05  3.77906e-07      171.072 
           0     0.853332  3.03178e-05    7.878e-07       171.08 
           0         1.08  2.87225e-05  1.28268e-06      171.088 
           0      1.33333  2.34457e-05   1.8944e-06      171.095 
           0      1.61333   1.6783e-05   2.4475e-06      171.102 
           0         1.92  1.03978e-05   3.0506e-06      171.109 
           0      2.25333  6.39887e-06  3.59611e-06      171.115 
           0      2.61333  2.90618e-06  3.34742e-06      171.121 
           0            3  -5.5378e-06  1.53719e-07      171.127 
          20            0  4.06771e-05 -6.70542e-05      167.948 
          20     0.013333  4.62498e-05 -6.78565e-05      167.948 
          20     0.053333  6.33228e-05 -7.02298e-05      167.948 
          20         0.12  9.24762e-05 -7.40941e-05      167.948 
          20     0.213332  0.000132609 -7.94053e-05      167.948 
          20     0.333332  0.000177082 -8.62524e-05      167.948 
          20         0.48  0.000209799 -9.49082e-05      167.948 
          20     0.653331  0.000215961 -0.000105366      167.948 
          20     0.853332  0.000194176 -0.000116749      167.948 
          20         1.08  0.000158215  -0.00012717      167.947 
          20      1.33333  0.000120561 -0.000134884      167.947 
          20      1.61333  7.97847e-05 -0.000138424      167.947 
          20         1.92  4.12351e-05 -0.000136944      167.946 
          20      2.25333   9.4083e-06 -0.000130464      167.946 
          20      2.61333 -1.26599e-05 -0.000120619      167.945 
          20            3 -2.12566e-05   -0.0001069      167.944 
          40            0            0            0      164.681 
          40     0.013333 -9.76249e-05 -7.48299e-08      164.681 
          40     0.053333   -0.0002963 -1.52631e-06      164.681 
          40         0.12  -0.00040307 -8.97957e-06      164.681 
          40     0.213332 -0.000304908 -2.95298e-05      164.681 
          40     0.333332 -0.000101376 -6.72887e-05      164.681 
          40         0.48  4.82106e-05 -0.000119322      164.681 
          40     0.653331  0.000148088 -0.000177161      164.681 
          40     0.853332  0.000238044 -0.000235817      164.681 
          40         1.08  0.000251229 -0.000295515       164.68 
          40      1.33333  0.000223397 -0.000348774       164.68 
          40      1.61333  0.000188732 -0.000386749       164.68 
          40         1.92  0.000144125 -0.000405017       164.68 
          40      2.25333  9.70237e-05 -0.000401965       164.68 
          40      2.61333  5.99228e-05 -0.000380595      164.679 
          40            3  3.63741e-05 -0.000347549      164.679 
          60            0            0            0      161.374 
          60     0.013333 -0.000259908 -2.62521e-07      161.374 
          60     0.053333 -0.000820216 -4.61207e-06      161.374 
          60         0.12  -0.00121093 -2.46079e-05      161.374 
          60     0.213332  -0.00113516 -7.51958e-05      161.374 
          60     0.333332 -0.000752329 -0.000162867      161.374 
          60         0.48  -0.00044522 -0.000282343      161.374 
          60     0.653331 -0.000443128  -0.00042349      161.374 
          60     0.853332 -0.000636307 -0.000570598      161.373 
          60         1.08  -0.00070679 -0.000704739      161.373 
          60      1.33333 -0.000563213 -0.000813486      161.373 
          60      1.61333  -0.00033094 -0.000890966      161.373 
          60         1.92 -0.000106301 -0.000928809      161.373 
          60      2.25333  7.73923e-05 -0.000921949      161.373 
          60      2.61333  0.000200303 -0.000877337      161.373 
          60            3  0.000253839 -0.000805483      161.373 
          80            0           -0           -0      158.092 
          80     0.013333 -0.000253732 -2.47536e-07      158.092 
          80     0.053333 -0.000819149 -4.25001e-06      158.092 
          80         0.12  -0.00127821 -2.21727e-05      158.092 
          80     0.213332  -0.00135505  -6.6645e-05      158.092 
          80     0.333332  -0.00115312  -0.00014316      158.092 
          80         0.48 -0.000972147 -0.000248018      158.092 
          80     0.653331  -0.00100911 -0.000373352      158.092 
          80     0.853332  -0.00116314 -0.000503377      158.092 
          80         1.08  -0.00108879 -0.000613665      158.092 
          80      1.33333 -0.000756219 -0.000690668      158.092 
          80      1.61333 -0.000435966  -0.00073968      158.092 
          80         1.92 -0.000162384 -0.000759816      158.092 
          80      2.25333  6.95596e-05 -0.000746412      158.092 
          80      2.61333  0.000233951 -0.000704828      158.092 
          80            3  0.000312465 -0.000642154      158.092 
         100            0           -0           -0      154.815 
         100     0.013333 -7.19578e-05 -1.45866e-07      154.815 
         100     0.053333 -0.000218985 -2.26056e-06      154.815 
         100         0.12 -0.000324254 -1.04164e-05      154.815 
         100     0.213332 -0.000348602  -2.7692e-05      154.815 
         100     0.333332 -0.000356479 -5.34072e-05      154.815 
         100         0.48 -0.000412836 -8.52576e-05      154.815 
         100     0.653331 -0.000526993 -0.000121905      154.815 
         100     0.853332 -0.000626256 -0.000159302      154.815 
         100         1.08 -0.000571637   -0.0001881      154.815 
         100      1.33333 -0.000411045 -0.000204398      154.815 
         100      1.61333 -0.000298417 -0.000213005      154.815 
         100         1.92 -0.000183746 -0.000213136      154.815 
         100      2.25333 -6.22742e-05 -0.000202803      154.815 
         100      2.61333  3.92818e-05 -0.000184149      154.815 
         100            3  9.99515e-05  -0.00016113      154.815 
         150            0            0            0      146.616 
         150     0.013333  8.35189e-05  8.30787e-08      146.616 
         150     0.053333  0.000279749   1.3288e-06      146.616 
         150         0.12  0.000462817  6.47377e-06      146.616 
         150     0.213332  0.000547878   1.8666e-05      146.616 
         150     0.333332  0.000541282  3.96058e-05      146.616 
         150         0.48  0.000504239  6.92339e-05      146.616 
         150     0.653331  0.000492855  0.000106748      146.616 
         150     0.853332  0.000517782  0.000150236      146.616 
         150         1.08  0.000522852  0.000194994      146.616 
         150      1.33333  0.000451743  0.000234621      146.616 
         150      1.61333  0.000333688   0.00026568      146.616 
         150         1.92  0.000208357  0.000286452      146.616 
         150      2.25333  8.44653e-05  0.000294659      146.616 
         150      2.61333 -2.30475e-05  0.000290335      146.616 
         150            3 -9.70121e-05  0.000275257      146.616 
         200            0           -0           -0      138.393 
         200     0.013333  6.85032e-05 -7.96961e-08      138.393 
         200     0.053333  0.000259403  -1.0052e-06      138.393 
         200         0.12  0.000505608 -3.33774e-06      138.393 
         200     0.213332  0.000706823 -5.43173e-06      138.393 
         200     0.333332  0.000805195 -4.36054e-06      138.393 
         200         0.48  0.000825964  1.21207e-06      138.393 
         200     0.653331  0.000815265   9.8621e-06      138.393 
         200     0.853332  0.000769103  1.81461e-05      138.393 
         200         1.08  0.000659797  2.33342e-05      138.393 
         200      1.33333  0.000511319  2.55659e-05      138.393 
         200      1.61333  0.000360625  2.66919e-05      138.393 
         200         1.92  0.000206413  2.70257e-05      138.393 
         200      2.25333  5.77548e-05   2.6052e-05      138.393 
         200      2.61333 -6.90446e-05  2.42362e-05      138.393 
         200            3 -0.000159705  2.15101e-05      138.393 
         250            0           -0           -0      130.149 
         250     0.013333  8.33224e-06  1.16287e-07      130.149 
         250     0.053333 -8.75225e-07  1.72897e-06      130.149 
         250         0.12 -8.35929e-05  7.63708e-06      130.149 
         250     0.213332 -0.000230068  1.97014e-05      130.149 
         250     0.333332 -0.000369846  3.71406e-05      130.149 
         250         0.48 -0.000446981   5.7732e-05      130.149 
         250     0.653331 -0.000452598  8.01953e-05      130.149 
         250     0.853332 -0.000398967  0.000104475      130.149 
         250         1.08 -0.000313698  0.000129543      130.149 
         250      1.33333 -0.000237381  0.000152647      130.149 
         250      1.61333 -0.000175694  0.000171449      130.149 
         250         1.92 -0.000110596  0.000184829      130.149 
         250      2.25333  -4.4473e-05   0.00019165      130.149 
         250      2.61333  1.48156e-05  0.000191176      130.149 
         250            3  6.09546e-05  0.000183899      130.149 
         300            0           -0           -0      121.889 
         300     0.013333 -2.81243e-05  5.35226e-08      121.889 
         300     0.053333 -0.000110213  7.00431e-07      121.889 
         300         0.12 -0.000222507  2.48669e-06      121.889 
         300     0.213332 -0.000311421  4.63382e-06      121.889 
         300     0.333332 -0.000343379  5.45601e-06      121.889 
         300         0.48  -0.00033448  4.23823e-06      121.889 
         300     0.653331 -0.000313147    2.108e-06      121.889 
         300     0.853332 -0.000277181  1.28304e-06      121.889 
         300         1.08 -0.000212372  3.13018e-06      121.889 
         300      1.33333 -0.000141079   6.5877e-06      121.889 
         300      1.61333 -8.86748e-05  9.65234e-06      121.889 
         300         1.92 -4.21848e-05  1.19193e-05      121.889 
         300      2.25333  1.94147e-06   1.3622e-05      121.889 
         300      2.61333  4.06602e-05  1.45911e-05      121.889 
         300            3  6.99385e-05  1.48267e-05      121.889 
         350            0            0            0      113.615 
         350     0.013333 -8.67456e-05 -3.54416e-08      113.615 
         350     0.053333 -0.000296151 -6.91501e-07      113.615 
         350         0.12 -0.000500302 -4.12756e-06      113.615 
         350     0.213332 -0.000582433 -1.39315e-05      113.615 
         350     0.333332 -0.000534298  -3.2759e-05      113.615 
         350         0.48 -0.000440799 -6.03705e-05      113.615 
         350     0.653331 -0.000382426  -9.4438e-05      113.615 
         350     0.853332 -0.000373454 -0.000131841      113.615 
         350         1.08 -0.000362755 -0.000168593      113.615 
         350      1.33333 -0.000304067 -0.000201031      113.615 
         350      1.61333 -0.000221535 -0.000228179      113.615 
         350         1.92 -0.000142377 -0.000249705      113.615 
         350      2.25333 -6.44989e-05 -0.000263603      113.615 
         350      2.61333  9.31211e-06 -0.000268619      113.615 
         350            3  6.98457e-05 -0.000264446      113.615 
         400            0            0            0      105.328 
         400     0.013333 -6.61978e-05  4.10831e-10      105.328 
         400     0.053333 -0.000229887 -1.53766e-07      105.328 
         400         0.12 -0.000392134 -1.72926e-06      105.328 
         400     0.213332 -0.000449685 -7.69264e-06      105.328 
         400     0.333332 -0.000387544  -2.0812e-05      105.328 
         400         0.48 -0.000282648 -4.10546e-05      105.328 
         400     0.653331 -0.000209451 -6.55965e-05      105.328 
         400     0.853332 -0.000173616 -9.07347e-05      105.328 
         400         1.08 -0.000134519 -0.000113393      105.328 
         400      1.33333 -7.50527e-05 -0.000132221      105.328 
         400      1.61333 -2.09034e-05 -0.000147713      105.328 
         400         1.92  1.74061e-05 -0.000159972      105.328 
         400      2.25333  4.83299e-05 -0.000167859      105.328 
         400      2.61333  7.36925e-05 -0.000170483      105.328 
         400            3  9.08171e-05 -0.000167442      105.328 
         450            0            0            0       97.029 
         450     0.013333 -2.46428e-05  4.63258e-07       97.029 
         450     0.053333 -0.000228419  6.88021e-06       97.029 
         450         0.12 -0.000806015  3.04895e-05       97.029 
         450     0.213332  -0.00169436  7.92682e-05       97.029 
         450     0.333332  -0.00255566  0.000150648       97.029 
         450         0.48  -0.00309163  0.000234517       97.029 
         450     0.653331   -0.0032493  0.000322813       97.029 
         450     0.853332  -0.00311286  0.000414121       97.029 
         450         1.08  -0.00276796  0.000509147       97.029 
         450      1.33333  -0.00232735  0.000603747       97.029 
         450      1.61333  -0.00189115   0.00068973       97.029 
         450         1.92  -0.00144349  0.000760916       97.029 
         450      2.25333 -0.000959996   0.00081242       97.029 
         450      2.61333 -0.000463428  0.000839767       97.029 
         450            3 -6.69756e-06  0.000840303      97.0291 
         500            0           -0           -0      88.7206 
         500     0.013333  0.000113358 -3.64187e-07      88.7206 
         500     0.053333  0.000504177 -5.21249e-06      88.7206 
         500         0.12   0.00120565 -2.18994e-05      88.7206 
         500     0.213332   0.00205515  -5.3552e-05      88.7206 
         500     0.333332   0.00277001  -9.5737e-05      88.7206 
         500         0.48   0.00318998 -0.000141099      88.7206 
         500     0.653331   0.00334562 -0.000186071      88.7206 
         500     0.853332   0.00330326 -0.000233081      88.7206 
         500         1.08   0.00305076 -0.000287672      88.7206 
         500      1.33333   0.00259958 -0.000351427      88.7206 
         500      1.61333   0.00208131 -0.000417774      88.7206 
         500         1.92   0.00157978 -0.000478036      88.7206 
         500      2.25333   0.00106092 -0.000527579      88.7206 
         500      2.61333  0.000527418 -0.000562822      88.7205 
         500            3  2.95997e-05 -0.000580998      88.7205 
         550            0  4.87262e-20 -2.40794e-26      80.4032 
         550     0.013333  0.000105358  9.53001e-09      80.4032 
         550     0.053333  0.000369291  2.62475e-07      80.4032 
         550         0.12   0.00066155  2.05636e-06      80.4032 
         550     0.213332  0.000832743  8.57942e-06      80.4032 
         550     0.333332  0.000809897  2.39104e-05      80.4032 
         550         0.48  0.000645112  5.02404e-05      80.4032 
         550     0.653331  0.000449187  8.62918e-05      80.4032 
         550     0.853332  0.000292386  0.000128806      80.4032 
         550         1.08  0.000190599  0.000175271      80.4032 
         550      1.33333  0.000142868  0.000224751      80.4032 
         550      1.61333  0.000124949  0.000275559      80.4032 
         550         1.92  9.40251e-05  0.000323799      80.4032 
         550      2.25333  5.18644e-05   0.00036582      80.4032 
         550      2.61333  7.65401e-06   0.00039841      80.4032 
         550            3 -3.38678e-05   0.00041915      80.4032 
         600            0            0            0      72.0794 
         600     0.013333 -0.000418901 -1.96093e-08      72.0794 
         600     0.053333  -0.00148319 -9.16347e-07      72.0794 
         600         0.12  -0.00266152 -8.30935e-06      72.0794 
         600     0.213332  -0.00336115 -3.54447e-05      72.0794 
         600     0.333332  -0.00335492 -9.68006e-05      72.0794 
         600         0.48  -0.00291037 -0.000197167      72.0794 
         600     0.653331   -0.0024526 -0.000328966      72.0794 
         600     0.853332  -0.00218215 -0.000478431      72.0794 
         600         1.08  -0.00200154 -0.000630886      72.0794 
         600      1.33333  -0.00173253 -0.000774714      72.0794 
         600      1.61333  -0.00136729 -0.000905081      72.0794 
         600         1.92  -0.00100201  -0.00102089      72.0794 
         600      2.25333 -0.000638823  -0.00111619      72.0794 
         600      2.61333 -0.000273066  -0.00118378      72.0795 
         600            3  7.43165e-05  -0.00121771      72.0795 
         650            0            0            0      63.7465 
         650     0.013333  0.000747207   1.6352e-07      63.7465 
         650     0.053333   0.00260834  3.44359e-06      63.7465 
         650         0.12   0.00461301   2.2154e-05      63.7465 
         650     0.213332   0.00574892  8.01741e-05      63.7465 
         650     0.333332   0.00567622   0.00020091      63.7465 
         650         0.48   0.00488129  0.000390769      63.7465 
         650     0.653331   0.00409521  0.000637274      63.7465 
         650     0.853332   0.00368696   0.00091975      63.7465 
         650         1.08   0.00352582   0.00121543      63.7465 
         650      1.33333     0.003242   0.00150139      63.7465 
         650      1.61333   0.00268871   0.00176182      63.7465 
         650         1.92   0.00205208   0.00199223      63.7465 
         650      2.25333    0.0014083   0.00218328      63.7464 
         650      2.61333  0.000760422   0.00232268      63.7464 
         650            3  0.000126983    0.0023986      63.7463 
         700            0 -2.94457e-19  -6.6797e-26       55.392 
         700     0.013333 -0.000854977  1.23172e-07       55.392 
         700     0.053333  -0.00310644  7.84994e-07       55.392 
         700         0.12  -0.00584112 -3.56525e-06       55.392 
         700     0.213332  -0.00792395 -3.21817e-05       55.392 
         700     0.333332   -0.0087267 -0.000110407       55.392 
         700         0.48  -0.00849869 -0.000251775       55.392 
         700     0.653331  -0.00794207 -0.000450479       55.392 
         700     0.853332  -0.00753593 -0.000688161       55.392 
         700         1.08  -0.00723301 -0.000940259       55.392 
         700      1.33333  -0.00666295  -0.00118099       55.392 
         700      1.61333  -0.00567938  -0.00139427       55.392 
         700         1.92  -0.00454303  -0.00157985       55.392 
         700      2.25333  -0.00336203  -0.00173495      55.3921 
         700      2.61333  -0.00214095  -0.00185035      55.3922 
         700            3 -0.000911499  -0.00191596      55.3923 
         750            0            0            0      47.0305 
         750     0.013333  0.000427156 -3.23195e-07      47.0305 
         750     0.053333   0.00161769  -4.2359e-06      47.0305 
         750         0.12    0.0032395 -1.50819e-05      47.0305 
         750     0.213332   0.00472097 -2.76531e-05      47.0305 
         750     0.333332   0.00559321  -2.8756e-05      47.0305 
         750         0.48   0.00582839 -7.79143e-06      47.0305 
         750     0.653331   0.00573722  3.52874e-05      47.0305 
         750     0.853332   0.00558151  9.11191e-05      47.0305 
         750         1.08   0.00533519  0.000144906      47.0305 
         750      1.33333   0.00480344  0.000182556      47.0305 
         750      1.61333   0.00398804  0.000200023      47.0305 
         750         1.92   0.00314854   0.00020679      47.0304 
         750      2.25333   0.00232758  0.000208181      47.0304 
         750      2.61333   0.00148981  0.000204754      47.0304 
         750            3  0.000642457  0.000195518      47.0303 
         800            0            0            0      38.6501 
         800     0.013333 -0.000229994  2.75878e-07      38.6501 
         800     0.053333  -0.00091535  3.81668e-06      38.6501 
         800         0.12  -0.00192966  1.50624e-05      38.6501 
         800     0.213332  -0.00295191  3.32794e-05      38.6501 
         800     0.333332  -0.00363605  5.08509e-05      38.6501 
         800         0.48  -0.00387437  5.92864e-05      38.6501 
         800     0.653331  -0.00381718  5.59875e-05      38.6501 
         800     0.853332   -0.0036487  4.52877e-05      38.6501 
         800         1.08  -0.00340131  3.55843e-05      38.6501 
         800      1.33333   -0.0030026  3.41724e-05      38.6501 
         800      1.61333  -0.00247682  4.18687e-05      38.6501 
         800         1.92  -0.00196693  5.11115e-05      38.6501 
         800      2.25333  -0.00147557  5.98863e-05      38.6501 
         800      2.61333 -0.000970132  6.64143e-05      38.6501 
         800            3 -0.000452847  7.01069e-05      38.6502 
         850            0           -0           -0       30.268 
         850     0.013333 -5.35788e-05 -3.08316e-07       30.268 
         850     0.053333 -0.000101416 -4.65572e-06       30.268 
         850         0.12  8.86224e-05 -2.12541e-05       30.268 
         850     0.213332  0.000600454 -5.76573e-05       30.268 
         850     0.333332   0.00126418 -0.000115424       30.268 
         850         0.48   0.00181868 -0.000189794       30.268 
         850     0.653331   0.00212308 -0.000274565       30.268 
         850     0.853332   0.00217945 -0.000366683       30.268 
         850         1.08    0.0020318  -0.00046636       30.268 
         850      1.33333   0.00173929 -0.000572776       30.268 
         850      1.61333   0.00141265  -0.00068043       30.268 
         850         1.92   0.00114724 -0.000781265       30.268 
         850      2.25333  0.000901853 -0.000869597       30.268 
         850      2.61333  0.000640475 -0.000940997       30.268 
         850            3  0.000366313 -0.000990968       30.268 
         900            0            0            0      21.8787 
         900     0.013333  0.000211216  -1.6378e-07      21.8787 
         900     0.053333  0.000817198 -2.31021e-06      21.8787 
         900         0.12   0.00171412  -9.4242e-06      21.8787 
         900     0.213332   0.00266476 -2.17842e-05      21.8787 
         900     0.333332   0.00338677 -3.50099e-05      21.8787 
         900         0.48   0.00373074 -4.24351e-05      21.8787 
         900     0.653331   0.00375255  -3.9409e-05      21.8787 
         900     0.853332   0.00361035 -2.53795e-05      21.8787 
         900         1.08    0.0034182  -3.0642e-06      21.8788 
         900      1.33333   0.00318424  2.31511e-05      21.8788 
         900      1.61333   0.00286146  4.88386e-05      21.8788 
         900         1.92   0.00244713  7.18489e-05      21.8787 
         900      2.25333   0.00198106  9.29802e-05      21.8787 
         900      2.61333   0.00147808  0.000111744      21.8787 
         900            3  0.000944687  0.000127158      21.8787 
         950            0            0            0      13.4759 
         950     0.013333  0.000521596  6.91663e-09      13.4759 
         950     0.053333   0.00187203  6.07202e-07      13.4759 
         950         0.12   0.00348705   6.2796e-06      13.4759 
         950     0.213332   0.00467672  2.87852e-05      13.4759 
         950     0.333332   0.00503808  8.34051e-05      13.4759 
         950         0.48   0.00469585  0.000179314      13.4759 
         950     0.653331   0.00409898  0.000314129      13.4759 
         950     0.853332   0.00361229  0.000477247      13.4759 
         950         1.08   0.00330618  0.000655496      13.4759 
         950      1.33333   0.00303611  0.000836741      13.4759 
         950      1.61333   0.00267497   0.00101252      13.4759 
         950         1.92   0.00223675   0.00117834      13.4759 
         950      2.25333   0.00176408   0.00133012      13.4759 
         950      2.61333    0.0012652   0.00146029      13.4759 
         950            3  0.000742774   0.00156026      13.4758 
        1000            0  8.37913e-20  -1.8312e-24      5.05484 
        1000     0.013333  0.000179373   5.9796e-07      5.05484 
        1000     0.053333  0.000432329  9.16217e-06      5.05484 
        1000         0.12  0.000208928  4.23972e-05      5.05484 
        1000     0.213332 -0.000755594  0.000116821      5.05484 
        1000     0.333332  -0.00216104  0.000237729      5.05484 
        1000         0.48  -0.00343415  0.000397089      5.05484 
        1000     0.653331  -0.00420347  0.000582266      5.05484 
        1000     0.853332  -0.00442103  0.000785757      5.05484 
        1000         1.08  -0.00417139   0.00100695      5.05484 
        1000      1.33333  -0.00358809   0.00124411      5.05484 
        1000      1.61333  -0.00292021    0.0014862      5.05485 
        1000         1.92  -0.00240008   0.00171592      5.05486 
        1000      2.25333  -0.00194861   0.00192315      5.05487 
        1000      2.61333  -0.00147201   0.00209825      5.05489 
        1000            3 -0.000953798    0.0022312      5.05492 
