Variables = x, y, u, v, p

Zone, I=416, F=POINT
         -50            0            0            0     -237.237 
         -50     0.013333 -0.000157046 -3.35838e-08     -237.237 
         -50     0.053333  -0.00013407  4.91756e-08     -237.237 
         -50         0.12 -0.000142312  4.54377e-07     -237.237 
         -50     0.213332 -0.000160107    1.389e-06     -237.237 
         -50     0.333332 -0.000178584  2.50042e-06     -237.237 
         -50         0.48 -0.000192233  3.05145e-06     -237.237 
         -50     0.653331 -0.000198218  4.96859e-06     -237.236 
         -50     0.853332 -0.000193959  6.51449e-06     -237.236 
         -50         1.08 -0.000182238  7.68405e-06     -237.235 
         -50      1.33333 -0.000167043  9.04884e-06     -237.234 
         -50      1.61333 -0.000149362  9.47771e-06     -237.233 
         -50         1.92 -0.000134474  9.50413e-06     -237.231 
         -50      2.25333 -0.000124655  8.65861e-06     -237.229 
         -50      2.61333 -0.000115363  9.67588e-06     -237.227 
         -50            3 -0.000105648  1.45327e-05     -237.223 
         -25            0           -0           -0      -230.88 
         -25     0.013333 -0.000129969 -1.26862e-08      -230.88 
         -25     0.053333 -9.88772e-05  -3.3842e-08      -230.88 
         -25         0.12 -8.64908e-05 -4.56179e-08      -230.88 
         -25     0.213332 -7.86439e-05  2.80482e-08      -230.88 
         -25     0.333332 -7.27272e-05   2.6641e-07      -230.88 
         -25         0.48  -6.7284e-05  6.38409e-07      -230.88 
         -25     0.653331 -6.40044e-05  8.39647e-07      -230.88 
         -25     0.853332 -6.56399e-05   9.7008e-07      -230.88 
         -25         1.08 -7.22311e-05  9.35901e-07     -230.879 
         -25      1.33333 -8.07588e-05  6.80442e-07     -230.879 
         -25      1.61333 -8.94483e-05  4.48074e-07     -230.879 
         -25         1.92 -9.50345e-05  3.27481e-08     -230.878 
         -25      2.25333 -9.56772e-05  5.97926e-07     -230.878 
         -25      2.61333 -9.32538e-05  1.48008e-06     -230.877 
         -25            3  -9.2255e-05  7.91905e-07     -230.876 
           0            0 -1.28131e-15  9.20929e-16     -224.925 
           0     0.013333 -0.000254168  0.000196907      -224.93 
           0     0.053333 -0.000169251  8.88254e-05      -224.94 
           0         0.12 -0.000141557  6.26099e-05     -224.951 
           0     0.213332 -0.000132107  4.64793e-05     -224.963 
           0     0.333332 -0.000131037   3.7552e-05     -224.974 
           0         0.48 -0.000129893  3.12204e-05     -224.985 
           0     0.653331 -0.000127157  2.68071e-05     -224.996 
           0     0.853332 -0.000120813  2.37077e-05     -225.007 
           0         1.08 -0.000111962   2.1478e-05     -225.017 
           0      1.33333 -0.000103292   1.9961e-05     -225.027 
           0      1.61333 -9.73579e-05  1.85632e-05     -225.037 
           0         1.92 -9.57785e-05  1.72625e-05     -225.045 
           0      2.25333 -9.83966e-05  1.61105e-05     -225.054 
           0      2.61333  -9.6054e-05  1.68834e-05     -225.062 
           0            3 -8.57845e-05   1.8946e-05     -225.069 
          20            0  3.44566e-05 -5.28728e-05      -220.85 
          20     0.013333  3.86355e-05 -5.33901e-05      -220.85 
          20     0.053333  5.16173e-05 -5.48902e-05      -220.85 
          20         0.12  7.43554e-05 -5.72313e-05      -220.85 
          20     0.213332   0.00010675 -6.02439e-05     -220.849 
          20     0.333332  0.000144207 -6.38592e-05     -220.849 
          20         0.48  0.000173639 -6.80953e-05     -220.849 
          20     0.653331  0.000180256 -7.31384e-05     -220.849 
          20     0.853332  0.000159069 -7.86881e-05     -220.849 
          20         1.08  0.000118721 -8.37156e-05     -220.848 
          20      1.33333  7.08924e-05 -8.71725e-05     -220.848 
          20      1.61333  1.74825e-05 -8.82525e-05     -220.848 
          20         1.92 -3.53776e-05 -8.66038e-05     -220.847 
          20      2.25333 -7.80901e-05 -8.21916e-05     -220.846 
          20      2.61333  -0.00010505 -7.57656e-05     -220.845 
          20            3 -0.000117167 -6.75531e-05     -220.844 
          40            0            0            0     -216.513 
          40     0.013333 -0.000151065  1.76606e-08     -216.513 
          40     0.053333 -0.000206075  3.44992e-07     -216.513 
          40         0.12 -0.000311373  1.38688e-06     -216.513 
          40     0.213332 -0.000412332  2.78524e-06     -216.513 
          40     0.333332 -0.000471754  3.04703e-06     -216.513 
          40         0.48 -0.000484605  7.06167e-07     -216.513 
          40     0.653331 -0.000472291  -4.7084e-06     -216.513 
          40     0.853332 -0.000454941 -1.31496e-05     -216.513 
          40         1.08 -0.000415321 -2.34762e-05     -216.513 
          40      1.33333 -0.000341214 -3.36925e-05     -216.513 
          40      1.61333 -0.000248112  -4.2643e-05     -216.513 
          40         1.92 -0.000150946 -4.95455e-05     -216.512 
          40      2.25333 -6.81237e-05 -5.36863e-05     -216.512 
          40      2.61333 -1.60758e-05 -5.59868e-05     -216.512 
          40            3  1.59147e-06  -5.7544e-05     -216.511 
          60            0            0            0     -212.126 
          60     0.013333 -0.000136935  2.53413e-07     -212.126 
          60     0.053333 -0.000212272  3.68733e-06     -212.126 
          60         0.12 -0.000445059     1.56e-05     -212.126 
          60     0.213332 -0.000742827  3.78116e-05     -212.126 
          60     0.333332 -0.000955402  6.62291e-05     -212.126 
          60         0.48  -0.00101773  9.62237e-05     -212.126 
          60     0.653331 -0.000940292   0.00012792     -212.126 
          60     0.853332 -0.000760691  0.000162897     -212.126 
          60         1.08 -0.000572869  0.000197356     -212.126 
          60      1.33333 -0.000421517  0.000226252     -212.126 
          60      1.61333 -0.000275803  0.000246198     -212.126 
          60         1.92 -0.000127605  0.000254616     -212.126 
          60      2.25333 -8.22472e-07  0.000250847     -212.126 
          60      2.61333  8.32572e-05  0.000236033     -212.126 
          60            3  0.000120182   0.00021432     -212.126 
          80            0           -0           -0     -207.774 
          80     0.013333 -0.000185534  2.21487e-07     -207.774 
          80     0.053333 -0.000362883  2.92835e-06     -207.774 
          80         0.12  -0.00064766  1.06644e-05     -207.774 
          80     0.213332 -0.000891476  2.11753e-05     -207.774 
          80     0.333332  -0.00100818  2.92836e-05     -207.774 
          80         0.48  -0.00103046  3.39612e-05     -207.774 
          80     0.653331 -0.000968558  4.12679e-05     -207.774 
          80     0.853332 -0.000747317   5.9562e-05     -207.774 
          80         1.08 -0.000441997  8.59139e-05     -207.774 
          80      1.33333 -0.000253394  0.000108529     -207.774 
          80      1.61333 -0.000146859  0.000123323     -207.774 
          80         1.92 -4.03939e-05  0.000132154     -207.774 
          80      2.25333    5.027e-05  0.000134889     -207.774 
          80      2.61333  0.000107134  0.000131427     -207.774 
          80            3   0.00012819  0.000124095     -207.774 
         100            0           -0           -0     -203.431 
         100     0.013333 -0.000297432 -6.60147e-08     -203.431 
         100     0.053333  -0.00067672 -1.56697e-06     -203.431 
         100         0.12  -0.00099168 -1.05187e-05     -203.431 
         100     0.213332 -0.000987468 -3.72446e-05     -203.431 
         100     0.333332  -0.00072259 -8.81237e-05     -203.431 
         100         0.48 -0.000445035 -0.000159732     -203.431 
         100     0.653331 -0.000296411 -0.000242058     -203.431 
         100     0.853332 -0.000204186 -0.000322237     -203.431 
         100         1.08 -7.90418e-05 -0.000391612     -203.431 
         100      1.33333   1.1343e-07 -0.000449608     -203.431 
         100      1.61333  3.34101e-05 -0.000494658     -203.431 
         100         1.92  7.08784e-05 -0.000520132     -203.431 
         100      2.25333  9.52972e-05 -0.000522034     -203.431 
         100      2.61333    9.781e-05 -0.000503237     -203.431 
         100            3  8.11075e-05 -0.000467784     -203.431 
         150            0            0            0     -192.572 
         150     0.013333 -9.46649e-05 -3.47562e-07     -192.572 
         150     0.053333  6.93386e-05 -4.91032e-06     -192.572 
         150         0.12  0.000386874 -2.01805e-05     -192.572 
         150     0.213332    0.0007741 -4.81228e-05     -192.572 
         150     0.333332   0.00107035 -8.46488e-05     -192.572 
         150         0.48   0.00121341 -0.000125624     -192.572 
         150     0.653331    0.0012096 -0.000171792     -192.572 
         150     0.853332   0.00104125 -0.000227203     -192.572 
         150         1.08  0.000744054 -0.000290579     -192.572 
         150      1.33333  0.000459268 -0.000352789     -192.572 
         150      1.61333  0.000238038 -0.000404137     -192.572 
         150         1.92  2.50292e-05 -0.000440295     -192.572 
         150      2.25333 -0.000174336  -0.00045877     -192.572 
         150      2.61333 -0.000331282 -0.000457715     -192.572 
         150            3 -0.000423438 -0.000439534     -192.573 
         200            0           -0           -0     -181.701 
         200     0.013333 -2.78662e-05  1.67051e-07     -181.701 
         200     0.053333  0.000187886   2.6355e-06     -181.701 
         200         0.12  0.000301254  1.26435e-05     -181.701 
         200     0.213332  0.000228675  3.57223e-05     -181.701 
         200     0.333332  4.11697e-05  7.36623e-05     -181.701 
         200         0.48 -0.000124937  0.000124109     -181.701 
         200     0.653331 -0.000189227  0.000183727     -181.701 
         200     0.853332 -0.000152677  0.000249326     -181.701 
         200         1.08  -8.6482e-05  0.000315835     -181.701 
         200      1.33333 -6.38196e-05  0.000376504     -181.701 
         200      1.61333 -7.43085e-05  0.000426486     -181.701 
         200         1.92 -8.31731e-05    0.0004624     -181.701 
         200      2.25333 -9.09579e-05  0.000480412     -181.701 
         200      2.61333 -9.90679e-05  0.000479346     -181.701 
         200            3 -0.000103919  0.000460945     -181.701 
         250            0           -0           -0     -170.815 
         250     0.013333 -0.000292433  1.44415e-07     -170.815 
         250     0.053333 -0.000726766   1.7339e-06     -170.815 
         250         0.12  -0.00127733  4.99161e-06     -170.815 
         250     0.213332  -0.00166107  4.72718e-06     -170.815 
         250     0.333332  -0.00174299 -7.05705e-06     -170.815 
         250         0.48  -0.00162296 -3.36337e-05     -170.815 
         250     0.653331  -0.00146061 -7.07718e-05     -170.815 
         250     0.853332  -0.00128954 -0.000110114     -170.815 
         250         1.08  -0.00106681 -0.000145619     -170.815 
         250      1.33333 -0.000820454 -0.000176788     -170.815 
         250      1.61333  -0.00059177 -0.000205076     -170.815 
         250         1.92 -0.000362335 -0.000228583     -170.815 
         250      2.25333 -0.000139064 -0.000244083     -170.815 
         250      2.61333  5.43665e-05 -0.000250819     -170.815 
         250            3  0.000192413 -0.000248588     -170.815 
         300            0           -0           -0      -159.92 
         300     0.013333 -0.000386735   3.1479e-07      -159.92 
         300     0.053333  -0.00111607  4.18544e-06      -159.92 
         300         0.12  -0.00214491  1.53742e-05      -159.92 
         300     0.213332  -0.00306839   3.0248e-05      -159.92 
         300     0.333332  -0.00357547  3.81555e-05      -159.92 
         300         0.48  -0.00367362  3.05523e-05      -159.92 
         300     0.653331  -0.00356408  7.52008e-06      -159.92 
         300     0.853332  -0.00335732 -2.30046e-05      -159.92 
         300         1.08  -0.00300062 -5.09684e-05      -159.92 
         300      1.33333  -0.00247827 -7.11931e-05      -159.92 
         300      1.61333  -0.00189766 -8.66187e-05      -159.92 
         300         1.92  -0.00129805   -9.964e-05      -159.92 
         300      2.25333 -0.000685536 -0.000108511      -159.92 
         300      2.61333 -0.000111247 -0.000113175      -159.92 
         300            3  0.000350239 -0.000113395      -159.92 
         350            0            0            0     -149.014 
         350     0.013333  3.80197e-05  2.86957e-07     -149.014 
         350     0.053333  0.000394228  4.46274e-06     -149.014 
         350         0.12  0.000599247  2.10923e-05     -149.014 
         350     0.213332  0.000498001  5.89929e-05     -149.014 
         350     0.333332  0.000196968  0.000121037     -149.014 
         350         0.48 -8.03594e-05  0.000203483     -149.014 
         350     0.653331 -0.000195131   0.00030111     -149.014 
         350     0.853332 -0.000130819  0.000410176     -149.014 
         350         1.08  2.42691e-05  0.000525103     -149.014 
         350      1.33333  0.000121624  0.000635854     -149.014 
         350      1.61333  0.000114152  0.000732841     -149.014 
         350         1.92   7.8156e-05   0.00081047     -149.014 
         350      2.25333  3.64485e-05  0.000862989     -149.014 
         350      2.61333  -9.2479e-06  0.000885632     -149.014 
         350            3 -5.45934e-05   0.00087686     -149.014 
         400            0            0            0       -138.1 
         400     0.013333 -2.23836e-05 -8.62747e-08       -138.1 
         400     0.053333   0.00028046 -1.12242e-06       -138.1 
         400         0.12  0.000661766 -3.95229e-06       -138.1 
         400     0.213332   0.00099971 -7.17438e-06       -138.1 
         400     0.333332   0.00119435 -7.45382e-06       -138.1 
         400         0.48    0.0012494 -2.17722e-06       -138.1 
         400     0.653331   0.00123397  8.78496e-06       -138.1 
         400     0.853332   0.00119309  2.31857e-05       -138.1 
         400         1.08   0.00110468  3.72265e-05       -138.1 
         400      1.33333   0.00093627  4.76881e-05       -138.1 
         400      1.61333  0.000719968   5.4608e-05       -138.1 
         400         1.92  0.000496083  5.95814e-05       -138.1 
         400      2.25333  0.000263917  6.24811e-05       -138.1 
         400      2.61333  3.38346e-05  6.30732e-05       -138.1 
         400            3 -0.000169493  6.12726e-05       -138.1 
         450            0            0            0      -127.18 
         450     0.013333  -0.00018288  3.37141e-08      -127.18 
         450     0.053333 -0.000323286  4.14609e-07      -127.18 
         450         0.12 -0.000530431  1.27789e-06      -127.18 
         450     0.213332  -0.00070948  1.57373e-06      -127.18 
         450     0.333332 -0.000804649 -6.02773e-07      -127.18 
         450         0.48 -0.000823124 -6.53121e-06      -127.18 
         450     0.653331  -0.00080756 -1.59935e-05      -127.18 
         450     0.853332 -0.000783089 -2.75582e-05      -127.18 
         450         1.08 -0.000739077  -3.9203e-05      -127.18 
         450      1.33333 -0.000659138 -4.93425e-05      -127.18 
         450      1.61333 -0.000553782 -5.76408e-05      -127.18 
         450         1.92 -0.000440425 -6.43332e-05      -127.18 
         450      2.25333 -0.000320392 -6.90489e-05      -127.18 
         450      2.61333 -0.000199024 -7.14364e-05      -127.18 
         450            3 -8.89889e-05 -7.13429e-05      -127.18 
         500            0           -0           -0     -116.251 
         500     0.013333 -8.44738e-05  2.68174e-08     -116.251 
         500     0.053333  2.80206e-05   4.6181e-07     -116.251 
         500         0.12  0.000111145  2.47156e-06     -116.251 
         500     0.213332  0.000128389  7.77601e-06     -116.251 
         500     0.333332   8.2883e-05  1.75715e-05     -116.251 
         500         0.48  1.91072e-05   3.1651e-05     -116.251 
         500     0.653331 -2.30589e-05  4.87708e-05     -116.251 
         500     0.853332 -3.42856e-05  6.75371e-05     -116.251 
         500         1.08  -3.0748e-05  8.66453e-05     -116.251 
         500      1.33333  -3.4337e-05  0.000104772     -116.251 
         500      1.61333    -5.09e-05  0.000120893     -116.251 
         500         1.92 -6.96383e-05  0.000134412     -116.251 
         500      2.25333 -8.69475e-05  0.000144602     -116.251 
         500      2.61333  -0.00010265  0.000150606     -116.251 
         500            3 -0.000116051  0.000151829     -116.251 
         550            0 -1.78601e-19  1.44412e-26     -105.319 
         550     0.013333 -0.000174703 -7.44302e-08     -105.319 
         550     0.053333 -0.000261526 -1.17371e-06     -105.319 
         550         0.12  -0.00032655 -5.67773e-06     -105.319 
         550     0.213332   -0.0002863 -1.63816e-05     -105.319 
         550     0.333332 -0.000155309 -3.47663e-05     -105.319 
         550         0.48 -6.90067e-06 -6.02064e-05     -105.319 
         550     0.653331  9.57592e-05 -9.09746e-05     -105.319 
         550     0.853332  0.000130504 -0.000125636     -105.319 
         550         1.08  0.000107421 -0.000163024     -105.319 
         550      1.33333  6.33564e-05  -0.00020105     -105.319 
         550      1.61333  3.33873e-05 -0.000236871     -105.319 
         550         1.92  1.30199e-05  -0.00026845     -105.319 
         550      2.25333  -9.7018e-06 -0.000294018     -105.319 
         550      2.61333 -3.60529e-05 -0.000311724     -105.319 
         550            3 -6.22519e-05 -0.000320071     -105.319 
         600            0            0            0     -94.3824 
         600     0.013333  0.000104962 -1.06514e-07     -94.3824 
         600     0.053333  0.000745603 -1.31073e-06     -94.3824 
         600         0.12   0.00153874 -3.91168e-06     -94.3824 
         600     0.213332   0.00217568 -3.71442e-06     -94.3824 
         600     0.333332   0.00242577  7.44089e-06     -94.3824 
         600         0.48   0.00231241  3.58677e-05     -94.3824 
         600     0.653331   0.00203437  8.13729e-05     -94.3824 
         600     0.853332   0.00175436  0.000138521     -94.3824 
         600         1.08   0.00150691  0.000200944     -94.3824 
         600      1.33333   0.00126786  0.000264561     -94.3824 
         600      1.61333   0.00102309  0.000327024     -94.3824 
         600         1.92  0.000761879   0.00038586     -94.3824 
         600      2.25333  0.000481341  0.000437474     -94.3824 
         600      2.61333  0.000190644  0.000478263     -94.3824 
         600            3 -8.86822e-05  0.000505331     -94.3825 
         650            0            0            0     -83.4408 
         650     0.013333 -0.000578193  4.71751e-07     -83.4408 
         650     0.053333  -0.00187305  6.47955e-06     -83.4408 
         650         0.12  -0.00376914  2.51912e-05     -83.4408 
         650     0.213332  -0.00563261  5.40577e-05     -83.4408 
         650     0.333332  -0.00683546  7.80719e-05     -83.4408 
         650         0.48  -0.00721166  8.11727e-05     -83.4408 
         650     0.653331  -0.00705434  5.87875e-05     -83.4408 
         650     0.853332  -0.00668643  1.92887e-05     -83.4408 
         650         1.08  -0.00616509 -2.27396e-05     -83.4408 
         650      1.33333  -0.00542221 -5.70417e-05     -83.4408 
         650      1.61333  -0.00453397 -8.39554e-05     -83.4408 
         650         1.92  -0.00362628 -0.000109524     -83.4408 
         650      2.25333  -0.00267311 -0.000133271     -83.4407 
         650      2.61333  -0.00166808 -0.000153935     -83.4407 
         650            3 -0.000670974 -0.000170361     -83.4406 
         700            0  -1.1134e-19  4.59408e-26     -72.4827 
         700     0.013333  3.05921e-05 -6.35042e-07     -72.4827 
         700     0.053333  0.000645436 -9.25183e-06     -72.4827 
         700         0.12    0.0018263 -3.99354e-05     -72.4827 
         700     0.213332   0.00337598 -0.000100921     -72.4827 
         700     0.333332   0.00477369 -0.000186616     -72.4827 
         700         0.48   0.00562797 -0.000283239     -72.4827 
         700     0.653331   0.00592329 -0.000381228     -72.4827 
         700     0.853332   0.00582186 -0.000481346     -72.4827 
         700         1.08   0.00539358 -0.000591095     -72.4827 
         700      1.33333   0.00466631 -0.000714276     -72.4827 
         700      1.61333   0.00381372 -0.000843035     -72.4827 
         700         1.92   0.00301849 -0.000962958     -72.4827 
         700      2.25333   0.00222086  -0.00106544     -72.4827 
         700      2.61333   0.00137842  -0.00114407     -72.4828 
         700            3  0.000530976  -0.00119331     -72.4829 
         750            0            0            0       -61.52 
         750     0.013333  1.01685e-05  4.51211e-07       -61.52 
         750     0.053333   0.00024507  6.86303e-06       -61.52 
         750         0.12   0.00016623  3.15888e-05       -61.52 
         750     0.213332  -0.00036701  8.62153e-05       -61.52 
         750     0.333332  -0.00112225  0.000173084       -61.52 
         750         0.48  -0.00172854  0.000284833       -61.52 
         750     0.653331  -0.00198999   0.00041247       -61.52 
         750     0.853332  -0.00191359  0.000551962       -61.52 
         750         1.08  -0.00158844  0.000702238       -61.52 
         750      1.33333   -0.0011703  0.000858032       -61.52 
         750      1.61333 -0.000843507   0.00100819       -61.52 
         750         1.92 -0.000647256   0.00114298       -61.52 
         750      2.25333 -0.000478746   0.00125595       -61.52 
         750      2.61333 -0.000296206   0.00134132       -61.52 
         750            3 -0.000117801   0.00139298       -61.52 
         800            0            0            0     -50.5461 
         800     0.013333 -0.000255442 -5.51967e-07     -50.5461 
         800     0.053333 -0.000393725 -8.46222e-06     -50.5461 
         800         0.12 -0.000124685  -3.9326e-05     -50.5461 
         800     0.213332  0.000741379 -0.000108195     -50.5461 
         800     0.333332   0.00186921 -0.000217971     -50.5461 
         800         0.48   0.00273016 -0.000357812     -50.5461 
         800     0.653331   0.00304949 -0.000514014     -50.5461 
         800     0.853332    0.0028678 -0.000679752     -50.5461 
         800         1.08   0.00236476 -0.000852557     -50.5461 
         800      1.33333   0.00180242  -0.00102461     -50.5461 
         800      1.61333   0.00141231   -0.0011829     -50.5461 
         800         1.92   0.00115819  -0.00131952     -50.5461 
         800      2.25333  0.000893597  -0.00143204     -50.5461 
         800      2.61333  0.000581376  -0.00151477     -50.5462 
         800            3  0.000258176  -0.00156042     -50.5462 
         850            0           -0           -0     -39.5703 
         850     0.013333  0.000424275  6.82332e-07     -39.5703 
         850     0.053333   0.00164315  1.08943e-05     -39.5703 
         850         0.12    0.0024785  5.35984e-05     -39.5703 
         850     0.213332   0.00218648  0.000157257     -39.5703 
         850     0.333332  0.000896886  0.000338087     -39.5703 
         850         0.48   -0.0005858    0.0005896     -39.5703 
         850     0.653331  -0.00153603  0.000891706     -39.5703 
         850     0.853332  -0.00172364   0.00122652     -39.5703 
         850         1.08  -0.00133493   0.00158076     -39.5703 
         850      1.33333 -0.000818192   0.00193586     -39.5703 
         850      1.61333 -0.000579145   0.00226856     -39.5703 
         850         1.92 -0.000573717   0.00256582     -39.5703 
         850      2.25333 -0.000566589   0.00282095     -39.5703 
         850      2.61333  -0.00049853   0.00302213     -39.5703 
         850            3 -0.000416117   0.00315416     -39.5703 
         900            0            0            0     -28.5928 
         900     0.013333 -0.000964555  1.42826e-07     -28.5928 
         900     0.053333  -0.00317618  1.22425e-06     -28.5928 
         900         0.12  -0.00596579 -6.59798e-07     -28.5928 
         900     0.213332  -0.00823126 -2.17315e-05     -28.5928 
         900     0.333332  -0.00928612 -8.49888e-05     -28.5928 
         900         0.48  -0.00926211 -0.000204471     -28.5928 
         900     0.653331  -0.00880513 -0.000377279     -28.5928 
         900     0.853332  -0.00844759 -0.000588645     -28.5928 
         900         1.08  -0.00824384 -0.000817493     -28.5928 
         900      1.33333  -0.00782964  -0.00103855     -28.5928 
         900      1.61333  -0.00692179  -0.00123222     -28.5928 
         900         1.92  -0.00574642  -0.00139771     -28.5928 
         900      2.25333  -0.00453488  -0.00153993     -28.5927 
         900      2.61333  -0.00330168  -0.00165404     -28.5927 
         900            3  -0.00200875  -0.00173061     -28.5926 
         950            0            0            0     -17.6008 
         950     0.013333 -9.58785e-05 -3.31627e-07     -17.6008 
         950     0.053333  9.31394e-05 -4.79255e-06     -17.6008 
         950         0.12     0.000509 -2.04399e-05     -17.6008 
         950     0.213332   0.00109974 -5.10982e-05     -17.6008 
         950     0.333332   0.00164994 -9.41255e-05     -17.6008 
         950         0.48   0.00200679 -0.000144088     -17.6008 
         950     0.653331   0.00218282 -0.000198525     -17.6008 
         950     0.853332   0.00224143  -0.00026011     -17.6008 
         950         1.08   0.00214794 -0.000335356     -17.6008 
         950      1.33333   0.00180575 -0.000430113     -17.6008 
         950      1.61333   0.00128356 -0.000541303     -17.6008 
         950         1.92  0.000856173  -0.00065453     -17.6008 
         950      2.25333  0.000546077 -0.000757959     -17.6008 
         950      2.61333  0.000275479 -0.000846721     -17.6009 
         950            3 -1.47077e-06 -0.000917672     -17.6009 
        1000            0 -2.31636e-19  2.37757e-24     -6.60311 
        1000     0.013333 -0.000324951  1.31846e-07     -6.60311 
        1000     0.053333 -0.000859326  1.68718e-06     -6.60311 
        1000         0.12  -0.00160666  6.03601e-06     -6.60311 
        1000     0.213332  -0.00226943  1.08794e-05     -6.60311 
        1000     0.333332  -0.00259876  9.72605e-06     -6.60311 
        1000         0.48  -0.00256903  -3.5649e-06     -6.60311 
        1000     0.653331  -0.00235661 -2.98211e-05     -6.60311 
        1000     0.853332   -0.0021343 -6.41345e-05     -6.60312 
        1000         1.08   -0.0019272 -9.92238e-05     -6.60312 
        1000      1.33333  -0.00166797 -0.000129353     -6.60312 
        1000      1.61333  -0.00136227 -0.000154323     -6.60312 
        1000         1.92  -0.00111118 -0.000178435     -6.60311 
        1000      2.25333 -0.000899727 -0.000203171     -6.60311 
        1000      2.61333 -0.000685815 -0.000226385      -6.6031 
        1000            3 -0.000457325 -0.000245412     -6.60308 
