Variables = x, y, u, v, p

Zone, I=416, F=POINT
         -50            0            0            0      522.957 
         -50     0.013333   0.00058942  1.14416e-07      522.957 
         -50     0.053333  0.000548036  2.91184e-07      522.957 
         -50         0.12  0.000541934  5.42719e-07      522.957 
         -50     0.213332  0.000544717   7.5818e-07      522.957 
         -50     0.333332  0.000550013    5.728e-07      522.957 
         -50         0.48  0.000553164  1.79692e-06      522.957 
         -50     0.653331  0.000553215  2.15441e-06      522.956 
         -50     0.853332  0.000547916  1.75186e-06      522.955 
         -50         1.08  0.000540551  2.27488e-06      522.953 
         -50      1.33333  0.000533531  2.45188e-06      522.951 
         -50      1.61333  0.000526114  3.31186e-06      522.949 
         -50         1.92  0.000518132  5.57854e-06      522.945 
         -50      2.25333   0.00051515  6.76778e-06       522.94 
         -50      2.61333  0.000513656  5.68795e-06      522.934 
         -50            3  0.000510883  5.10371e-06      522.927 
         -25            0           -0           -0      508.902 
         -25     0.013333  0.000499582  2.04204e-08      508.902 
         -25     0.053333  0.000463266 -6.61464e-08      508.902 
         -25         0.12  0.000461485 -4.86871e-07      508.902 
         -25     0.213332  0.000472052 -1.36402e-06      508.902 
         -25     0.333332  0.000484908 -2.57521e-06      508.902 
         -25         0.48  0.000492828   -4.123e-06      508.902 
         -25     0.653331  0.000494772  -5.6655e-06      508.901 
         -25     0.853332  0.000490858 -7.22263e-06      508.901 
         -25         1.08  0.000484215 -8.73251e-06      508.901 
         -25      1.33333  0.000476086 -9.66646e-06        508.9 
         -25      1.61333  0.000464919 -9.94826e-06        508.9 
         -25         1.92   0.00044836 -9.88895e-06      508.899 
         -25      2.25333  0.000430477 -8.48938e-06      508.897 
         -25      2.61333  0.000424265 -4.33953e-06      508.896 
         -25            3  0.000433202  1.62128e-06      508.894 
           0            0  5.13922e-15  -3.4736e-15      495.733 
           0     0.013333    0.0011723 -0.000753206      495.746 
           0     0.053333  0.000787079 -0.000385735      495.768 
           0         0.12  0.000633846 -0.000269675      495.793 
           0     0.213332  0.000563458 -0.000204842      495.818 
           0     0.333332  0.000529478  -0.00016466      495.843 
           0         0.48  0.000505193  -0.00013592      495.869 
           0     0.653331  0.000486585 -0.000114956      495.893 
           0     0.853332   0.00047121 -9.92652e-05      495.917 
           0         1.08  0.000459343 -8.71379e-05      495.939 
           0      1.33333  0.000450543 -7.76548e-05      495.961 
           0      1.61333  0.000443266 -6.97671e-05      495.982 
           0         1.92  0.000437511 -6.30878e-05      496.001 
           0      2.25333  0.000433967 -5.74963e-05       496.02 
           0      2.61333   0.00042485 -5.37376e-05      496.037 
           0            3  0.000413825 -4.88528e-05      496.054 
          20            0  0.000428016  -3.5904e-05      486.725 
          20     0.013333  0.000430681 -3.63087e-05      486.725 
          20     0.053333  0.000439107 -3.75024e-05      486.725 
          20         0.12  0.000454282 -3.94424e-05      486.725 
          20     0.213332  0.000476364 -4.21288e-05      486.725 
          20     0.333332  0.000501858 -4.57032e-05      486.725 
          20         0.48  0.000520367 -5.04805e-05      486.724 
          20     0.653331  0.000524046 -5.63471e-05      486.724 
          20     0.853332   0.00051244 -6.26662e-05      486.723 
          20         1.08  0.000492757 -6.81436e-05      486.723 
          20      1.33333  0.000470737 -7.16233e-05      486.722 
          20      1.61333  0.000446677 -7.26664e-05      486.721 
          20         1.92  0.000425606 -7.07349e-05      486.719 
          20      2.25333  0.000407372  -6.6346e-05      486.718 
          20      2.61333  0.000386783 -6.13742e-05      486.716 
          20            3  0.000370026 -5.52734e-05      486.714 
          40            0            0            0      477.139 
          40     0.013333  0.000414381 -1.00926e-08      477.139 
          40     0.053333  0.000260883 -5.45805e-07      477.139 
          40         0.12  0.000158443 -3.43226e-06      477.139 
          40     0.213332  0.000149025 -1.17011e-05      477.139 
          40     0.333332  0.000203212 -2.77901e-05      477.139 
          40         0.48  0.000255267 -5.16637e-05      477.138 
          40     0.653331  0.000296883 -8.05715e-05      477.138 
          40     0.853332  0.000337629 -0.000112147      477.138 
          40         1.08  0.000358507 -0.000145337      477.138 
          40      1.33333  0.000379636 -0.000175749      477.138 
          40      1.61333  0.000409043 -0.000198738      477.137 
          40         1.92  0.000435241  -0.00021191      477.136 
          40      2.25333  0.000454389 -0.000213773      477.136 
          40      2.61333  0.000464805 -0.000206517      477.134 
          40            3  0.000464745 -0.000194185      477.133 
          60            0            0            0      467.441 
          60     0.013333  0.000416976  -3.1022e-08      467.441 
          60     0.053333  0.000287156 -6.08923e-07      467.441 
          60         0.12  0.000195035 -3.33762e-06      467.441 
          60     0.213332  0.000158231 -1.01104e-05      467.441 
          60     0.333332  0.000147539 -2.12954e-05      467.441 
          60         0.48  0.000115735 -3.57575e-05      467.441 
          60     0.653331    5.225e-05 -5.18891e-05      467.441 
          60     0.853332  2.17629e-06 -6.64398e-05      467.441 
          60         1.08  2.44043e-05 -7.58399e-05       467.44 
          60      1.33333  0.000106266 -7.96686e-05       467.44 
          60      1.61333  0.000208789 -7.95252e-05       467.44 
          60         1.92  0.000312741 -7.56823e-05       467.44 
          60      2.25333  0.000405543 -6.81779e-05       467.44 
          60      2.61333  0.000473899 -5.85576e-05       467.44 
          60            3   0.00050994 -4.79806e-05       467.44 
          80            0           -0           -0      457.822 
          80     0.013333  0.000476593 -1.30025e-07      457.822 
          80     0.053333  0.000522954 -1.86702e-06      457.822 
          80         0.12  0.000674821 -7.74719e-06      457.822 
          80     0.213332  0.000864273 -1.83948e-05      457.822 
          80     0.333332   0.00100996 -3.15604e-05      457.822 
          80         0.48   0.00107783 -4.48847e-05      457.822 
          80     0.653331   0.00106584  -5.8703e-05      457.822 
          80     0.853332  0.000964996 -7.47324e-05      457.822 
          80         1.08  0.000825282  -9.0682e-05      457.822 
          80      1.33333  0.000715406 -0.000102341      457.822 
          80      1.61333  0.000611798  -0.00010907      457.822 
          80         1.92  0.000497944 -0.000111314      457.822 
          80      2.25333  0.000395509 -0.000108582      457.822 
          80      2.61333  0.000323072 -0.000101334      457.822 
          80            3   0.00028508 -9.15008e-05      457.822 
         100            0           -0           -0      448.223 
         100     0.013333   0.00043422 -6.97788e-08      448.223 
         100     0.053333  0.000357994 -1.03698e-06      448.223 
         100         0.12  0.000335129 -4.60493e-06      448.223 
         100     0.213332  0.000362851 -1.21283e-05      448.223 
         100     0.333332  0.000414178 -2.38127e-05      448.223 
         100         0.48  0.000454122 -3.91799e-05      448.223 
         100     0.653331  0.000459912 -5.79958e-05      448.223 
         100     0.853332  0.000423168  -8.0092e-05      448.223 
         100         1.08  0.000381529 -0.000103106      448.223 
         100      1.33333  0.000382809 -0.000122913      448.223 
         100      1.61333  0.000393103 -0.000137987      448.223 
         100         1.92  0.000389198 -0.000147961      448.223 
         100      2.25333   0.00038496 -0.000151444      448.223 
         100      2.61333  0.000385627 -0.000148408      448.223 
         100            3  0.000387799 -0.000140425      448.223 
         150            0            0            0      424.236 
         150     0.013333  0.000394622  6.23529e-08      424.236 
         150     0.053333  0.000186084  8.19771e-07      424.236 
         150         0.12  -5.3517e-05  2.90306e-06      424.236 
         150     0.213332 -0.000251283  5.19784e-06      424.236 
         150     0.333332 -0.000345767  4.94776e-06      424.236 
         150         0.48 -0.000350249 -7.00448e-08      424.236 
         150     0.653331 -0.000313955 -9.98255e-06      424.236 
         150     0.853332 -0.000260527 -2.29688e-05      424.236 
         150         1.08 -0.000177806 -3.68344e-05      424.236 
         150      1.33333 -5.99359e-05 -4.97697e-05      424.236 
         150      1.61333  7.77964e-05 -6.11299e-05      424.236 
         150         1.92  0.000223054 -7.03034e-05      424.236 
         150      2.25333  0.000362885 -7.61719e-05      424.236 
         150      2.61333  0.000478447 -7.88608e-05      424.236 
         150            3  0.000554781 -7.82474e-05      424.236 
         200            0           -0           -0      400.231 
         200     0.013333  0.000391331  1.09079e-07      400.231 
         200     0.053333  0.000160822  1.48963e-06      400.231 
         200         0.12 -0.000131575  5.76525e-06      400.231 
         200     0.213332 -0.000403831  1.24957e-05      400.231 
         200     0.333332 -0.000567066  1.88624e-05      400.231 
         200         0.48  -0.00061422  2.19624e-05      400.231 
         200     0.653331 -0.000594373  2.09929e-05      400.231 
         200     0.853332 -0.000533142  1.80391e-05      400.231 
         200         1.08 -0.000409966  1.62416e-05      400.231 
         200      1.33333  -0.00023467  1.66278e-05      400.231 
         200      1.61333 -4.80628e-05  1.73359e-05      400.231 
         200         1.92  0.000143982  1.74674e-05      400.231 
         200      2.25333  0.000329495  1.73317e-05      400.231 
         200      2.61333  0.000488319  1.64852e-05      400.231 
         200            3  0.000602322  1.52263e-05      400.231 
         250            0           -0           -0      376.207 
         250     0.013333  0.000674382  5.02322e-07      376.207 
         250     0.053333   0.00104647  7.85046e-06      376.207 
         250         0.12   0.00114964  3.72146e-05      376.207 
         250     0.213332  0.000737935  0.000103908      376.207 
         250     0.333332   5.2781e-05  0.000211702      376.207 
         250         0.48 -0.000502107   0.00035207      376.207 
         250     0.653331 -0.000712158  0.000514283      376.207 
         250     0.853332 -0.000599422   0.00068996      376.207 
         250         1.08 -0.000355879  0.000867253      376.207 
         250      1.33333 -0.000176305    0.0010305      376.207 
         250      1.61333 -5.43643e-05   0.00116807      376.207 
         250         1.92  8.28793e-05   0.00127107      376.207 
         250      2.25333  0.000230581   0.00132904      376.207 
         250      2.61333  0.000367014   0.00133692      376.207 
         250            3  0.000474469   0.00129667      376.207 
         300            0           -0           -0      352.169 
         300     0.013333  0.000579159 -3.88807e-08      352.169 
         300     0.053333  0.000870372 -4.60161e-07      352.169 
         300         0.12   0.00128867 -1.31343e-06      352.169 
         300     0.213332   0.00167862 -1.18317e-06      352.169 
         300     0.333332   0.00194033  2.60803e-06      352.169 
         300         0.48   0.00206159  1.27303e-05      352.169 
         300     0.653331   0.00209873  3.06998e-05      352.169 
         300     0.853332   0.00210272  5.59326e-05      352.169 
         300         1.08   0.00205051  8.46214e-05      352.169 
         300      1.33333   0.00187079  0.000110216      352.169 
         300      1.61333   0.00158076  0.000129207      352.169 
         300         1.92   0.00125657  0.000142415      352.169 
         300      2.25333  0.000916835  0.000149225      352.169 
         300      2.61333  0.000587362  0.000149454      352.169 
         300            3  0.000309189  0.000143392      352.169 
         350            0            0            0      328.116 
         350     0.013333  0.000388549   9.6453e-08      328.116 
         350     0.053333  0.000142215  1.36087e-06      328.116 
         350         0.12 -0.000191529  5.58504e-06      328.116 
         350     0.213332 -0.000546107  1.32068e-05      328.116 
         350     0.333332 -0.000822466  2.24099e-05      328.116 
         350         0.48 -0.000976521  3.03015e-05      328.116 
         350     0.653331  -0.00103235   3.4844e-05      328.116 
         350     0.853332  -0.00102818  3.61779e-05      328.116 
         350         1.08 -0.000953981  3.68842e-05      328.116 
         350      1.33333 -0.000782606  3.99811e-05      328.116 
         350      1.61333 -0.000548719  4.52439e-05      328.116 
         350         1.92 -0.000295261  5.05452e-05      328.116 
         350      2.25333 -2.58462e-05  5.51423e-05      328.116 
         350      2.61333  0.000242154  5.84791e-05      328.116 
         350            3  0.000475873  6.02784e-05      328.116 
         400            0            0            0      304.052 
         400     0.013333  0.000743867 -1.07944e-07      304.052 
         400     0.053333   0.00145227 -1.07285e-06      304.052 
         400         0.12    0.0023134 -1.24623e-06      304.052 
         400     0.213332   0.00289207  7.76897e-06      304.052 
         400     0.333332   0.00299413  3.70751e-05      304.052 
         400         0.48   0.00277825  9.10958e-05      304.052 
         400     0.653331   0.00251636  0.000164361      304.052 
         400     0.853332   0.00230686  0.000245778      304.052 
         400         1.08   0.00206432   0.00032431      304.052 
         400      1.33333   0.00173727  0.000394344      304.052 
         400      1.61333   0.00139462  0.000456182      304.052 
         400         1.92   0.00106147   0.00050891      304.052 
         400      2.25333  0.000725532  0.000547602      304.052 
         400      2.61333  0.000403215  0.000568864      304.052 
         400            3  0.000131802   0.00057106      304.052 
         450            0            0            0      279.978 
         450     0.013333  0.000340818 -6.27716e-07      279.978 
         450     0.053333  0.000178456 -9.44538e-06      279.978 
         450         0.12  0.000449025 -4.27065e-05      279.978 
         450     0.213332   0.00123157 -0.000113907      279.978 
         450     0.333332   0.00217548  -0.00022321      279.978 
         450         0.48   0.00286297 -0.000359875      279.978 
         450     0.653331   0.00313039 -0.000514243      279.978 
         450     0.853332   0.00299919 -0.000683802      279.978 
         450         1.08   0.00256889 -0.000866421      279.978 
         450      1.33333   0.00206718  -0.00105031      279.978 
         450      1.61333   0.00168564  -0.00121793      279.978 
         450         1.92   0.00135345  -0.00135824      279.978 
         450      2.25333   0.00100272  -0.00146257      279.978 
         450      2.61333  0.000644301  -0.00152251      279.978 
         450            3  0.000323076  -0.00153272      279.977 
         500            0           -0           -0      255.891 
         500     0.013333  0.000306385  1.36206e-07      255.891 
         500     0.053333 -0.000150876  1.71836e-06      255.891 
         500         0.12 -0.000706065  5.65911e-06      255.891 
         500     0.213332  -0.00115103   8.8315e-06      255.891 
         500     0.333332  -0.00134482   5.4222e-06      255.891 
         500         0.48  -0.00133721 -7.79227e-06      255.891 
         500     0.653331  -0.00126601 -2.89087e-05      255.891 
         500     0.853332   -0.0011938 -5.23371e-05      255.891 
         500         1.08  -0.00105799 -7.08498e-05      255.891 
         500      1.33333  -0.00079634 -7.96025e-05      255.891 
         500      1.61333 -0.000484421 -8.06623e-05      255.891 
         500         1.92 -0.000208657 -7.89206e-05      255.891 
         500      2.25333  5.62147e-05 -7.51655e-05      255.891 
         500      2.61333  0.000318413 -6.92417e-05      255.891 
         500            3  0.000553935 -6.12054e-05      255.891 
         550            0  5.64971e-19 -1.63274e-26      231.801 
         550     0.013333  0.000585417  1.25759e-07      231.801 
         550     0.053333  0.000836605  2.02896e-06      231.801 
         550         0.12   0.00107042   1.0077e-05      231.801 
         550     0.213332   0.00111164  2.97366e-05      231.801 
         550     0.333332  0.000967302  6.41659e-05      231.801 
         550         0.48  0.000767259  0.000112469      231.801 
         550     0.653331  0.000633496  0.000171569      231.801 
         550     0.853332  0.000609783  0.000238633      231.801 
         550         1.08  0.000665136  0.000310592      231.801 
         550      1.33333  0.000712019    0.0003823      231.801 
         550      1.61333  0.000688014  0.000447937      231.801 
         550         1.92  0.000627638  0.000504369      231.801 
         550      2.25333  0.000562765  0.000548956      231.801 
         550      2.61333  0.000499415  0.000578583      231.801 
         550            3  0.000437055  0.000590624      231.801 
         600            0            0            0      207.705 
         600     0.013333  0.000421568 -6.85528e-08      207.705 
         600     0.053333   0.00030514 -1.05059e-06      207.705 
         600         0.12  0.000242296 -4.88194e-06      207.705 
         600     0.213332  0.000253122 -1.34392e-05      207.705 
         600     0.333332  0.000310902 -2.72162e-05      207.705 
         600         0.48  0.000363869 -4.53193e-05      207.705 
         600     0.653331  0.000382779 -6.67377e-05      207.705 
         600     0.853332  0.000360947 -9.11306e-05      207.705 
         600         1.08  0.000307752 -0.000118099      207.705 
         600      1.33333  0.000257602 -0.000145816      207.705 
         600      1.61333  0.000246808 -0.000171417      207.705 
         600         1.92  0.000265097  -0.00019315      207.705 
         600      2.25333  0.000290339 -0.000210279      207.705 
         600      2.61333  0.000316849 -0.000221751      207.705 
         600            3  0.000346396 -0.000226536      207.705 
         650            0            0            0      183.598 
         650     0.013333  0.000394366  6.66905e-08      183.598 
         650     0.053333  0.000169365   9.1144e-07      183.598 
         650         0.12 -0.000107263  3.48485e-06      183.598 
         650     0.213332 -0.000358343  7.19895e-06      183.598 
         650     0.333332 -0.000495265  9.55436e-06      183.598 
         650         0.48 -0.000504019  8.02836e-06      183.598 
         650     0.653331 -0.000437626  2.10939e-06      183.598 
         650     0.853332 -0.000350201 -6.64342e-06      183.598 
         650         1.08 -0.000254073 -1.59876e-05      183.598 
         650      1.33333 -0.000144805 -2.46847e-05      183.598 
         650      1.61333 -3.45457e-05 -3.30112e-05      183.598 
         650         1.92  6.84688e-05 -4.15219e-05      183.598 
         650      2.25333  0.000173836  -4.9754e-05      183.598 
         650      2.61333  0.000283526   -5.703e-05      183.598 
         650            3  0.000389847 -6.28365e-05      183.598 
         700            0  5.59942e-19 -6.02427e-26      159.476 
         700     0.013333  0.000581013 -2.65206e-07      159.476 
         700     0.053333  0.000941489 -3.85398e-06      159.476 
         700         0.12    0.0016139 -1.65194e-05      159.476 
         700     0.213332   0.00241836 -4.10554e-05      159.476 
         700     0.333332   0.00306672 -7.35512e-05      159.476 
         700         0.48   0.00337158 -0.000106187      159.476 
         700     0.653331   0.00336358 -0.000133631      159.476 
         700     0.853332   0.00317462 -0.000155922      159.476 
         700         1.08   0.00289477 -0.000176059      159.476 
         700      1.33333   0.00256494 -0.000195638      159.476 
         700      1.61333   0.00222128 -0.000213505      159.476 
         700         1.92    0.0018766 -0.000227693      159.476 
         700      2.25333   0.00150928 -0.000237049      159.476 
         700      2.61333   0.00111588 -0.000240996      159.476 
         700            3   0.00071864   -0.0002389      159.476 
         750            0            0            0      135.337 
         750     0.013333  0.000623023  6.31672e-07      135.337 
         750     0.053333  0.000798953  9.69535e-06      135.337 
         750         0.12  0.000505626  4.52074e-05      135.337 
         750     0.213332 -0.000513854  0.000125207      135.337 
         750     0.333332  -0.00191104  0.000254768      135.337 
         750         0.48  -0.00308014  0.000423169      135.337 
         750     0.653331  -0.00366552  0.000614646      135.337 
         750     0.853332  -0.00367377  0.000819459      135.337 
         750         1.08   -0.0032809    0.0010334      135.337 
         750      1.33333  -0.00272693   0.00124921      135.337 
         750      1.61333  -0.00222362   0.00145469      135.337 
         750         1.92  -0.00178824   0.00163952      135.337 
         750      2.25333  -0.00132477    0.0017957      135.337 
         750      2.61333 -0.000807121   0.00191407      135.337 
         750            3 -0.000271482   0.00198506      135.337 
         800            0            0            0      111.187 
         800     0.013333 -0.000251886 -3.16512e-07      111.187 
         800     0.053333  -0.00203797 -5.53428e-06      111.187 
         800         0.12  -0.00386921 -3.02975e-05      111.187 
         800     0.213332  -0.00482108 -9.81377e-05      111.187 
         800     0.333332  -0.00463248 -0.000229329      111.187 
         800         0.48  -0.00379711 -0.000427833      111.187 
         800     0.653331  -0.00300974 -0.000682045      111.187 
         800     0.853332  -0.00265022 -0.000975381      111.187 
         800         1.08  -0.00266058  -0.00129058      111.187 
         800      1.33333  -0.00267445  -0.00160676      111.187 
         800      1.61333  -0.00238382  -0.00190263      111.187 
         800         1.92  -0.00187146  -0.00216935      111.187 
         800      2.25333  -0.00131649  -0.00239778      111.187 
         800      2.61333 -0.000759518  -0.00257794      111.187 
         800            3 -0.000185336  -0.00269733      111.187 
         850            0           -0           -0      87.0355 
         850     0.013333  0.000900025 -3.06161e-07      87.0355 
         850     0.053333   0.00209667 -4.03545e-06      87.0355 
         850         0.12   0.00378579 -1.45184e-05      87.0355 
         850     0.213332    0.0053778 -2.71033e-05      87.0355 
         850     0.333332   0.00637864 -2.92417e-05      87.0355 
         850         0.48   0.00671809 -1.01387e-05      87.0355 
         850     0.653331   0.00668676  3.13841e-05      87.0355 
         850     0.853332   0.00656706  8.73306e-05      87.0355 
         850         1.08    0.0063704  0.000143986      87.0355 
         850      1.33333   0.00590112  0.000186868      87.0355 
         850      1.61333   0.00510649  0.000209906      87.0355 
         850         1.92   0.00422866  0.000220157      87.0355 
         850      2.25333   0.00336063  0.000225291      87.0354 
         850      2.61333   0.00247455  0.000225687      87.0354 
         850            3   0.00155365  0.000219462      87.0353 
         900            0            0            0       62.874 
         900     0.013333  0.000353399   1.0137e-07       62.874 
         900     0.053333  1.86974e-05  1.26825e-06       62.874 
         900         0.12 -0.000371246   4.0365e-06       62.874 
         900     0.213332 -0.000650479  5.48266e-06       62.874 
         900     0.333332  -0.00070109  2.63278e-07       62.874 
         900         0.48 -0.000585499  -1.4407e-05       62.874 
         900     0.653331 -0.000464741 -3.58515e-05       62.874 
         900     0.853332  -0.00042135 -5.74978e-05       62.874 
         900         1.08 -0.000376691 -7.12907e-05       62.874 
         900      1.33333 -0.000197484 -7.11088e-05       62.874 
         900      1.61333  8.69762e-05 -5.84411e-05       62.874 
         900         1.92  0.000289789 -4.19789e-05       62.874 
         900      2.25333  0.000411427 -2.66823e-05       62.874 
         900      2.61333  0.000505342 -1.27351e-05      62.8741 
         900            3  0.000594445  8.30349e-07      62.8741 
         950            0            0            0      38.7043 
         950     0.013333  0.000953173 -1.62305e-07      38.7043 
         950     0.053333   0.00223781 -1.85836e-06      38.7043 
         950         0.12    0.0038981 -4.29542e-06      38.7043 
         950     0.213332   0.00522681   2.2231e-06      38.7043 
         950     0.333332   0.00573763  3.42146e-05      38.7043 
         950         0.48   0.00549573  0.000103233      38.7043 
         950     0.653331   0.00496003  0.000207135      38.7043 
         950     0.853332   0.00450293  0.000332472      38.7043 
         950         1.08   0.00413784  0.000461696      38.7043 
         950      1.33333   0.00366765  0.000580583      38.7043 
         950      1.61333   0.00305439  0.000685528      38.7043 
         950         1.92   0.00248317  0.000782422      38.7043 
         950      2.25333   0.00196449  0.000872349      38.7042 
         950      2.61333   0.00144442  0.000950161      38.7042 
         950            3  0.000904625   0.00100923      38.7042 
        1000            0  4.86992e-19 -4.23739e-26      14.5141 
        1000     0.013333  0.000335253  8.99395e-07      14.5141 
        1000     0.053333 -0.000344934  1.33813e-05      14.5141 
        1000         0.12  -0.00192834   5.9652e-05      14.5141 
        1000     0.213332  -0.00431595  0.000156791      14.5141 
        1000     0.333332  -0.00673718  0.000302127      14.5141 
        1000         0.48  -0.00839604  0.000476239      14.5141 
        1000     0.653331  -0.00906108  0.000660538      14.5141 
        1000     0.853332  -0.00895371   0.00085044      14.5141 
        1000         1.08  -0.00829068   0.00105354      14.5141 
        1000      1.33333  -0.00720467   0.00127479      14.5141 
        1000      1.61333  -0.00598469   0.00150311      14.5141 
        1000         1.92   -0.0049512    0.0017171      14.5141 
        1000      2.25333  -0.00398424   0.00190546      14.5142 
        1000      2.61333  -0.00294474   0.00206072      14.5142 
        1000            3  -0.00181822   0.00217493      14.5143 
