Variables = x, y, u, v, p

Zone, I=2080, F=POINT
         -50            0 -9.87801e-20 -2.68928e-24     -12.8319 
         -50      0.00048 -9.87962e-06 -3.10825e-10     -12.8319 
         -50     0.001922 -3.54029e-05 -1.59972e-09     -12.8319 
         -50     0.004326  -6.6132e-05 -4.74671e-09     -12.8319 
         -50      0.00769  -9.0494e-05 -1.06918e-08     -12.8319 
         -50     0.012017 -0.000101528 -1.99673e-08     -12.8319 
         -50     0.017304 -9.99929e-05 -3.24739e-08     -12.8319 
         -50     0.023553 -9.30319e-05 -4.77539e-08     -12.8319 
         -50     0.030763 -8.85505e-05 -6.55944e-08     -12.8319 
         -50     0.038936  -8.8829e-05 -8.66231e-08     -12.8319 
         -50     0.048069 -8.88995e-05 -1.12205e-07     -12.8319 
         -50     0.058163 -8.37767e-05 -1.43293e-07     -12.8319 
         -50     0.069219 -7.96337e-05  -1.7876e-07     -12.8319 
         -50     0.081236 -8.21641e-05 -2.16301e-07     -12.8319 
         -50     0.094215 -7.88451e-05 -2.58312e-07     -12.8319 
         -50     0.108155 -7.78233e-05 -3.03458e-07     -12.8319 
         -50     0.123056 -7.69871e-05 -3.49544e-07     -12.8319 
         -50     0.138918 -7.62271e-05 -3.95398e-07     -12.8319 
         -50     0.155744 -7.55206e-05 -4.40329e-07     -12.8319 
         -50     0.173529  -7.4892e-05 -4.83257e-07     -12.8319 
         -50     0.192276 -7.43511e-05 -5.22086e-07     -12.8319 
         -50     0.211984 -7.38513e-05 -5.54167e-07     -12.8319 
         -50     0.232655 -7.33407e-05 -5.79742e-07     -12.8319 
         -50     0.254285 -7.29563e-05 -6.08683e-07     -12.8319 
         -50     0.276877 -7.25529e-05 -6.32096e-07     -12.8319 
         -50     0.300431 -7.22174e-05 -6.69996e-07     -12.8319 
         -50     0.324946 -7.19301e-05 -7.45139e-07     -12.8319 
         -50     0.350424   -7.168e-05 -8.67227e-07     -12.8319 
         -50     0.376861  -7.1465e-05  -1.0317e-06     -12.8319 
         -50      0.40426 -7.12893e-05  -1.2202e-06     -12.8319 
         -50     0.432621 -7.11608e-05 -1.40285e-06     -12.8319 
         -50     0.461945 -7.10872e-05 -1.54301e-06     -12.8319 
         -50     0.492228 -7.10732e-05 -1.60459e-06     -12.8318 
         -50     0.523472  -7.1118e-05 -1.56247e-06     -12.8318 
         -50     0.555678 -7.12179e-05 -1.41597e-06     -12.8318 
         -50     0.588845 -7.13732e-05 -1.20561e-06     -12.8318 
         -50     0.622976  -7.1594e-05 -1.10429e-06     -12.8318 
         -50     0.658066 -7.18451e-05 -1.12397e-06     -12.8318 
         -50     0.694117 -7.21383e-05 -1.14365e-06     -12.8318 
         -50      0.73113 -7.24933e-05 -1.18535e-06     -12.8318 
         -50     0.769107 -7.29253e-05 -1.25979e-06     -12.8318 
         -50     0.808042  -7.3445e-05 -1.36752e-06     -12.8318 
         -50     0.847939 -7.40576e-05 -1.50072e-06     -12.8317 
         -50     0.888797 -7.47629e-05 -1.64579e-06     -12.8317 
         -50      0.93062 -7.55556e-05 -1.78635e-06     -12.8317 
         -50       0.9734 -7.64247e-05  -1.9066e-06     -12.8317 
         -50      1.01714 -7.73549e-05 -1.99481e-06     -12.8317 
         -50      1.06185 -7.83268e-05 -2.04636e-06     -12.8317 
         -50      1.10751 -7.93181e-05 -2.06599e-06     -12.8316 
         -50      1.15414 -8.03051e-05 -2.06853e-06     -12.8316 
         -50      1.20173 -8.12637e-05 -2.07735e-06     -12.8316 
         -50      1.25028 -8.21721e-05 -2.11956e-06     -12.8316 
         -50      1.29979  -8.3012e-05 -2.21672e-06     -12.8315 
         -50      1.35026 -8.37712e-05 -2.36977e-06     -12.8315 
         -50       1.4017 -8.44457e-05 -2.53638e-06     -12.8315 
         -50      1.45409 -8.50419e-05 -2.59904e-06     -12.8315 
         -50      1.50745 -8.55927e-05 -2.33587e-06     -12.8314 
         -50      1.56176 -8.65108e-05 -2.47941e-06     -12.8314 
         -50      1.61705  -8.6938e-05 -2.54438e-06     -12.8314 
         -50      1.67329 -8.70201e-05 -2.56027e-06     -12.8313 
         -50      1.73049 -8.68877e-05 -2.55418e-06     -12.8313 
         -50      1.78865 -8.66549e-05 -2.55038e-06     -12.8312 
         -50      1.84778 -8.64179e-05 -2.57003e-06     -12.8312 
         -50      1.90786  -8.6255e-05 -2.63088e-06     -12.8311 
         -50      1.96891 -8.62255e-05 -2.74708e-06     -12.8311 
         -50      2.03092 -8.63707e-05 -2.92895e-06      -12.831 
         -50      2.09389 -8.67136e-05 -3.18297e-06      -12.831 
         -50      2.15782 -8.72602e-05 -3.51159e-06     -12.8309 
         -50      2.22272  -8.8001e-05 -3.91343e-06     -12.8309 
         -50      2.28857 -8.89123e-05  -4.3833e-06     -12.8308 
         -50      2.35539 -8.99583e-05 -4.91246e-06     -12.8307 
         -50      2.42317 -9.10941e-05  -5.4889e-06     -12.8307 
         -50      2.49191 -9.22676e-05  -6.0976e-06     -12.8306 
         -50      2.56161 -9.34233e-05 -6.72127e-06     -12.8305 
         -50      2.63226  -9.4505e-05 -7.34075e-06     -12.8305 
         -50      2.70389 -9.54592e-05 -7.93583e-06     -12.8304 
         -50      2.77648 -9.62384e-05 -8.48579e-06     -12.8303 
         -50      2.85002 -9.68043e-05 -8.97064e-06     -12.8302 
         -50      2.92453 -9.71306e-05 -9.37189e-06     -12.8301 
         -50            3 -9.72055e-05 -9.67371e-06       -12.83 
         -25            0           -0           -0     -12.3181 
         -25      0.00048 -7.45912e-06 -1.48944e-10     -12.3181 
         -25     0.001922 -2.68206e-05 -7.29268e-10     -12.3181 
         -25     0.004326 -5.04318e-05 -2.07541e-09     -12.3181 
         -25      0.00769 -6.98015e-05 -4.56551e-09     -12.3181 
         -25     0.012017 -7.98102e-05 -8.47564e-09     -12.3181 
         -25     0.017304 -8.09818e-05 -1.39363e-08     -12.3181 
         -25     0.023553 -7.85051e-05 -2.10865e-08     -12.3181 
         -25     0.030763 -7.81165e-05 -3.03505e-08     -12.3181 
         -25     0.038936  -8.1425e-05 -4.27022e-08     -12.3181 
         -25     0.048069  -8.4725e-05 -5.96399e-08     -12.3181 
         -25     0.058163 -8.43021e-05 -8.27514e-08     -12.3181 
         -25     0.069219 -8.46164e-05 -1.13089e-07     -12.3181 
         -25     0.081236 -8.97628e-05 -1.51612e-07     -12.3181 
         -25     0.094215 -9.05116e-05 -2.01132e-07     -12.3181 
         -25     0.108155 -9.27739e-05 -2.63087e-07     -12.3181 
         -25     0.123056 -9.49543e-05 -3.39349e-07     -12.3181 
         -25     0.138918 -9.69394e-05 -4.31689e-07     -12.3181 
         -25     0.155744 -9.86905e-05 -5.41718e-07     -12.3181 
         -25     0.173529 -0.000100215 -6.70805e-07     -12.3181 
         -25     0.192276 -0.000101522 -8.20179e-07     -12.3181 
         -25     0.211984 -0.000102594 -9.90809e-07     -12.3181 
         -25     0.232655 -0.000103418 -1.18328e-06     -12.3181 
         -25     0.254285 -0.000104129 -1.39724e-06     -12.3181 
         -25     0.276877 -0.000104659 -1.63323e-06     -12.3181 
         -25     0.300431 -0.000105111 -1.89172e-06     -12.3181 
         -25     0.324946 -0.000105518 -2.17179e-06     -12.3181 
         -25     0.350424 -0.000105911 -2.47245e-06     -12.3181 
         -25     0.376861  -0.00010632 -2.79257e-06     -12.3181 
         -25      0.40426  -0.00010677 -3.13117e-06     -12.3181 
         -25     0.432621 -0.000107281 -3.48743e-06     -12.3181 
         -25     0.461945 -0.000107861 -3.86078e-06     -12.3181 
         -25     0.492228 -0.000108512  -4.2509e-06     -12.3181 
         -25     0.523472 -0.000109221 -4.65776e-06     -12.3181 
         -25     0.555678 -0.000109969 -5.08136e-06     -12.3181 
         -25     0.588845  -0.00011073  -5.5214e-06     -12.3181 
         -25     0.622976 -0.000111472 -5.97728e-06     -12.3181 
         -25     0.658066  -0.00011216  -6.4353e-06     -12.3181 
         -25     0.694117 -0.000112755 -6.88689e-06     -12.3181 
         -25      0.73113 -0.000113212 -7.32975e-06     -12.3181 
         -25     0.769107  -0.00011349 -7.76228e-06     -12.3181 
         -25     0.808042  -0.00011356 -8.18345e-06     -12.3181 
         -25     0.847939 -0.000113402 -8.59293e-06     -12.3181 
         -25     0.888797 -0.000113005 -8.99082e-06     -12.3181 
         -25      0.93062 -0.000112368 -9.37767e-06     -12.3181 
         -25       0.9734 -0.000111497  -9.7541e-06     -12.3181 
         -25      1.01714 -0.000110409 -1.01209e-05     -12.3181 
         -25      1.06185 -0.000109123 -1.04785e-05     -12.3181 
         -25      1.10751 -0.000107665  -1.0827e-05      -12.318 
         -25      1.15414 -0.000106064 -1.11661e-05      -12.318 
         -25      1.20173 -0.000104347 -1.14945e-05      -12.318 
         -25      1.25028 -0.000102542 -1.18103e-05      -12.318 
         -25      1.29979 -0.000100673 -1.21107e-05      -12.318 
         -25      1.35026 -9.87613e-05 -1.23926e-05      -12.318 
         -25       1.4017 -9.68249e-05 -1.26526e-05      -12.318 
         -25      1.45409 -9.48799e-05 -1.28882e-05      -12.318 
         -25      1.50745 -9.29359e-05 -1.30927e-05      -12.318 
         -25      1.56176 -9.05524e-05 -1.31063e-05     -12.3179 
         -25      1.61705 -8.82411e-05  -1.3279e-05     -12.3179 
         -25      1.67329 -8.59937e-05 -1.35448e-05     -12.3179 
         -25      1.73049 -8.38033e-05 -1.38476e-05     -12.3179 
         -25      1.78865 -8.16653e-05 -1.41416e-05     -12.3179 
         -25      1.84778 -7.95768e-05 -1.43913e-05     -12.3179 
         -25      1.90786 -7.75383e-05 -1.45716e-05     -12.3179 
         -25      1.96891 -7.55515e-05 -1.46674e-05     -12.3178 
         -25      2.03092 -7.36209e-05 -1.46734e-05     -12.3178 
         -25      2.09389  -7.1753e-05 -1.45929e-05     -12.3178 
         -25      2.15782 -6.99568e-05 -1.44371e-05     -12.3178 
         -25      2.22272 -6.82429e-05 -1.42237e-05     -12.3177 
         -25      2.28857 -6.66234e-05 -1.39757e-05     -12.3177 
         -25      2.35539 -6.51118e-05 -1.37194e-05     -12.3177 
         -25      2.42317 -6.37221e-05 -1.34828e-05     -12.3177 
         -25      2.49191 -6.24691e-05 -1.32942e-05     -12.3176 
         -25      2.56161 -6.13669e-05 -1.31794e-05     -12.3176 
         -25      2.63226 -6.04284e-05 -1.31606e-05     -12.3176 
         -25      2.70389 -5.96648e-05 -1.32544e-05     -12.3176 
         -25      2.77648 -5.90845e-05 -1.34701e-05     -12.3175 
         -25      2.85002  -5.8692e-05 -1.38087e-05     -12.3175 
         -25      2.92453 -5.84868e-05 -1.42621e-05     -12.3175 
         -25            3 -5.84624e-05 -1.48126e-05     -12.3174 
           0            0            0            0     -11.8952 
           0      0.00048  -3.0728e-05  1.78406e-05     -11.8952 
           0     0.001922 -0.000107438  6.18569e-05     -11.8953 
           0     0.004326 -0.000191707  0.000108662     -11.8954 
           0      0.00769 -0.000243258  0.000134389     -11.8955 
           0     0.012017 -0.000242439  0.000128743     -11.8956 
           0     0.017304 -0.000200805  0.000101166     -11.8957 
           0     0.023553 -0.000152166  7.41879e-05     -11.8959 
           0     0.030763  -0.00012683  6.61365e-05     -11.8961 
           0     0.038936 -0.000125758  7.44727e-05     -11.8962 
           0     0.048069 -0.000119768  7.65369e-05     -11.8964 
           0     0.058163 -8.92001e-05  5.78062e-05     -11.8966 
           0     0.069219 -7.28781e-05  4.63982e-05     -11.8967 
           0     0.081236 -8.62249e-05  5.96484e-05     -11.8969 
           0     0.094215  -6.7705e-05  4.69951e-05     -11.8971 
           0     0.108155 -6.32505e-05  4.42954e-05     -11.8973 
           0     0.123056 -5.90179e-05   4.2394e-05     -11.8975 
           0     0.138918 -5.54738e-05  4.01546e-05     -11.8977 
           0     0.155744 -5.27986e-05  3.75721e-05     -11.8979 
           0     0.173529 -5.09101e-05  3.52669e-05     -11.8981 
           0     0.192276 -4.95699e-05  3.36884e-05     -11.8983 
           0     0.211984 -4.85661e-05  3.24658e-05     -11.8984 
           0     0.232655 -4.79099e-05  3.07434e-05     -11.8986 
           0     0.254285 -4.77676e-05   2.9441e-05     -11.8988 
           0     0.276877 -4.77774e-05  2.82546e-05      -11.899 
           0     0.300431 -4.79917e-05  2.71727e-05     -11.8992 
           0     0.324946 -4.83546e-05  2.61966e-05     -11.8994 
           0     0.350424  -4.8799e-05  2.53014e-05     -11.8996 
           0     0.376861 -4.92889e-05  2.44893e-05     -11.8998 
           0      0.40426 -4.97939e-05  2.37528e-05        -11.9 
           0     0.432621 -5.02775e-05  2.30853e-05     -11.9002 
           0     0.461945 -5.07211e-05  2.24788e-05     -11.9004 
           0     0.492228 -5.11175e-05  2.19217e-05     -11.9006 
           0     0.523472 -5.14569e-05  2.14177e-05     -11.9008 
           0     0.555678 -5.17431e-05  2.09621e-05      -11.901 
           0     0.588845 -5.19859e-05  2.05496e-05     -11.9012 
           0     0.622976 -5.21976e-05  2.01721e-05     -11.9014 
           0     0.658066 -5.23892e-05  1.98108e-05     -11.9016 
           0     0.694117 -5.25854e-05  1.95017e-05     -11.9018 
           0      0.73113 -5.27979e-05  1.92157e-05      -11.902 
           0     0.769107 -5.30571e-05   1.8957e-05     -11.9022 
           0     0.808042 -5.33946e-05  1.86979e-05     -11.9024 
           0     0.847939   -5.374e-05  1.84704e-05     -11.9026 
           0     0.888797 -5.41794e-05  1.82436e-05     -11.9028 
           0      0.93062 -5.47003e-05  1.80326e-05      -11.903 
           0       0.9734 -5.52865e-05  1.78447e-05     -11.9032 
           0      1.01714 -5.59232e-05  1.76772e-05     -11.9034 
           0      1.06185  -5.6598e-05  1.75213e-05     -11.9036 
           0      1.10751 -5.73043e-05  1.73675e-05     -11.9037 
           0      1.15414 -5.80447e-05   1.7215e-05     -11.9039 
           0      1.20173 -5.88356e-05  1.70861e-05     -11.9041 
           0      1.25028 -5.96091e-05  1.69115e-05     -11.9043 
           0      1.29979 -6.03621e-05  1.67478e-05     -11.9045 
           0      1.35026 -6.10995e-05  1.65992e-05     -11.9046 
           0       1.4017 -6.18187e-05   1.6464e-05     -11.9048 
           0      1.45409 -6.25157e-05  1.63406e-05      -11.905 
           0      1.50745 -6.31845e-05  1.62186e-05     -11.9052 
           0      1.56176 -6.38219e-05  1.60671e-05     -11.9053 
           0      1.61705 -6.44038e-05  1.58855e-05     -11.9055 
           0      1.67329 -6.49099e-05  1.57629e-05     -11.9057 
           0      1.73049 -6.53789e-05  1.56002e-05     -11.9058 
           0      1.78865 -6.57474e-05  1.54329e-05      -11.906 
           0      1.84778 -6.59648e-05  1.52772e-05     -11.9062 
           0      1.90786 -6.59984e-05  1.51365e-05     -11.9063 
           0      1.96891 -6.58404e-05  1.50071e-05     -11.9065 
           0      2.03092 -6.55171e-05  1.48819e-05     -11.9066 
           0      2.09389 -6.50819e-05  1.47497e-05     -11.9068 
           0      2.15782 -6.44009e-05  1.45786e-05     -11.9069 
           0      2.22272 -6.35578e-05  1.44019e-05     -11.9071 
           0      2.28857 -6.26427e-05  1.42315e-05     -11.9072 
           0      2.35539 -6.17574e-05  1.40453e-05     -11.9074 
           0      2.42317 -6.09992e-05  1.37996e-05     -11.9075 
           0      2.49191 -6.04476e-05  1.34456e-05     -11.9077 
           0      2.56161 -6.01562e-05  1.29491e-05     -11.9078 
           0      2.63226 -6.01529e-05  1.23147e-05     -11.9079 
           0      2.70389 -6.05029e-05  1.15596e-05     -11.9081 
           0      2.77648 -6.12964e-05  1.05921e-05     -11.9082 
           0      2.85002 -6.23161e-05  9.53254e-06     -11.9083 
           0      2.92453 -6.34646e-05  8.39373e-06     -11.9085 
           0            3 -6.46483e-05  7.19104e-06     -11.9086 
          20            0            0            0     -11.6363 
          20      0.00048 -5.07073e-06 -1.04612e-10     -11.6363 
          20     0.001922   -1.793e-05  -7.2529e-10     -11.6363 
          20     0.004326 -3.26213e-05 -2.71252e-09     -11.6363 
          20      0.00769 -4.25592e-05 -7.27144e-09     -11.6363 
          20     0.012017 -4.38162e-05 -1.57287e-08     -11.6363 
          20     0.017304 -3.69197e-05 -2.92897e-08     -11.6363 
          20     0.023553 -2.60695e-05  -4.8899e-08     -11.6363 
          20     0.030763 -1.59259e-05 -7.51282e-08     -11.6363 
          20     0.038936 -7.93993e-06 -1.08097e-07     -11.6363 
          20     0.048069  5.67754e-07 -1.47228e-07     -11.6363 
          20     0.058163  1.22685e-05 -1.90888e-07     -11.6363 
          20     0.069219  2.34189e-05 -2.35951e-07     -11.6363 
          20     0.081236   3.0561e-05 -2.78009e-07     -11.6363 
          20     0.094215   4.0676e-05 -3.12583e-07     -11.6363 
          20     0.108155  4.89062e-05 -3.33542e-07     -11.6363 
          20     0.123056  5.63017e-05  -3.3421e-07     -11.6363 
          20     0.138918  6.27878e-05 -3.07598e-07     -11.6363 
          20     0.155744  6.82761e-05 -2.46691e-07     -11.6363 
          20     0.173529  7.26868e-05 -1.44808e-07     -11.6363 
          20     0.192276  7.59899e-05   4.1322e-09     -11.6363 
          20     0.211984  7.82226e-05  2.05241e-07     -11.6363 
          20     0.232655  7.94576e-05  4.62345e-07     -11.6363 
          20     0.254285  7.96876e-05  7.77302e-07     -11.6363 
          20     0.276877  7.90855e-05  1.15191e-06     -11.6363 
          20     0.300431  7.77068e-05   1.5855e-06     -11.6363 
          20     0.324946  7.56691e-05  2.07475e-06     -11.6363 
          20     0.350424  7.30865e-05  2.61605e-06     -11.6363 
          20     0.376861   7.0067e-05  3.20539e-06     -11.6363 
          20      0.40426  6.67094e-05  3.83856e-06     -11.6363 
          20     0.432621  6.31045e-05  4.51103e-06     -11.6363 
          20     0.461945  5.93361e-05  5.21816e-06     -11.6363 
          20     0.492228  5.54838e-05  5.95535e-06     -11.6363 
          20     0.523472  5.16237e-05  6.71911e-06     -11.6363 
          20     0.555678  4.78283e-05  7.50812e-06     -11.6363 
          20     0.588845  4.41613e-05  8.32536e-06     -11.6363 
          20     0.622976  4.06248e-05  9.17693e-06     -11.6363 
          20     0.658066  3.73201e-05  1.00463e-05     -11.6363 
          20     0.694117  3.42759e-05  1.09366e-05     -11.6363 
          20      0.73113  3.14023e-05  1.18515e-05     -11.6363 
          20     0.769107   2.8612e-05  1.27904e-05     -11.6363 
          20     0.808042  2.58234e-05  1.37488e-05     -11.6363 
          20     0.847939  2.29623e-05  1.47189e-05     -11.6363 
          20     0.888797  1.99664e-05   1.5691e-05     -11.6363 
          20      0.93062  1.67864e-05  1.66539e-05     -11.6363 
          20       0.9734  1.33898e-05  1.75969e-05     -11.6363 
          20      1.01714  9.76073e-06  1.85106e-05     -11.6362 
          20      1.06185  5.90172e-06  1.93885e-05     -11.6362 
          20      1.10751  1.83268e-06  2.02273e-05     -11.6362 
          20      1.15414 -2.41109e-06  2.10281e-05     -11.6362 
          20      1.20173 -6.78154e-06  2.17947e-05     -11.6362 
          20      1.25028 -1.12259e-05  2.25332e-05     -11.6362 
          20      1.29979 -1.56943e-05  2.32478e-05     -11.6362 
          20      1.35026 -2.01527e-05  2.39361e-05     -11.6362 
          20       1.4017 -2.45972e-05  2.45803e-05     -11.6362 
          20      1.45409 -2.90775e-05  2.51364e-05     -11.6362 
          20      1.50745 -3.37212e-05  2.55238e-05     -11.6362 
          20      1.56176 -3.84054e-05  2.60307e-05     -11.6362 
          20      1.61705 -4.28852e-05  2.64715e-05     -11.6362 
          20      1.67329 -4.71761e-05  2.68493e-05     -11.6362 
          20      1.73049 -5.12965e-05  2.71659e-05     -11.6362 
          20      1.78865 -5.52649e-05  2.74214e-05     -11.6362 
          20      1.84778 -5.91003e-05  2.76153e-05     -11.6361 
          20      1.90786 -6.28198e-05  2.77459e-05     -11.6361 
          20      1.96891 -6.64401e-05  2.78113e-05     -11.6361 
          20      2.03092 -6.99744e-05  2.78098e-05     -11.6361 
          20      2.09389 -7.34329e-05  2.77398e-05     -11.6361 
          20      2.15782 -7.68202e-05  2.76008e-05     -11.6361 
          20      2.22272 -8.01363e-05   2.7394e-05     -11.6361 
          20      2.28857 -8.33745e-05  2.71222e-05     -11.6361 
          20      2.35539 -8.65213e-05  2.67907e-05     -11.6361 
          20      2.42317 -8.95557e-05  2.64076e-05      -11.636 
          20      2.49191 -9.24485e-05  2.59843e-05      -11.636 
          20      2.56161 -9.51631e-05  2.55354e-05      -11.636 
          20      2.63226  -9.7656e-05   2.5079e-05      -11.636 
          20      2.70389 -9.98772e-05  2.46363e-05      -11.636 
          20      2.77648 -0.000101772  2.42318e-05      -11.636 
          20      2.85002 -0.000103283  2.38919e-05      -11.636 
          20      2.92453 -0.000104355  2.36442e-05     -11.6359 
          20            3 -0.000104936  2.35161e-05     -11.6359 
          40            0            0            0     -11.3691 
          40      0.00048 -4.27459e-06 -1.50209e-11     -11.3691 
          40     0.001922 -1.49266e-05  1.14071e-10     -11.3691 
          40     0.004326 -2.64709e-05  9.53381e-10     -11.3691 
          40      0.00769  -3.2874e-05  3.57655e-09     -11.3691 
          40     0.012017 -3.06018e-05   9.7322e-09     -11.3691 
          40     0.017304 -2.02955e-05  2.20007e-08     -11.3691 
          40     0.023553 -6.02835e-06  4.39463e-08     -11.3691 
          40     0.030763    7.684e-06  8.01916e-08     -11.3691 
          40     0.038936  1.93093e-05  1.36489e-07     -11.3691 
          40     0.048069  3.11601e-05  2.19701e-07     -11.3691 
          40     0.058163  4.55572e-05  3.37888e-07     -11.3691 
          40     0.069219  5.88752e-05  5.00275e-07     -11.3691 
          40     0.081236  6.77827e-05  7.16924e-07     -11.3691 
          40     0.094215  7.86936e-05  9.98015e-07     -11.3691 
          40     0.108155  8.70457e-05  1.35402e-06     -11.3691 
          40     0.123056  9.38116e-05  1.79523e-06     -11.3691 
          40     0.138918  9.89547e-05  2.33109e-06     -11.3691 
          40     0.155744  0.000102459  2.96999e-06     -11.3691 
          40     0.173529  0.000104349  3.71861e-06     -11.3691 
          40     0.192276  0.000104715  4.58238e-06     -11.3691 
          40     0.211984   0.00010373  5.56486e-06     -11.3691 
          40     0.232655  0.000101608  6.66778e-06     -11.3691 
          40     0.254285   9.8494e-05   7.8899e-06     -11.3691 
          40     0.276877  9.47002e-05   9.2312e-06     -11.3691 
          40     0.300431   9.0422e-05  1.06881e-05     -11.3691 
          40     0.324946  8.58989e-05  1.22549e-05     -11.3691 
          40     0.350424  8.13551e-05  1.39261e-05     -11.3691 
          40     0.376861  7.69925e-05  1.56959e-05     -11.3691 
          40      0.40426  7.29806e-05  1.75586e-05     -11.3691 
          40     0.432621  6.94537e-05  1.95074e-05     -11.3691 
          40     0.461945  6.65075e-05  2.15347e-05     -11.3691 
          40     0.492228  6.41985e-05   2.3631e-05     -11.3691 
          40     0.523472  6.25437e-05  2.57865e-05     -11.3691 
          40     0.555678  6.15195e-05  2.79919e-05     -11.3691 
          40     0.588845  6.10584e-05  3.02412e-05     -11.3691 
          40     0.622976  6.10267e-05  3.25306e-05     -11.3691 
          40     0.658066  6.13361e-05  3.48267e-05     -11.3691 
          40     0.694117  6.18232e-05   3.7121e-05     -11.3691 
          40      0.73113  6.22755e-05  3.94071e-05     -11.3691 
          40     0.769107  6.25011e-05  4.16763e-05     -11.3691 
          40     0.808042  6.23348e-05  4.39173e-05     -11.3691 
          40     0.847939  6.16425e-05  4.61179e-05     -11.3691 
          40     0.888797  6.03251e-05  4.82652e-05     -11.3691 
          40      0.93062  5.83216e-05  5.03471e-05     -11.3691 
          40       0.9734  5.56102e-05  5.23521e-05     -11.3691 
          40      1.01714   5.2207e-05  5.42721e-05     -11.3691 
          40      1.06185  4.81642e-05  5.61017e-05     -11.3691 
          40      1.10751  4.35643e-05  5.78394e-05     -11.3691 
          40      1.15414  3.85126e-05  5.94874e-05     -11.3691 
          40      1.20173  3.31279e-05  6.10506e-05     -11.3691 
          40      1.25028  2.75269e-05  6.25354e-05     -11.3691 
          40      1.29979  2.18082e-05  6.39462e-05     -11.3691 
          40      1.35026  1.60308e-05  6.52807e-05     -11.3691 
          40       1.4017  1.01921e-05   6.6522e-05     -11.3691 
          40      1.45409  4.19618e-06    6.763e-05     -11.3691 
          40      1.50745 -2.14848e-06   6.8533e-05     -11.3691 
          40      1.56176 -7.53608e-06   6.9516e-05     -11.3691 
          40      1.61705 -1.32154e-05  7.03495e-05     -11.3691 
          40      1.67329 -1.91041e-05  7.10294e-05     -11.3691 
          40      1.73049 -2.51224e-05  7.15538e-05     -11.3691 
          40      1.78865 -3.11922e-05  7.19229e-05     -11.3691 
          40      1.84778 -3.72384e-05   7.2139e-05     -11.3691 
          40      1.90786 -4.31876e-05  7.22068e-05     -11.3691 
          40      1.96891 -4.89719e-05  7.21327e-05     -11.3691 
          40      2.03092 -5.45274e-05  7.19252e-05     -11.3691 
          40      2.09389 -5.97952e-05  7.15947e-05     -11.3691 
          40      2.15782 -6.47209e-05  7.11531e-05     -11.3691 
          40      2.22272 -6.92573e-05  7.06137e-05      -11.369 
          40      2.28857 -7.33627e-05  6.99909e-05      -11.369 
          40      2.35539 -7.70025e-05  6.92998e-05      -11.369 
          40      2.42317 -8.01489e-05  6.85561e-05      -11.369 
          40      2.49191  -8.2781e-05  6.77755e-05      -11.369 
          40      2.56161 -8.48859e-05  6.69732e-05      -11.369 
          40      2.63226 -8.64585e-05  6.61638e-05      -11.369 
          40      2.70389 -8.75018e-05  6.53604e-05      -11.369 
          40      2.77648 -8.80267e-05  6.45746e-05      -11.369 
          40      2.85002 -8.80534e-05  6.38157e-05      -11.369 
          40      2.92453  -8.7611e-05  6.30905e-05      -11.369 
          40            3 -8.67378e-05  6.24025e-05      -11.369 
          60            0           -0           -0     -11.1156 
          60      0.00048 -4.35654e-06  1.01149e-12     -11.1156 
          60     0.001922  -1.5332e-05  2.29086e-10     -11.1156 
          60     0.004326 -2.76321e-05  1.37911e-09     -11.1156 
          60      0.00769 -3.54213e-05  4.66423e-09     -11.1156 
          60     0.012017  -3.5259e-05  1.18879e-08     -11.1156 
          60     0.017304 -2.77048e-05  2.54888e-08     -11.1156 
          60     0.023553 -1.66102e-05  4.85896e-08     -11.1156 
          60     0.030763 -6.23868e-06  8.49764e-08     -11.1156 
          60     0.038936  2.02534e-06  1.39092e-07     -11.1156 
          60     0.048069  1.05059e-05  2.15949e-07     -11.1156 
          60     0.058163  2.15375e-05   3.2115e-07     -11.1156 
          60     0.069219  3.17351e-05  4.60821e-07     -11.1156 
          60     0.081236  3.79922e-05  6.41382e-07     -11.1156 
          60     0.094215  4.65671e-05  8.69121e-07     -11.1156 
          60     0.108155  5.31444e-05  1.15029e-06     -11.1156 
          60     0.123056  5.87142e-05  1.49087e-06     -11.1156 
          60     0.138918  6.32733e-05   1.8962e-06     -11.1156 
          60     0.155744  6.68144e-05  2.37094e-06     -11.1156 
          60     0.173529  6.93432e-05  2.91869e-06     -11.1156 
          60     0.192276  7.09081e-05  3.54239e-06     -11.1156 
          60     0.211984  7.16141e-05    4.244e-06     -11.1156 
          60     0.232655  7.15912e-05  5.02458e-06     -11.1156 
          60     0.254285  7.08902e-05  5.88354e-06     -11.1156 
          60     0.276877  6.97176e-05  6.82152e-06     -11.1156 
          60     0.300431   6.8168e-05  7.83714e-06     -11.1156 
          60     0.324946   6.6384e-05  8.92798e-06     -11.1156 
          60     0.350424   6.4504e-05  1.00921e-05     -11.1156 
          60     0.376861  6.26587e-05  1.13276e-05     -11.1156 
          60      0.40426  6.09654e-05  1.26329e-05     -11.1156 
          60     0.432621   5.9527e-05   1.4006e-05     -11.1156 
          60     0.461945  5.84287e-05   1.5444e-05     -11.1156 
          60     0.492228  5.77374e-05  1.69433e-05     -11.1156 
          60     0.523472  5.74983e-05  1.84997e-05     -11.1156 
          60     0.555678   5.7732e-05   2.0109e-05     -11.1156 
          60     0.588845  5.84255e-05  2.17689e-05     -11.1156 
          60     0.622976  5.94897e-05  2.34768e-05     -11.1156 
          60     0.658066  6.09234e-05  2.52126e-05     -11.1156 
          60     0.694117  6.26273e-05  2.69708e-05     -11.1156 
          60      0.73113  6.43944e-05  2.87438e-05     -11.1156 
          60     0.769107  6.60262e-05  3.05217e-05     -11.1156 
          60     0.808042  6.73391e-05  3.22923e-05     -11.1156 
          60     0.847939  6.81717e-05  3.40424e-05     -11.1156 
          60     0.888797  6.83904e-05  3.57583e-05     -11.1156 
          60      0.93062  6.78955e-05  3.74267e-05     -11.1156 
          60       0.9734   6.6626e-05  3.90353e-05     -11.1156 
          60      1.01714  6.45624e-05  4.05743e-05     -11.1156 
          60      1.06185  6.17288e-05  4.20368e-05     -11.1156 
          60      1.10751  5.81908e-05  4.34194e-05     -11.1156 
          60      1.15414  5.40514e-05  4.47227e-05     -11.1156 
          60      1.20173  4.94428e-05    4.595e-05     -11.1156 
          60      1.25028  4.45117e-05  4.71076e-05     -11.1156 
          60      1.29979  3.93996e-05   4.8201e-05     -11.1156 