Variables = x, y, u, v, p

Zone, I=416, F=POINT
         -50            0            0            0      116.117 
         -50     0.013333  0.000405671  9.35347e-08      116.117 
         -50     0.053333  0.000359061  3.02451e-07      116.117 
         -50         0.12   0.00033996  4.82055e-07      116.117 
         -50     0.213332  0.000335148  3.26864e-07      116.117 
         -50     0.333332  0.000339176 -2.66356e-07      116.117 
         -50         0.48  0.000343616 -9.49186e-07      116.116 
         -50     0.653331  0.000346306 -2.88748e-06      116.116 
         -50     0.853332  0.000348826 -3.53924e-06      116.115 
         -50         1.08  0.000352806 -4.15056e-06      116.115 
         -50      1.33333  0.000356356 -3.92418e-06      116.114 
         -50      1.61333  0.000359669 -2.95328e-06      116.112 
         -50         1.92  0.000363706 -4.27849e-07       116.11 
         -50      2.25333  0.000375707  3.70951e-06      116.107 
         -50      2.61333  0.000388447  7.31947e-06      116.104 
         -50            3  0.000393146  1.08707e-05        116.1 
         -25            0  3.38127e-19  1.52385e-23      111.539 
         -25     0.013333  0.000297517   3.5857e-08      111.539 
         -25     0.053333  0.000262855  1.23128e-07      111.539 
         -25         0.12  0.000246135  2.07979e-07      111.539 
         -25     0.213332  0.000237233  1.42817e-07      111.539 
         -25     0.333332  0.000233638 -2.21138e-07      111.539 
         -25         0.48  0.000230691 -1.01109e-06      111.539 
         -25     0.653331  0.000227304 -2.04362e-06      111.539 
         -25     0.853332   0.00022556 -3.29585e-06      111.539 
         -25         1.08  0.000228514 -4.45327e-06      111.539 
         -25      1.33333  0.000235372 -5.27399e-06      111.538 
         -25      1.61333  0.000241964 -5.82902e-06      111.538 
         -25         1.92   0.00025165 -5.01007e-06      111.537 
         -25      2.25333  0.000256758 -4.09189e-06      111.536 
         -25      2.61333  0.000261103 -1.19391e-06      111.535 
         -25            3  0.000272356   6.0601e-06      111.533 
           0            0            0            0      107.746 
           0     0.013333  0.000847985 -0.000505271      107.751 
           0     0.053333  0.000503388 -0.000265193      107.758 
           0         0.12  0.000391482 -0.000177386      107.766 
           0     0.213332  0.000345306 -0.000136846      107.774 
           0     0.333332  0.000324251 -0.000111508      107.783 
           0         0.48  0.000308591 -9.24792e-05      107.792 
           0     0.653331  0.000296659 -7.79999e-05      107.801 
           0     0.853332  0.000285096 -6.66831e-05      107.809 
           0         1.08  0.000272397 -5.76751e-05      107.818 
           0      1.33333  0.000259813 -5.02837e-05      107.826 
           0      1.61333  0.000248789 -4.41317e-05      107.834 
           0         1.92  0.000239134 -3.89054e-05      107.841 
           0      2.25333  0.000232661 -3.40406e-05      107.848 
           0      2.61333  0.000226926 -3.08259e-05      107.855 
           0            3  0.000214256 -3.10287e-05      107.861 
          20            0  9.47931e-05  5.16814e-05      105.511 
          20     0.013333  8.27636e-05  5.26299e-05      105.511 
          20     0.053333  4.52044e-05  5.56186e-05      105.511 
          20         0.12  -2.1531e-05  6.11441e-05      105.511 
          20     0.213332 -0.000119651  7.02623e-05      105.511 
          20     0.333332 -0.000241052  8.48424e-05      105.511 
          20         0.48 -0.000351536  0.000107316      105.511 
          20     0.653331 -0.000402899  0.000138558      105.511 
          20     0.853332 -0.000382736  0.000175706       105.51 
          20         1.08 -0.000318979  0.000213004       105.51 
          20      1.33333 -0.000238505  0.000244745       105.51 
          20      1.61333 -0.000146788  0.000267095      105.509 
          20         1.92 -5.20724e-05  0.000277489      105.509 
          20      2.25333  3.32864e-05  0.000275682      105.508 
          20      2.61333  9.96915e-05  0.000264035      105.507 
          20            3   0.00014847  0.000246334      105.506 
          40            0           -0           -0      103.241 
          40     0.013333  0.000548733  1.09679e-06      103.241 
          40     0.053333   0.00100321  1.68275e-05      103.241 
          40         0.12  0.000848941  8.06214e-05      103.241 
          40     0.213332   9.8379e-05  0.000228658      103.241 
          40     0.333332 -0.000505327  0.000473366      103.241 
          40         0.48 -0.000968898  0.000776837      103.241 
          40     0.653331  -0.00187482   0.00107685      103.241 
          40     0.853332  -0.00239135   0.00139423       103.24 
          40         1.08  -0.00207101   0.00173747       103.24 
          40      1.33333   -0.0014714    0.0020408      103.239 
          40      1.61333 -0.000876843   0.00224712      103.239 
          40         1.92  -0.00033885   0.00232966      103.238 
          40      2.25333  9.13966e-05    0.0022873      103.237 
          40      2.61333   0.00037539   0.00214422      103.235 
          40            3  0.000521829   0.00193985      103.234 
          60            0           -0           -0      100.931 
          60     0.013333  0.000323047  1.29558e-06      100.931 
          60     0.053333   0.00029028  1.86827e-05      100.931 
          60         0.12 -0.000331989   7.8993e-05      100.931 
          60     0.213332  -0.00136295  0.000193382      100.931 
          60     0.333332   -0.0022021  0.000348337      100.931 
          60         0.48  -0.00252688  0.000531565      100.931 
          60     0.653331  -0.00225568  0.000754821      100.931 
          60     0.853332  -0.00147138   0.00103177      100.931 
          60         1.08  -0.00065019   0.00133365      100.931 
          60      1.33333 -0.000141871   0.00160564      100.931 
          60      1.61333  0.000143538   0.00180452      100.931 
          60         1.92  0.000482652    0.0019001      100.931 
          60      2.25333  0.000666176   0.00189047      100.931 
          60      2.61333  0.000728208   0.00179386      100.931 
          60            3  0.000768677   0.00163837      100.931 
          80            0           -0           -0       98.734 
          80     0.013333  0.000182458  6.50263e-07       98.734 
          80     0.053333 -3.29467e-05  9.17703e-06       98.734 
          80         0.12 -0.000545881   3.7699e-05       98.734 
          80     0.213332  -0.00119362  8.93542e-05       98.734 
          80     0.333332  -0.00167484  0.000155281       98.734 
          80         0.48  -0.00187169  0.000227513       98.734 
          80     0.653331  -0.00175482  0.000310612       98.734 
          80     0.853332  -0.00123442   0.00041731       98.734 
          80         1.08 -0.000475025  0.000544627       98.734 
          80      1.33333  3.79213e-05   0.00066474      98.7339 
          80      1.61333  0.000231199  0.000752963      98.7339 
          80         1.92  0.000417135  0.000801656      98.7339 
          80      2.25333  0.000550165  0.000809157      98.7338 
          80      2.61333  0.000620146  0.000779298      98.7338 
          80            3  0.000634219  0.000721925      98.7337 
         100            0           -0           -0      96.5876 
         100     0.013333  7.32757e-05  4.49974e-07      96.5876 
         100     0.053333     -0.00035  6.08562e-06      96.5876 
         100         0.12 -0.000958458  2.31466e-05      96.5876 
         100     0.213332  -0.00148053  4.87111e-05      96.5876 
         100     0.333332  -0.00169222  7.17379e-05      96.5876 
         100         0.48  -0.00162505  8.63334e-05      96.5876 
         100     0.653331  -0.00136242  9.89725e-05      96.5876 
         100     0.853332 -0.000906265  0.000119536      96.5876 
         100         1.08 -0.000441173   0.00014253      96.5876 
         100      1.33333 -0.000189426  0.000155058      96.5876 
         100      1.61333  -2.3328e-06  0.000156534      96.5876 
         100         1.92  0.000246815  0.000151634      96.5876 
         100      2.25333  0.000443306  0.000140893      96.5875 
         100      2.61333  0.000558247  0.000124556      96.5875 
         100            3  0.000615805  0.000105605      96.5875 
         150            0            0            0      91.3328 
         150     0.013333  9.12668e-05  1.23781e-08      91.3328 
         150     0.053333 -0.000202973    1.041e-07      91.3328 
         150         0.12 -0.000540819 -2.16422e-07      91.3328 
         150     0.213332 -0.000783111 -3.49055e-06      91.3328 
         150     0.333332 -0.000840791 -1.43678e-05      91.3328 
         150         0.48  -0.00074695 -3.66583e-05      91.3328 
         150     0.653331 -0.000606959 -7.11782e-05      91.3328 
         150     0.853332  -0.00051538 -0.000117462      91.3328 
         150         1.08 -0.000491172 -0.000173702      91.3328 
         150      1.33333 -0.000427831 -0.000231764      91.3328 
         150      1.61333 -0.000263017 -0.000282323      91.3328 
         150         1.92 -7.52726e-05 -0.000321157      91.3328 
         150      2.25333  9.06317e-05 -0.000346229      91.3328 
         150      2.61333  0.000223443 -0.000356681      91.3328 
         150            3  0.000323904 -0.000352633      91.3327 
         200            0           -0           -0      86.1456 
         200     0.013333   0.00020534  1.34163e-07      86.1456 
         200     0.053333  0.000173711  2.02048e-06      86.1456 
         200         0.12  5.36646e-05  9.19477e-06      86.1456 
         200     0.213332 -0.000176382  2.48036e-05      86.1456 
         200     0.333332 -0.000440801  4.92316e-05      86.1456 
         200         0.48 -0.000646711  8.01657e-05      86.1456 
         200     0.653331 -0.000750742  0.000114865      86.1456 
         200     0.853332 -0.000753419  0.000151817      86.1456 
         200         1.08  -0.00066349   0.00019069      86.1456 
         200      1.33333 -0.000508004  0.000230607      86.1456 
         200      1.61333  -0.00033779   0.00026749      86.1456 
         200         1.92 -0.000149153  0.000296776      86.1456 
         200      2.25333  2.87922e-05  0.000316004      86.1456 
         200      2.61333  0.000181689  0.000323535      86.1456 
         200            3  0.000302396  0.000319311      86.1456 
         250            0  3.25944e-19  7.38795e-26      80.9811 
         250     0.013333  3.79176e-05 -2.18588e-08      80.9811 
         250     0.053333 -0.000359289 -7.09698e-07      80.9811 
         250         0.12  -0.00072824 -5.63026e-06      80.9811 
         250     0.213332 -0.000850393 -2.21278e-05      80.9811 
         250     0.333332  -0.00070838 -5.64799e-05      80.9811 
         250         0.48 -0.000478142  -0.00010841      80.9811 
         250     0.653331 -0.000315782  -0.00017181      80.9811 
         250     0.853332 -0.000227052 -0.000238491      80.9811 
         250         1.08 -0.000134294 -0.000301604      80.9811 
         250      1.33333 -2.35219e-05 -0.000358349      80.9811 
         250      1.61333  7.59218e-05 -0.000408035      80.9811 
         250         1.92   0.00016651 -0.000446376      80.9811 
         250      2.25333  0.000244884 -0.000469356      80.9811 
         250      2.61333  0.000304221 -0.000475691      80.9811 
         250            3  0.000342434 -0.000465453      80.9811 
         300            0           -0           -0      75.8241 
         300     0.013333 -8.23683e-05 -3.13862e-07      75.8241 
         300     0.053333 -0.000701041 -5.25875e-06      75.8241 
         300         0.12  -0.00111788 -2.70718e-05      75.8241 
         300     0.213332 -0.000996794 -8.14769e-05      75.8241 
         300     0.333332 -0.000477014 -0.000176031      75.8241 
         300         0.48  2.89403e-05  -0.00030462      75.8241 
         300     0.653331  0.000255458 -0.000454656      75.8241 
         300     0.853332  0.000224137 -0.000613777      75.8241 
         300         1.08  0.000143667 -0.000768516      75.8241 
         300      1.33333  0.000174399 -0.000906074      75.8241 
         300      1.61333   0.00025588  -0.00102049      75.8241 
         300         1.92  0.000301111  -0.00110567      75.8241 
         300      2.25333  0.000330005  -0.00115373      75.8241 
         300      2.61333  0.000347223  -0.00116116      75.8241 
         300            3  0.000347507  -0.00112837      75.8241 
         350            0            0            0      70.6682 
         350     0.013333 -0.000325314  8.60573e-08      70.6682 
         350     0.053333  -0.00167956  3.35362e-07      70.6682 
         350         0.12  -0.00321598 -4.56284e-06      70.6682 
         350     0.213332  -0.00424644 -3.01453e-05      70.6682 
         350     0.333332  -0.00451992 -9.33019e-05      70.6682 
         350         0.48  -0.00433806 -0.000198953      70.6682 
         350     0.653331  -0.00412218 -0.000338396      70.6682 
         350     0.853332  -0.00399002 -0.000494513      70.6682 
         350         1.08  -0.00371224 -0.000645411      70.6682 
         350      1.33333  -0.00310944 -0.000774413      70.6682 
         350      1.61333  -0.00234111  -0.00088011      70.6682 
         350         1.92  -0.00154576 -0.000961692      70.6682 
         350      2.25333 -0.000754892  -0.00101245      70.6683 
         350      2.61333 -8.95876e-06  -0.00102865      70.6683 
         350            3  0.000631216   -0.0010093      70.6684 
         400            0           -0           -0      65.5153 
         400     0.013333  0.000150615  2.28692e-08      65.5153 
         400     0.053333  2.19727e-05  1.69481e-07      65.5153 
         400         0.12  -9.7117e-05 -2.52841e-07      65.5153 
         400     0.213332 -0.000149901 -3.27475e-06      65.5153 
         400     0.333332 -0.000139642 -1.03296e-05      65.5153 
         400         0.48 -0.000128943  -2.0584e-05      65.5153 
         400     0.653331  -0.00016456  -3.1924e-05      65.5153 
         400     0.853332  -0.00022846 -4.15246e-05      65.5153 
         400         1.08 -0.000230753 -4.45686e-05      65.5153 
         400      1.33333 -0.000119303 -3.76124e-05      65.5153 
         400      1.61333  9.13743e-06 -2.45659e-05      65.5153 
         400         1.92  9.60623e-05 -1.06213e-05      65.5153 
         400      2.25333  0.000165374  3.38344e-06      65.5153 
         400      2.61333  0.000226935  1.68211e-05      65.5154 
         400            3  0.000275591  2.89484e-05      65.5154 
         450            0  2.04467e-19 -2.66079e-27      60.3612 
         450     0.013333  0.000151013   9.6202e-09      60.3612 
         450     0.053333  1.17513e-05  1.27193e-07      60.3612 
         450         0.12 -0.000164653  4.93574e-07      60.3612 
         450     0.213332 -0.000347072  1.13612e-06      60.3612 
         450     0.333332 -0.000497732  1.76565e-06      60.3612 
         450         0.48 -0.000593385  1.37231e-06      60.3612 
         450     0.653331 -0.000641195 -1.80795e-06      60.3612 
         450     0.853332 -0.000674892 -9.30197e-06      60.3612 
         450         1.08 -0.000699535  -2.0244e-05      60.3612 
         450      1.33333 -0.000658106 -3.05995e-05      60.3612 
         450      1.61333 -0.000532169   -3.752e-05      60.3612 
         450         1.92 -0.000380305 -4.19626e-05      60.3612 
         450      2.25333 -0.000219899 -4.47803e-05      60.3612 
         450      2.61333 -5.61664e-05 -4.58181e-05      60.3612 
         450            3    9.965e-05 -4.48977e-05      60.3612 
         500            0           -0           -0      55.2076 
         500     0.013333  0.000311882 -3.37071e-07      55.2076 
         500     0.053333  0.000685855 -4.80944e-06      55.2076 
         500         0.12   0.00134701  -1.9979e-05      55.2076 
         500     0.213332   0.00208806 -4.76188e-05      55.2076 
         500     0.333332   0.00261648 -8.15037e-05      55.2076 
         500         0.48   0.00280795 -0.000113368      55.2076 
         500     0.653331    0.0027459 -0.000140863      55.2076 
         500     0.853332   0.00252744 -0.000168468      55.2076 
         500         1.08   0.00217889 -0.000201165      55.2076 
         500      1.33333   0.00177569 -0.000237044      55.2076 
         500      1.61333   0.00142418 -0.000269107      55.2076 
         500         1.92   0.00108942  -0.00029392      55.2076 
         500      2.25333  0.000742541 -0.000310964      55.2076 
         500      2.61333  0.000394453 -0.000319054      55.2075 
         500            3  7.44113e-05 -0.000317215      55.2075 
         550            0           -0           -0      50.0511 
         550     0.013333 -9.03645e-05 -6.57675e-08      50.0511 
         550     0.053333 -0.000820692 -1.38768e-06      50.0511 
         550         0.12  -0.00160077 -8.83768e-06      50.0511 
         550     0.213332  -0.00207212 -3.13563e-05      50.0511 
         550     0.333332  -0.00213138 -7.68006e-05      50.0511 
         550         0.48  -0.00196166 -0.000146544      50.0511 
         550     0.653331  -0.00180925  -0.00023636      50.0511 
         550     0.853332  -0.00178623 -0.000339734      50.0511 
         550         1.08  -0.00180355 -0.000447103      50.0511 
         550      1.33333  -0.00166736 -0.000546354      50.0511 
         550      1.61333  -0.00134623 -0.000630794      50.0511 
         550         1.92 -0.000989204 -0.000700961      50.0511 
         550      2.25333 -0.000627354 -0.000754529      50.0511 
         550      2.61333 -0.000262745  -0.00078761      50.0511 
         550            3  8.55646e-05 -0.000797039      50.0511 
         600            0            0            0      44.8953 
         600     0.013333  3.03757e-05  3.07155e-08      44.8953 
         600     0.053333 -0.000410176  1.68321e-07      44.8953 
         600         0.12 -0.000890235 -1.23016e-06      44.8953 
         600     0.213332  -0.00116231 -9.69133e-06      44.8953 
         600     0.333332  -0.00111105 -3.22286e-05      44.8953 
         600         0.48 -0.000850607 -7.17175e-05      44.8953 
         600     0.653331 -0.000583196 -0.000124659      44.8953 
         600     0.853332 -0.000403714 -0.000183755      44.8953 
         600         1.08 -0.000257947 -0.000241294      44.8953 
         600      1.33333 -8.66542e-05 -0.000293334      44.8953 
         600      1.61333  5.87424e-05 -0.000341771      44.8953 
         600         1.92  0.000149302 -0.000387962      44.8953 
         600      2.25333  0.000225917 -0.000428193      44.8953 
         600      2.61333  0.000300424 -0.000459064      44.8953 
         600            3  0.000360601 -0.000478152      44.8954 
         650            0            0            0       39.739 
         650     0.013333  0.000393612  6.62256e-08       39.739 
         650     0.053333  0.000872211  1.21828e-06       39.739 
         650         0.12   0.00141229  6.93963e-06       39.739 
         650     0.213332   0.00176415   2.2892e-05       39.739 
         650     0.333332   0.00185739  5.36461e-05       39.739 
         650         0.48   0.00179945  9.98459e-05       39.739 
         650     0.653331   0.00174055  0.000159262       39.739 
         650     0.853332   0.00176276  0.000229042       39.739 
         650         1.08   0.00183554  0.000304662       39.739 
         650      1.33333   0.00181781  0.000377804       39.739 
         650      1.61333   0.00161905  0.000440666       39.739 
         650         1.92    0.0013441  0.000492379       39.739 
         650      2.25333   0.00105491   0.00053256      39.7389 
         650      2.61333  0.000760328  0.000559289      39.7389 
         650            3  0.000464751  0.000570179      39.7389 
         700            0           -0           -0      34.5804 
         700     0.013333  0.000156661  1.43158e-08      34.5804 
         700     0.053333  3.78712e-05   1.7949e-07      34.5804 
         700         0.12 -9.02134e-05  5.40004e-07      34.5804 
         700     0.213332 -0.000177098   4.1538e-07      34.5804 
         700     0.333332 -0.000179418 -1.73615e-06      34.5804 
         700         0.48   -9.941e-05 -7.37191e-06      34.5804 
         700     0.653331  2.45815e-05 -1.66902e-05      34.5804 
         700     0.853332  0.000150958 -2.88921e-05      34.5804 
         700         1.08   0.00024312 -4.37663e-05      34.5804 
         700      1.33333  0.000274171 -6.17713e-05      34.5804 
         700      1.61333  0.000268096 -8.15876e-05      34.5804 
         700         1.92   0.00027101 -0.000100493      34.5804 
         700      2.25333   0.00027694 -0.000117206      34.5804 
         700      2.61333   0.00027789 -0.000131011      34.5804 
         700            3  0.000274195 -0.000141218      34.5804 
         750            0           -0           -0      29.4226 
         750     0.013333  0.000372012 -4.85029e-07      29.4226 
         750     0.053333  0.000975607 -7.13197e-06      29.4226 
         750         0.12   0.00212263 -3.11408e-05      29.4226 
         750     0.213332   0.00358587  -7.9349e-05      29.4226 
         750     0.333332   0.00486684   -0.0001466      29.4226 
         750         0.48     0.005577 -0.000219305      29.4226 
         750     0.653331   0.00570004 -0.000286701      29.4226 
         750     0.853332   0.00543913  -0.00034735      29.4226 
         750         1.08    0.0049584 -0.000405648      29.4226 
         750      1.33333   0.00436225 -0.000463127      29.4226 
         750      1.61333   0.00375435 -0.000515544      29.4226 
         750         1.92   0.00314148 -0.000558607      29.4226 
         750      2.25333   0.00247176 -0.000590653      29.4225 
         750      2.61333   0.00174811 -0.000609944      29.4225 
         750            3    0.0010118  -0.00061435      29.4225 
         800            0  8.75731e-19  -1.6086e-26       24.261 
         800     0.013333  0.000785361  5.29754e-07       24.261 
         800     0.053333   0.00213018  8.56309e-06       24.261 
         800         0.12   0.00330832  4.28909e-05       24.261 
         800     0.213332   0.00350855  0.000128608       24.261 
         800     0.333332   0.00267099  0.000283233       24.261 
         800         0.48   0.00140479  0.000506243       24.261 
         800     0.653331   0.00038534  0.000783352       24.261 
         800     0.853332 -7.61093e-05   0.00109864       24.261 
         800         1.08 -3.56016e-05   0.00143909       24.261 
         800      1.33333  0.000212132   0.00178931       24.261 
         800      1.61333  0.000342285   0.00212947       24.261 
         800         1.92  0.000297502   0.00244266       24.261 
         800      2.25333  0.000215965   0.00271593       24.261 
         800      2.61333  0.000148659   0.00293465       24.261 
         800            3  8.28344e-05   0.00308397       24.261 
         850            0            0            0      19.0969 
         850     0.013333  -0.00030482  4.82151e-07      19.0969 
         850     0.053333  -0.00177762  6.65011e-06      19.0969 
         850         0.12  -0.00391667  2.61334e-05      19.0969 
         850     0.213332  -0.00610505  5.74193e-05      19.0969 
         850     0.333332  -0.00768129  8.69472e-05      19.0969 
         850         0.48  -0.00841534  9.94134e-05      19.0969 
         850     0.653331  -0.00855317  8.94359e-05      19.0969 
         850     0.853332  -0.00842531  6.38482e-05      19.0969 
         850         1.08  -0.00809777  3.74649e-05      19.0969 
         850      1.33333  -0.00742232  2.48886e-05      19.0969 
         850      1.61333  -0.00639549  3.05315e-05      19.0969 
         850         1.92  -0.00525927  4.54552e-05      19.0969 
         850      2.25333  -0.00408765  6.20926e-05       19.097 
         850      2.61333  -0.00286183  7.89911e-05       19.097 
         850            3  -0.00159951  9.62258e-05      19.0971 
         900            0  2.41689e-19 -9.92954e-27       13.938 
         900     0.013333   0.00025984 -2.03031e-07       13.938 
         900     0.053333  0.000454326 -2.81773e-06       13.938 
         900         0.12  0.000783303 -1.11418e-05       13.938 
         900     0.213332   0.00108252 -2.45727e-05       13.938 
         900     0.333332   0.00116854 -3.74742e-05       13.938 
         900         0.48   0.00102307 -4.45391e-05       13.938 
         900     0.653331  0.000789456 -4.65842e-05       13.938 
         900     0.853332   0.00057267 -5.06834e-05       13.938 
         900         1.08  0.000323491 -6.56866e-05       13.938 
         900      1.33333 -2.24944e-05 -9.54112e-05       13.938 
         900      1.61333 -0.000345712  -0.00013321       13.938 
         900         1.92 -0.000474889 -0.000167586       13.938 
         900      2.25333  -0.00048646 -0.000195444       13.938 
         900      2.61333 -0.000465528 -0.000216589      13.9379 
         900            3 -0.000430358 -0.000231181      13.9379 
         950            0  2.22674e-19  1.15641e-25      8.77373 
         950     0.013333 -0.000130193  6.69911e-07      8.77373 
         950     0.053333  -0.00122084  9.75281e-06      8.77373 
         950         0.12  -0.00309305  4.19594e-05      8.77373 
         950     0.213332  -0.00536364  0.000104965      8.77373 
         950     0.333332  -0.00729099  0.000189837      8.77373 
         950         0.48  -0.00834226   0.00027731      8.77373 
         950     0.653331   -0.0085371   0.00035367      8.77372 
         950     0.853332  -0.00819776  0.000419556      8.77372 
         950         1.08  -0.00753326  0.000485584      8.77372 
         950      1.33333  -0.00661139  0.000559332      8.77372 
         950      1.61333  -0.00559017  0.000636127      8.77373 
         950         1.92  -0.00464822  0.000703988      8.77374 
         950      2.25333  -0.00370433  0.000758633      8.77377 
         950      2.61333  -0.00269167  0.000798062      8.77381 
         950            3  -0.00162458  0.000820192      8.77387 
        1000            0           -0           -0      3.61296 
        1000     0.013333 -0.000599672 -3.52611e-07      3.61296 
        1000     0.053333  -0.00256651 -6.07001e-06      3.61296 
        1000         0.12  -0.00460162  -3.2742e-05      3.61296 
        1000     0.213332  -0.00565843 -0.000105245      3.61296 
        1000     0.333332  -0.00541644 -0.000245718      3.61296 
        1000         0.48  -0.00439821 -0.000459822      3.61296 
        1000     0.653331  -0.00338923 -0.000736189      3.61295 
        1000     0.853332  -0.00285804  -0.00105748      3.61295 
        1000         1.08  -0.00281903  -0.00140741      3.61295 
        1000      1.33333  -0.00294214   -0.0017673      3.61295 
        1000      1.61333  -0.00282165  -0.00211493      3.61295 
        1000         1.92   -0.0023787  -0.00243478      3.61296 
        1000      2.25333  -0.00183657  -0.00271904      3.61298 
        1000      2.61333  -0.00129761  -0.00295784        3.613 
        1000            3 -0.000748615    -0.003138      3.61303 
