Variables = x, y, u, v, p

Zone, I=416, F=POINT
         -50            0            0            0     -176.692 
         -50     0.013333 -0.000417666 -1.07616e-07     -176.692 
         -50     0.053333 -0.000387247 -2.88189e-07     -176.692 
         -50         0.12 -0.000388031  -4.8892e-07     -176.692 
         -50     0.213332 -0.000397264 -6.93982e-07     -176.691 
         -50     0.333332 -0.000408422 -8.68523e-07     -176.691 
         -50         0.48 -0.000416665 -1.27207e-06     -176.691 
         -50     0.653331   -0.0004205 -1.00766e-06      -176.69 
         -50     0.853332 -0.000419073 -1.29344e-06      -176.69 
         -50         1.08 -0.000414664 -1.90772e-06     -176.688 
         -50      1.33333 -0.000408188 -2.89031e-06     -176.687 
         -50      1.61333 -0.000397387 -4.34949e-06     -176.684 
         -50         1.92 -0.000388954 -5.82029e-06     -176.681 
         -50      2.25333 -0.000386975  -8.9407e-06     -176.677 
         -50      2.61333  -0.00038553 -1.07856e-05     -176.672 
         -50            3 -0.000379689 -7.72938e-06     -176.666 
         -25            0 -3.43481e-19 -2.05725e-23     -169.719 
         -25     0.013333 -0.000297369 -4.42977e-08     -169.719 
         -25     0.053333 -0.000252208 -1.34773e-07     -169.719 
         -25         0.12 -0.000227049 -1.14516e-07     -169.719 
         -25     0.213332  -0.00021761  4.41581e-07     -169.719 
         -25     0.333332 -0.000221739  1.89831e-06     -169.719 
         -25         0.48  -0.00022954  4.30962e-06     -169.719 
         -25     0.653331 -0.000235774  7.32537e-06     -169.719 
         -25     0.853332 -0.000242606  1.04193e-05     -169.718 
         -25         1.08 -0.000253199  1.31617e-05     -169.718 
         -25      1.33333 -0.000265618  1.51276e-05     -169.717 
         -25      1.61333 -0.000278424  1.63656e-05     -169.716 
         -25         1.92 -0.000289165  1.65173e-05     -169.715 
         -25      2.25333 -0.000298932  1.60213e-05     -169.714 
         -25      2.61333 -0.000302709  1.58947e-05     -169.712 
         -25            3  -0.00029792  1.55996e-05      -169.71 
           0            0            0            0     -163.943 
           0     0.013333 -0.000810543  0.000496454      -163.95 
           0     0.053333 -0.000526009  0.000261302     -163.961 
           0         0.12  -0.00044748   0.00018113     -163.973 
           0     0.213332 -0.000420211    0.0001432     -163.986 
           0     0.333332 -0.000402246    0.0001214     -163.999 
           0         0.48 -0.000379506  0.000106582     -164.013 
           0     0.653331 -0.000355815  9.64703e-05     -164.026 
           0     0.853332 -0.000331925  8.95003e-05     -164.039 
           0         1.08 -0.000309932  8.44259e-05     -164.052 
           0      1.33333  -0.00029124  8.01799e-05     -164.064 
           0      1.61333 -0.000273778  7.60215e-05     -164.076 
           0         1.92 -0.000258231   7.1315e-05     -164.087 
           0      2.25333  -0.00024979  6.55187e-05     -164.098 
           0      2.61333 -0.000252123  5.82652e-05     -164.108 
           0            3 -0.000255486  5.35037e-05     -164.118 
          20            0 -0.000116095 -0.000187307     -160.539 
          20     0.013333 -0.000147124 -0.000185214     -160.539 
          20     0.053333 -0.000242038 -0.000178175     -160.539 
          20         0.12 -0.000403753 -0.000163721     -160.539 
          20     0.213332 -0.000626636 -0.000137254     -160.539 
          20     0.333332 -0.000876898 -9.18126e-05     -160.539 
          20         0.48  -0.00108031 -1.97853e-05     -160.538 
          20     0.653331  -0.00116927  8.04768e-05     -160.538 
          20     0.853332  -0.00115721   0.00019976     -160.538 
          20         1.08  -0.00111491  0.000322308     -160.537 
          20      1.33333  -0.00106945  0.000433351     -160.537 
          20      1.61333  -0.00100621  0.000522436     -160.536 
          20         1.92 -0.000918271  0.000581429     -160.535 
          20      2.25333 -0.000808811  0.000607831     -160.534 
          20      2.61333 -0.000699604  0.000604891     -160.533 
          20            3  -0.00060748  0.000578206     -160.532 
          40            0           -0           -0     -157.083 
          40     0.013333  0.000361947  3.16012e-07     -157.083 
          40     0.053333   0.00175925  6.46914e-06     -157.083 
          40         0.12   0.00305746  3.61221e-05     -157.083 
          40     0.213332    0.0037561  0.000116077     -157.083 
          40     0.333332   0.00392427   0.00026266     -157.083 
          40         0.48   0.00361956  0.000462113     -157.082 
          40     0.653331   0.00304611  0.000699952     -157.082 
          40     0.853332   0.00273798  0.000997082     -157.082 
          40         1.08   0.00246314   0.00132389     -157.081 
          40      1.33333   0.00184412   0.00161194      -157.08 
          40      1.61333  0.000972976   0.00181279     -157.079 
          40         1.92  7.67436e-05   0.00190351     -157.078 
          40      2.25333 -0.000663995   0.00188297     -157.076 
          40      2.61333  -0.00114104   0.00177263     -157.074 
          40            3  -0.00134865   0.00160676     -157.072 
          60            0           -0           -0     -153.567 
          60     0.013333  0.000339394 -6.66811e-07     -153.567 
          60     0.053333   0.00185418 -7.96636e-06     -153.567 
          60         0.12   0.00366561 -2.35106e-05     -153.567 
          60     0.213332   0.00490867   -2.701e-05     -153.567 
          60     0.333332   0.00528963  1.07481e-05     -153.567 
          60         0.48   0.00527829  9.74737e-05     -153.567 
          60     0.653331   0.00525769  0.000206763     -153.567 
          60     0.853332   0.00501256  0.000294754     -153.567 
          60         1.08   0.00432159  0.000348148     -153.566 
          60      1.33333   0.00320888  0.000379535     -153.566 
          60      1.61333   0.00183873  0.000400393     -153.566 
          60         1.92  0.000379661  0.000404558     -153.566 
          60      2.25333 -0.000737567    0.0003913     -153.566 
          60      2.61333  -0.00142307  0.000368534     -153.566 
          60            3  -0.00180477  0.000335019     -153.566 
          80            0           -0           -0     -150.222 
          80     0.013333  0.000250598 -6.12742e-07     -150.222 
          80     0.053333   0.00153183 -7.49328e-06     -150.222 
          80         0.12   0.00312334 -2.34459e-05     -150.222 
          80     0.213332   0.00430692 -3.31937e-05     -150.222 
          80     0.333332   0.00476415 -1.31353e-05     -150.222 
          80         0.48    0.0048115  4.51505e-05     -150.222 
          80     0.653331   0.00477528  0.000123783     -150.222 
          80     0.853332   0.00439028  0.000179359     -150.222 
          80         1.08   0.00329463  0.000176335     -150.222 
          80      1.33333    0.0020158  0.000129504     -150.222 
          80      1.61333   0.00102435  8.28975e-05     -150.222 
          80         1.92   4.9099e-05  4.30364e-05     -150.222 
          80      2.25333 -0.000729715  8.64154e-06     -150.222 
          80      2.61333  -0.00124596 -1.59317e-05     -150.221 
          80            3  -0.00153008 -3.34932e-05     -150.221 
         100            0           -0           -0     -146.955 
         100     0.013333  4.80913e-05 -4.35837e-07     -146.955 
         100     0.053333  0.000780113 -5.52804e-06     -146.955 
         100         0.12   0.00172658 -1.88329e-05     -146.955 
         100     0.213332   0.00249563 -3.31676e-05     -146.955 
         100     0.333332   0.00287404  -3.5553e-05     -146.955 
         100         0.48   0.00297249 -2.14723e-05     -146.955 
         100     0.653331   0.00287783 -2.10606e-06     -146.955 
         100     0.853332   0.00239925 -3.45389e-07     -146.955 
         100         1.08   0.00154921 -2.45786e-05     -146.955 
         100      1.33333  0.000853943 -5.55079e-05     -146.955 
         100      1.61333  0.000409006 -7.60505e-05     -146.955 
         100         1.92 -9.39709e-05 -9.19901e-05     -146.955 
         100      2.25333 -0.000505097 -0.000105057     -146.955 
         100      2.61333 -0.000770564 -0.000112295     -146.955 
         100            3 -0.000928981 -0.000115512     -146.955 
         150            0            0            0     -138.957 
         150     0.013333 -0.000145839  6.99589e-08     -138.957 
         150     0.053333 -2.05637e-05  1.20197e-06     -138.957 
         150         0.12  2.34612e-05   6.3843e-06     -138.957 
         150     0.213332  -8.7062e-05  1.99433e-05     -138.957 
         150     0.333332 -0.000310992  4.45126e-05     -138.957 
         150         0.48 -0.000533274  7.85468e-05     -138.957 
         150     0.653331 -0.000679309  0.000117937     -138.957 
         150     0.853332 -0.000733148  0.000159709     -138.957 
         150         1.08 -0.000695298   0.00020298     -138.957 
         150      1.33333 -0.000605319  0.000245209     -138.957 
         150      1.61333 -0.000517283   0.00028111     -138.957 
         150         1.92 -0.000423142  0.000306049     -138.957 
         150      2.25333 -0.000321691  0.000318657     -138.957 
         150      2.61333 -0.000223582  0.000318586     -138.957 
         150            3 -0.000148854  0.000307011     -138.957 
         200            0           -0           -0     -131.063 
         200     0.013333  2.09162e-05  7.09614e-07     -131.063 
         200     0.053333  0.000403135  1.09036e-05     -131.063 
         200         0.12  0.000365739  5.04506e-05     -131.063 
         200     0.213332 -0.000259263  0.000137077     -131.063 
         200     0.333332  -0.00109583   0.00027203     -131.063 
         200         0.48  -0.00167299  0.000442534     -131.063 
         200     0.653331  -0.00180209   0.00063613     -131.063 
         200     0.853332  -0.00154887  0.000844279     -131.063 
         200         1.08  -0.00116617     0.001052     -131.063 
         200      1.33333 -0.000902839   0.00123824     -131.063 
         200      1.61333 -0.000719403   0.00138847     -131.063 
         200         1.92 -0.000490248   0.00149001     -131.063 
         200      2.25333 -0.000285648    0.0015336     -131.063 
         200      2.61333 -0.000119994   0.00151801     -131.063 
         200            3  1.13599e-05   0.00144892     -131.063 
         250            0 -3.38431e-19 -6.98548e-26     -123.203 
         250     0.013333 -5.67974e-05  5.09313e-07     -123.203 
         250     0.053333   0.00019294  7.66484e-06     -123.203 
         250         0.12  0.000173593  3.45613e-05     -123.203 
         250     0.213332 -0.000200865  9.17076e-05     -123.203 
         250     0.333332 -0.000692992  0.000178966     -123.203 
         250         0.48  -0.00102901  0.000288864     -123.203 
         250     0.653331   -0.0010977  0.000415817     -123.203 
         250     0.853332 -0.000906766  0.000557739     -123.203 
         250         1.08 -0.000586178  0.000707449     -123.203 
         250      1.33333 -0.000357184  0.000849087     -123.203 
         250      1.61333 -0.000259139  0.000968147     -123.203 
         250         1.92 -0.000163545   0.00105546     -123.203 
         250      2.25333 -8.67631e-05   0.00110412     -123.203 
         250      2.61333 -3.35334e-05   0.00111105     -123.203 
         250            3  2.31936e-06   0.00107791     -123.203 
         300            0           -0           -0     -115.355 
         300     0.013333 -0.000235176  2.84036e-07     -115.355 
         300     0.053333 -0.000386648   4.0971e-06     -115.355 
         300         0.12 -0.000743436  1.73511e-05     -115.355 
         300     0.213332  -0.00120582  4.26655e-05     -115.355 
         300     0.333332  -0.00158442  7.65762e-05     -115.355 
         300         0.48  -0.00177627  0.000113583     -115.355 
         300     0.653331  -0.00180054  0.000151703     -115.355 
         300     0.853332  -0.00168479  0.000193229     -115.355 
         300         1.08  -0.00144525  0.000239638     -115.355 
         300      1.33333  -0.00116942   0.00028645     -115.355 
         300      1.61333 -0.000924483  0.000326492     -115.355 
         300         1.92 -0.000665569   0.00035631     -115.355 
         300      2.25333 -0.000411419  0.000373983     -115.355 
         300      2.61333 -0.000181144   0.00037807     -115.355 
         300            3  1.04174e-05  0.000368669     -115.355 
         350            0            0            0      -107.51 
         350     0.013333 -0.000181905 -2.31801e-07      -107.51 
         350     0.053333  -4.8595e-05 -3.52043e-06      -107.51 
         350         0.12  0.000282441 -1.60675e-05      -107.51 
         350     0.213332  0.000794292 -4.29602e-05      -107.51 
         350     0.333332   0.00129309 -8.32579e-05      -107.51 
         350         0.48   0.00159284   -0.0001305      -107.51 
         350     0.653331   0.00166092 -0.000178194      -107.51 
         350     0.853332   0.00157493 -0.000223093      -107.51 
         350         1.08   0.00141616 -0.000263872      -107.51 
         350      1.33333   0.00121691 -0.000299823      -107.51 
         350      1.61333  0.000969849 -0.000330355      -107.51 
         350         1.92  0.000673286 -0.000353428      -107.51 
         350      2.25333  0.000361033 -0.000366553      -107.51 
         350      2.61333   5.6375e-05 -0.000368175      -107.51 
         350            3  -0.00021931 -0.000358131      -107.51 
         400            0           -0           -0     -99.6687 
         400     0.013333 -0.000772157  1.92146e-07     -99.6687 
         400     0.053333  -0.00225902  1.87859e-06     -99.6687 
         400         0.12  -0.00403902  1.87984e-06     -99.6687 
         400     0.213332  -0.00529115 -1.53686e-05     -99.6687 
         400     0.333332  -0.00562247 -7.06645e-05     -99.6687 
         400         0.48  -0.00530468 -0.000173442     -99.6687 
         400     0.653331  -0.00485065 -0.000315815     -99.6687 
         400     0.853332  -0.00448579 -0.000479214     -99.6687 
         400         1.08  -0.00406487 -0.000642408     -99.6687 
         400      1.33333  -0.00343155 -0.000790628     -99.6687 
         400      1.61333  -0.00267965 -0.000921129     -99.6687 
         400         1.92  -0.00190241  -0.00103072     -99.6687 
         400      2.25333  -0.00112002  -0.00111111     -99.6686 
         400      2.61333 -0.000370573  -0.00115596     -99.6686 
         400            3  0.000284611  -0.00116179     -99.6685 
         450            0  -6.6269e-20  4.79223e-27      -91.825 
         450     0.013333  0.000222491  6.88137e-07      -91.825 
         450     0.053333   0.00111929  1.07694e-05      -91.825 
         450         0.12   0.00165475    5.145e-05      -91.825 
         450     0.213332   0.00133721  0.000145995      -91.825 
         450     0.333332  0.000386289  0.000304232      -91.825 
         450         0.48 -0.000589666  0.000518259      -91.825 
         450     0.653331  -0.00115248  0.000773677      -91.825 
         450     0.853332  -0.00119463   0.00105984      -91.825 
         450         1.08  -0.00086604   0.00136562      -91.825 
         450      1.33333 -0.000518908   0.00167007      -91.825 
         450      1.61333 -0.000390413   0.00194822      -91.825 
         450         1.92 -0.000332881   0.00218274      -91.825 
         450      2.25333 -0.000278065   0.00235891      -91.825 
         450      2.61333 -0.000222282   0.00246347      -91.825 
         450            3 -0.000172236   0.00248792     -91.8249 
         500            0           -0           -0     -83.9821 
         500     0.013333 -0.000406502 -4.33399e-07     -83.9821 
         500     0.053333  -0.00080795  -6.6237e-06     -83.9821 
         500         0.12  -0.00100829   -3.072e-05     -83.9821 
         500     0.213332 -0.000759302 -8.48131e-05     -83.9821 
         500     0.333332  -0.00019402 -0.000173168     -83.9821 
         500         0.48  0.000375995 -0.000291496     -83.9821 
         500     0.653331  0.000728579 -0.000433369     -83.9821 
         500     0.853332  0.000786989 -0.000595219     -83.9821 
         500         1.08  0.000583383 -0.000773729     -83.9821 
         500      1.33333  0.000288188 -0.000959157     -83.9821 
         500      1.61333  9.53537e-05  -0.00113586     -83.9821 
         500         1.92 -1.66344e-05  -0.00129052     -83.9821 
         500      2.25333 -0.000108021  -0.00141374     -83.9821 
         500      2.61333 -0.000193178  -0.00149656     -83.9821 
         500            3 -0.000263323  -0.00153246     -83.9821 
         550            0           -0           -0     -76.1381 
         550     0.013333  5.31162e-06 -2.59306e-07     -76.1381 
         550     0.053333  0.000632052 -3.70591e-06     -76.1381 
         550         0.12   0.00156802 -1.53675e-05     -76.1381 
         550     0.213332   0.00255165 -3.61037e-05     -76.1381 
         550     0.333332   0.00324109 -5.91593e-05     -76.1381 
         550         0.48    0.0034806 -7.46321e-05     -76.1381 
         550     0.653331   0.00337147 -7.71904e-05     -76.1381 
         550     0.853332   0.00309649 -6.80867e-05     -76.1381 
         550         1.08   0.00276985 -5.07598e-05     -76.1381 
         550      1.33333   0.00243078 -2.71571e-05     -76.1381 
         550      1.61333   0.00205504  5.65639e-07     -76.1381 
         550         1.92   0.00160193  2.91899e-05     -76.1381 
         550      2.25333   0.00109382  5.71754e-05     -76.1381 
         550      2.61333  0.000564849  8.29162e-05     -76.1381 
         550            3  5.16665e-05  0.000105104     -76.1382 
         600            0            0            0     -68.2963 
         600     0.013333 -0.000537882  6.04072e-07     -68.2963 
         600     0.053333   -0.0015724  8.50769e-06     -68.2963 
         600         0.12  -0.00322287  3.46692e-05     -68.2963 
         600     0.213332  -0.00499545  8.06536e-05     -68.2963 
         600     0.333332  -0.00628169  0.000133845     -68.2963 
         600         0.48  -0.00684297  0.000178388     -68.2963 
         600     0.653331  -0.00687515  0.000208858     -68.2963 
         600     0.853332  -0.00661695  0.000233031     -68.2963 
         600         1.08   -0.0060808  0.000264669     -68.2963 
         600      1.33333  -0.00524972  0.000310187     -68.2963 
         600      1.61333   -0.0043135  0.000361427     -68.2963 
         600         1.92    -0.003398  0.000406963     -68.2963 
         600      2.25333  -0.00245147  0.000443529     -68.2963 
         600      2.61333  -0.00147367  0.000469035     -68.2962 
         600            3 -0.000530567  0.000481485     -68.2961 
         650            0            0            0     -60.4476 
         650     0.013333  4.60708e-05 -3.03294e-07     -60.4476 
         650     0.053333  0.000774837 -4.13434e-06     -60.4476 
         650         0.12   0.00180448 -1.59147e-05     -60.4476 
         650     0.213332   0.00279388 -3.39324e-05     -60.4476 
         650     0.333332   0.00340644 -4.94456e-05     -60.4476 
         650         0.48   0.00358318 -5.41452e-05     -60.4476 
         650     0.653331   0.00350733 -4.69187e-05     -60.4476 
         650     0.853332   0.00334432 -3.39018e-05     -60.4476 
         650         1.08   0.00307942 -2.49376e-05     -60.4476 
         650      1.33333   0.00262675 -2.76668e-05     -60.4476 
         650      1.61333   0.00205415 -4.07118e-05     -60.4476 
         650         1.92   0.00151373 -5.58853e-05     -60.4476 
         650      2.25333  0.000987753 -7.00519e-05     -60.4476 
         650      2.61333   0.00045684 -8.23759e-05     -60.4477 
         650            3 -5.49339e-05  -9.2516e-05     -60.4477 
         700            0           -0           -0     -52.6028 
         700     0.013333 -0.000383205  2.96729e-07     -52.6028 
         700     0.053333 -0.000937005  4.20185e-06     -52.6028 
         700         0.12  -0.00183566  1.72951e-05     -52.6028 
         700     0.213332  -0.00282508  4.08365e-05     -52.6028 
         700     0.333332  -0.00358112  6.90234e-05     -52.6028 
         700         0.48  -0.00394985  9.36807e-05     -52.6028 
         700     0.653331  -0.00401132  0.000110915     -52.6028 
         700     0.853332  -0.00390449  0.000123148     -52.6028 
         700         1.08  -0.00366755  0.000136473     -52.6028 
         700      1.33333  -0.00327822  0.000155487     -52.6028 
         700      1.61333  -0.00278605  0.000179072     -52.6028 
         700         1.92  -0.00227773  0.000202062     -52.6028 
         700      2.25333  -0.00174939  0.000221646     -52.6028 
         700      2.61333  -0.00119767  0.000236347     -52.6027 
         700            3 -0.000646702  0.000245227     -52.6027 
         750            0           -0           -0     -44.7529 
         750     0.013333 -0.000179713 -1.64673e-07     -44.7529 
         750     0.053333 -7.57377e-05 -2.35212e-06     -44.7529 
         750         0.12  0.000115431 -9.81823e-06     -44.7529 
         750     0.213332   0.00034592 -2.37006e-05     -44.7529 
         750     0.333332   0.00050638  -4.1613e-05     -44.7529 
         750         0.48  0.000550827 -6.04171e-05     -44.7529 
         750     0.653331  0.000517825 -7.98246e-05     -44.7529 
         750     0.853332  0.000440677 -0.000102893     -44.7529 
         750         1.08  0.000295097 -0.000133559     -44.7529 
         750      1.33333  7.92616e-05 -0.000172351     -44.7529 
         750      1.61333 -0.000114693 -0.000214196     -44.7529 
         750         1.92 -0.000218484 -0.000252743     -44.7529 
         750      2.25333 -0.000282224 -0.000285795     -44.7529 
         750      2.61333 -0.000336667  -0.00031201     -44.7529 
         750            3 -0.000378889 -0.000329975      -44.753 
         800            0 -6.37449e-19  1.45069e-26     -36.9039 
         800     0.013333 -0.000469217  3.01656e-07     -36.9039 
         800     0.053333  -0.00125622  4.24787e-06     -36.9039 
         800         0.12  -0.00246311  1.72475e-05     -36.9039 
         800     0.213332  -0.00372764  3.95445e-05     -36.9039 
         800     0.333332  -0.00462325  6.30717e-05     -36.9039 
         800         0.48  -0.00496076  7.69248e-05     -36.9039 
         800     0.653331  -0.00487378  7.56295e-05     -36.9039 
         800     0.853332  -0.00459552  6.18188e-05     -36.9039 
         800         1.08  -0.00423212  4.29288e-05     -36.9039 
         800      1.33333  -0.00377383  2.51504e-05     -36.9039 
         800      1.61333    -0.003245  9.02881e-06     -36.9039 
         800         1.92   -0.0027052 -8.11411e-06     -36.9039 
         800      2.25333  -0.00213523  -2.7118e-05     -36.9039 
         800      2.61333  -0.00152803  -4.6392e-05     -36.9039 
         800            3  -0.00090593 -6.45136e-05     -36.9038 
         850            0            0            0     -29.0512 
         850     0.013333 -0.000576743 -3.70558e-07     -29.0512 
         850     0.053333  -0.00142746 -5.91468e-06     -29.0512 
         850         0.12  -0.00216328 -2.91856e-05     -29.0512 
         850     0.213332  -0.00226178 -8.63788e-05     -29.0512 
         850     0.333332  -0.00168781 -0.000188506     -29.0512 
         850         0.48  -0.00082989 -0.000335248     -29.0512 
         850     0.653331 -0.000121772 -0.000517904     -29.0512 
         850     0.853332  0.000224506 -0.000726988     -29.0512 
         850         1.08  0.000219028 -0.000955184     -29.0512 
         850      1.33333  2.29782e-05  -0.00119355     -29.0512 
         850      1.61333 -0.000132609  -0.00142932     -29.0512 
         850         1.92 -0.000158013  -0.00164999     -29.0512 
         850      2.25333 -0.000140377  -0.00184545     -29.0512 
         850      2.61333 -0.000135587   -0.0020058     -29.0512 
         850            3 -0.000130043  -0.00212109     -29.0512 
         900            0 -1.88297e-19  5.01798e-26     -21.1984 
         900     0.013333  -8.5153e-05 -3.34066e-07     -21.1984 
         900     0.053333  0.000337436 -4.87453e-06     -21.1984 
         900         0.12   0.00111591  -2.1153e-05     -21.1984 
         900     0.213332   0.00214953 -5.40792e-05     -21.1984 
         900     0.333332   0.00315308 -0.000101828     -21.1984 
         900         0.48   0.00388199 -0.000157922     -21.1984 
         900     0.653331   0.00428323 -0.000216723     -21.1984 
         900     0.853332    0.0044285 -0.000277086     -21.1984 
         900         1.08   0.00435526 -0.000342541     -21.1984 
         900      1.33333   0.00403376 -0.000417701     -21.1984 
         900      1.61333   0.00349933 -0.000502327     -21.1984 
         900         1.92     0.002898 -0.000589494     -21.1984 
         900      2.25333   0.00228983 -0.000670675     -21.1984 
         900      2.61333   0.00166329 -0.000741123     -21.1984 
         900            3   0.00100271 -0.000797349     -21.1984 
         950            0 -4.55257e-19  3.23494e-26     -13.3474 
         950     0.013333 -0.000195574 -2.67778e-07     -13.3474 
         950     0.053333 -6.42706e-05   -4.142e-06     -13.3474 
         950         0.12  0.000376094 -1.95983e-05     -13.3474 
         950     0.213332   0.00121268 -5.54092e-05     -13.3474 
         950     0.333332   0.00225139 -0.000115263     -13.3474 
         950         0.48   0.00314859 -0.000194684     -13.3474 
         950     0.653331   0.00367379 -0.000284183     -13.3474 
         950     0.853332   0.00382877 -0.000375216     -13.3474 
         950         1.08   0.00374994 -0.000463242     -13.3474 
         950      1.33333   0.00355638 -0.000546865     -13.3474 
         950      1.61333   0.00327445 -0.000626635     -13.3474 
         950         1.92   0.00288179  -0.00070334     -13.3474 
         950      2.25333   0.00240535 -0.000772983     -13.3474 
         950      2.61333   0.00187579 -0.000831853     -13.3474 
         950            3   0.00130926 -0.000875769     -13.3474 
        1000            0           -0           -0     -5.49385 
        1000     0.013333  0.000490657 -7.19057e-07     -5.49385 
        1000     0.053333   0.00255827 -1.04087e-05     -5.49385 
        1000         0.12   0.00568962 -4.34216e-05     -5.49385 
        1000     0.213332   0.00905523 -0.000103461     -5.49385 
        1000     0.333332    0.0115825 -0.000174361     -5.49385 
        1000         0.48     0.012711 -0.000230415     -5.49385 
        1000     0.653331    0.0126805 -0.000255932     -5.49385 
        1000     0.853332    0.0120617 -0.000254063     -5.49384 
        1000         1.08    0.0111839 -0.000240306     -5.49384 
        1000      1.33333    0.0100835 -0.000228745     -5.49384 
        1000      1.61333    0.0088117 -0.000222063     -5.49385 
        1000         1.92    0.0075036 -0.000214459     -5.49387 
        1000      2.25333   0.00613872 -0.000202429     -5.49391 
        1000      2.61333   0.00468378 -0.000187061     -5.49396 
        1000            3   0.00314727 -0.000169956     -5.49404 
