Variables = x, y, u, v, p, uu, uv, vv

Zone, I=21600, F=POINT
         -70            0  1.38093e-19  2.38519e-22  0.000377462 -6.25416e-14 -1.03077e-15  3.65304e-17 
         -70     0.000417  3.31764e-09 -2.40833e-11  0.000377462  3.26726e-13 -7.42057e-16  3.12691e-17 
         -70     0.001671  1.32872e-08 -9.66565e-11  0.000377462  5.50101e-12  4.00247e-16  1.73123e-16 
         -70     0.003762  2.98894e-08 -2.19175e-10  0.000377462  2.70503e-11  3.63415e-15  9.39921e-16 
         -70     0.006687  5.30753e-08 -3.96516e-10  0.000377462  8.27978e-11  1.18584e-14  3.20866e-15 
         -70      0.01045  8.28527e-08 -6.39394e-10  0.000377462  1.94992e-10  2.92208e-14  8.61422e-15 
         -70     0.015048   1.1918e-07 -9.62904e-10  0.000377462  3.87557e-10  5.76508e-14  2.04209e-14 
         -70     0.020484  1.62065e-07 -1.38357e-09  0.000377462  6.83759e-10  8.89396e-14   4.5216e-14 
         -70     0.026753  2.11449e-07 -1.91276e-09  0.000377462  1.10291e-09  9.16715e-14  9.54848e-14 
         -70     0.033862  2.67346e-07 -2.55485e-09  0.000377462  1.65927e-09 -5.65546e-15  1.93354e-13 
         -70     0.041803  3.29614e-07 -3.30861e-09  0.000377462  2.35851e-09 -3.32315e-13  3.74735e-13 
         -70     0.050579  3.98152e-07 -4.18198e-09  0.000377462  3.19872e-09  -1.0903e-12  6.94583e-13 
         -70     0.060198   4.7285e-07 -5.20376e-09  0.000377462  4.17009e-09 -2.56443e-12  1.23263e-12 
         -70     0.070646  5.53408e-07  -6.3977e-09  0.000377462  5.25279e-09 -5.12142e-12  2.09765e-12 
         -70     0.081937  6.39729e-07 -7.65019e-09  0.000377462  6.42318e-09 -9.22994e-12  3.43867e-12 
         -70     0.094057  7.31431e-07 -9.03615e-09  0.000377462  7.64996e-09 -1.54812e-11  5.44289e-12 
         -70     0.107021  8.28188e-07 -1.08093e-08  0.000377462  8.90231e-09 -2.40307e-11  8.33819e-12 
         -70     0.120813  9.29592e-07 -1.24585e-08  0.000377462  1.01462e-08 -3.56732e-11  1.23866e-11 
         -70      0.13545  1.03535e-06 -1.38563e-08  0.000377462  1.13524e-08 -5.10636e-11  1.79504e-11 
         -70     0.150914  1.14476e-06 -1.51159e-08  0.000377462  1.24922e-08 -7.03762e-11  2.54579e-11 
         -70     0.167213   1.2572e-06 -1.63079e-08  0.000377461  1.35441e-08 -9.36152e-11  3.54158e-11 
         -70     0.184359  1.37192e-06 -1.71249e-08  0.000377461  1.44929e-08  -1.2092e-10  4.84053e-11 
         -70      0.20233  1.48787e-06 -1.67105e-08  0.000377461  1.53271e-08 -1.52675e-10  6.50786e-11 
         -70     0.221149  1.60414e-06 -1.40159e-08  0.000377461  1.60435e-08 -1.89305e-10  8.63171e-11 
         -70     0.240792   1.7192e-06 -9.26168e-09  0.000377461  1.66419e-08 -2.29646e-10   1.1336e-10 
         -70     0.261284  1.83045e-06 -1.09016e-09  0.000377461  1.71295e-08 -2.72659e-10  1.48304e-10 
         -70     0.282599  1.93788e-06  1.22139e-08  0.000377461   1.7509e-08 -3.19696e-10  1.84083e-10 
         -70     0.304763  2.03894e-06  3.10722e-08  0.000377461  1.77971e-08 -3.76294e-10  2.47134e-10 
         -70      0.32775  2.13013e-06  5.73046e-08  0.000377463  1.80003e-08 -4.36716e-10  3.29383e-10 
         -70     0.351587  2.20939e-06  9.03133e-08  0.000377465   1.8126e-08 -4.97366e-10  4.27086e-10 
         -70     0.376246  2.27567e-06  1.27098e-07  0.000377469  1.81808e-08 -5.55597e-10  5.39333e-10 
         -70      0.40174  2.32923e-06  1.62804e-07  0.000377475  1.81695e-08 -6.08796e-10  6.66725e-10 
         -70     0.428086  2.37125e-06  1.91377e-07  0.000377483  1.80939e-08 -6.53091e-10  8.09221e-10 
         -70     0.455252  2.40348e-06  2.06509e-07  0.000377492  1.79527e-08 -6.82481e-10  9.63827e-10 
         -70     0.483271    2.428e-06  2.02987e-07  0.000377502  1.77418e-08 -6.89118e-10  1.12384e-09 
         -70     0.512109  2.44659e-06  1.78031e-07  0.000377512  1.74562e-08 -6.64985e-10  1.27822e-09 
         -70     0.541801   2.4604e-06    1.327e-07  0.000377521  1.70936e-08 -6.06403e-10  1.41502e-09 
         -70     0.572311  2.46953e-06  7.32727e-08  0.000377528   1.6662e-08 -5.22655e-10  1.52749e-09 
         -70     0.603676  2.47296e-06  1.18711e-08  0.000377529  1.61894e-08 -4.49908e-10  1.62764e-09 
         -70     0.635857  2.46369e-06 -3.07875e-08  0.000377527  1.57245e-08 -2.99481e-10  1.43583e-09 
         -70     0.668875  2.43664e-06 -5.74715e-08  0.000377521  1.52242e-08 -1.87239e-10  1.40789e-09 
         -70     0.702748  2.39092e-06 -7.12156e-08  0.000377512  1.46629e-08 -1.07463e-10  1.46249e-09 
         -70     0.737438  2.32628e-06 -7.40509e-08  0.000377501  1.40452e-08  -5.0075e-11  1.56104e-09 
         -70     0.772984  2.24328e-06 -6.81953e-08  0.000377489  1.33752e-08 -7.13016e-12  1.67491e-09 
         -70     0.809345  2.14356e-06 -5.59581e-08  0.000377478  1.26592e-08   2.6928e-11  1.78485e-09 
         -70     0.846564  2.02931e-06 -3.96312e-08  0.000377467  1.19027e-08  5.56351e-11   1.8807e-09 
         -70     0.884597  1.90368e-06 -2.14454e-08  0.000377457  1.11135e-08  8.06079e-11  1.95976e-09 
         -70     0.923489  1.77004e-06 -3.39813e-09  0.000377449  1.02982e-08  1.02066e-10  2.02546e-09 
         -70     0.963194  1.63236e-06  1.27667e-08  0.000377442  9.46577e-09  1.19183e-10  2.08498e-09 
         -70      1.00376  1.49436e-06  2.57357e-08  0.000377438  8.62358e-09   1.3072e-10  2.14727e-09 
         -70      1.04514  1.35992e-06  3.46369e-08  0.000377435  7.78124e-09  1.35495e-10  2.22028e-09 
         -70      1.08735  1.23222e-06  3.91604e-08  0.000377434  6.94702e-09  1.32958e-10  2.30897e-09 
         -70      1.13042  1.11374e-06  3.95544e-08  0.000377433  6.12926e-09  1.23557e-10  2.41342e-09 
         -70      1.17431  1.00625e-06  3.66224e-08  0.000377433  5.33784e-09  1.08986e-10  2.52752e-09 
         -70      1.21905  9.10154e-07  3.16462e-08  0.000377432  4.58072e-09  9.20494e-11  2.63967e-09 
         -70      1.26461  8.24929e-07  2.62448e-08  0.000377431  3.86784e-09  7.61849e-11   2.7342e-09 
         -70      1.31103  7.48699e-07  2.21043e-08  0.000377429   3.2076e-09  6.42623e-11  2.79641e-09 
         -70      1.35826   6.7888e-07  2.06252e-08  0.000377426  2.61053e-09  5.67297e-11  2.81982e-09 
         -70      1.40635   6.1226e-07  2.23821e-08  0.000377422  2.08657e-09  4.86284e-11  2.81828e-09 
         -70      1.45525  5.46091e-07  2.64222e-08  0.000377419  1.64845e-09  2.54499e-11  2.84287e-09 
         -70      1.50498  4.78909e-07  2.93459e-08   0.00037742  1.31006e-09 -4.26406e-11  3.00532e-09 
         -70      1.55558  4.19209e-07  2.59487e-08  0.000377417  9.83012e-10 -1.68638e-11  2.92123e-09 
         -70      1.60699  3.59696e-07  2.34936e-08  0.000377414  7.59502e-10 -1.36782e-11   2.9234e-09 
         -70      1.65927  3.00578e-07  2.19017e-08  0.000377411  6.13832e-10 -1.19762e-11  2.91329e-09 
         -70      1.71235  2.42419e-07  2.09916e-08  0.000377408  5.33982e-10 -1.14214e-11   2.8917e-09 
         -70      1.76629  1.85615e-07  2.05972e-08  0.000377404  5.08283e-10    -1.17e-11  2.85945e-09 
         -70      1.82104  1.30661e-07  2.05743e-08  0.000377401  5.25929e-10 -1.25276e-11  2.81741e-09 
         -70      1.87666  7.78866e-08  2.07983e-08  0.000377397  5.76909e-10  -1.3652e-11  2.76644e-09 
         -70      1.93309  2.77057e-08  2.11648e-08  0.000377393  6.52017e-10 -1.48523e-11  2.70751e-09 
         -70      1.99034 -1.96082e-08  2.15906e-08  0.000377389  7.43065e-10 -1.59446e-11  2.64151e-09 
         -70      2.04847 -6.38223e-08  2.20123e-08  0.000377385  8.42879e-10 -1.67808e-11  2.56932e-09 
         -70       2.1074 -1.04675e-07  2.23848e-08  0.000377381  9.45091e-10 -1.72479e-11  2.49196e-09 
         -70      2.16721 -1.42059e-07  2.26812e-08  0.000377376  1.04457e-09 -1.72707e-11  2.41023e-09 
         -70      2.22781 -1.75827e-07  2.28895e-08  0.000377371  1.13694e-09 -1.68088e-11  2.32514e-09 
         -70      2.28928 -2.05971e-07   2.3012e-08  0.000377366    1.219e-09 -1.58555e-11  2.23744e-09 
         -70      2.35156 -2.32459e-07  2.30616e-08  0.000377361  1.28828e-09 -1.44373e-11  2.14806e-09 
         -70       2.4147 -2.55381e-07  2.30596e-08  0.000377356  1.34332e-09 -1.26067e-11  2.05767e-09 
         -70      2.47865 -2.74818e-07  2.30328e-08   0.00037735   1.3833e-09 -1.04452e-11  1.96711e-09 
         -70      2.54347  -2.9095e-07  2.30101e-08  0.000377344  1.40821e-09 -8.04986e-12  1.87693e-09 
         -70      2.60909 -3.03957e-07  2.30198e-08  0.000377338  1.41852e-09 -5.53908e-12  1.78784e-09 
         -70      2.67554 -3.14089e-07  2.30862e-08  0.000377332  1.41524e-09 -3.03633e-12  1.70031e-09 
         -70      2.74287 -3.21623e-07  2.32274e-08  0.000377326  1.39971e-09  -6.6852e-13  1.61475e-09 
         -70        2.811 -3.26849e-07  2.34522e-08  0.000377319  1.37353e-09  1.43683e-12  1.53163e-09 
         -70         2.88 -3.30091e-07  2.37596e-08  0.000377312  1.33836e-09  3.16866e-12  1.45114e-09 
         -70      2.94979 -3.31671e-07  2.41358e-08  0.000377305  1.29595e-09  4.43036e-12  1.37361e-09 
         -70      3.02047 -3.31917e-07   2.4557e-08  0.000377297  1.24788e-09  5.15592e-12  1.29908e-09 
         -70      3.09194 -3.31142e-07  2.49878e-08   0.00037729  1.19566e-09  5.31237e-12  1.22771e-09 
         -70      3.16429 -3.29635e-07  2.53872e-08  0.000377282  1.14047e-09  4.91138e-12  1.15944e-09 
         -70      3.23743 -3.27647e-07   2.5711e-08  0.000377273   1.0834e-09  4.01646e-12  1.09431e-09 
         -70       3.3114 -3.25375e-07   2.5921e-08  0.000377265  1.02523e-09  2.74969e-12  1.03224e-09 
         -70      3.38626 -3.22947e-07   2.5994e-08  0.000377256  9.66678e-10  1.29836e-12  9.73114e-10 
         -70      3.46191 -3.20411e-07  2.59353e-08  0.000377247  9.08621e-10  -7.5475e-14  9.16954e-10 
         -70      3.53844 -3.17709e-07   2.5796e-08  0.000377238  8.52125e-10 -1.03615e-12  8.63691e-10 
         -70      3.61576 -3.14667e-07   2.5694e-08  0.000377228   7.9907e-10  -1.1656e-12  8.13473e-10 
         -70      3.69396 -3.10968e-07    2.584e-08  0.000377218  7.52353e-10  3.42757e-14  7.66452e-10 
         -70      3.77295 -3.06631e-07  2.63815e-08  0.000377208   7.2095e-10  2.32991e-12  7.21378e-10 
         -70      3.85283 -3.02903e-07  2.67115e-08  0.000377197  6.79076e-10  1.43621e-12   6.7887e-10 
         -70      3.93349 -2.99115e-07   2.6952e-08  0.000377186  6.38813e-10  8.50292e-13  6.38566e-10 
         -70      4.01504   -2.953e-07  2.70821e-08  0.000377175  6.00324e-10  4.48692e-13  6.00397e-10 
         -70      4.09737 -2.91489e-07  2.70794e-08  0.000377163  5.63796e-10  1.36977e-13  5.64369e-10 
         -70      4.18054 -2.87564e-07  2.71254e-08  0.000377151  5.29055e-10 -4.84101e-14  5.30342e-10 
         -70       4.2646 -2.83677e-07  2.72258e-08  0.000377139  4.96297e-10  -2.3176e-13  4.98254e-10 
         -70      4.34945 -2.79864e-07  2.73205e-08  0.000377127  4.65519e-10 -3.94321e-13  4.68033e-10 
         -70      4.43518 -2.76107e-07  2.73979e-08  0.000377114  4.36623e-10  -5.5734e-13  4.39549e-10 
         -70      4.52169 -2.72396e-07  2.74535e-08    0.0003771  4.09559e-10 -7.29079e-13  4.12744e-10 
         -70      4.60909 -2.68715e-07  2.74881e-08  0.000377086  3.84194e-10 -9.08898e-13  3.87495e-10 
         -70      4.69728 -2.65056e-07  2.75062e-08  0.000377072  3.60449e-10 -1.08963e-12   3.6375e-10 
         -70      4.78636 -2.61407e-07  2.75138e-08  0.000377058  3.38181e-10 -1.26145e-12  3.41399e-10 
         -70      4.87621 -2.57765e-07  2.75174e-08  0.000377043  3.17304e-10 -1.41385e-12  3.20391e-10 
         -70      4.96691 -2.54121e-07  2.75221e-08  0.000377027  2.97697e-10  -1.5387e-12   3.0064e-10 
         -70      5.05849 -2.50469e-07  2.75311e-08  0.000377012  2.79253e-10 -1.63178e-12  2.82065e-10 
         -70      5.15086 -2.46811e-07  2.75444e-08  0.000376996  2.61912e-10 -1.69389e-12  2.64623e-10 
         -70      5.24411 -2.43144e-07  2.75593e-08  0.000376979  2.45584e-10 -1.73156e-12  2.48231e-10 
         -70      5.33815 -2.39474e-07  2.75701e-08  0.000376962  2.30235e-10 -1.75615e-12  2.32847e-10 
         -70      5.43308 -2.35802e-07  2.75698e-08  0.000376945  2.15807e-10 -1.78224e-12  2.18397e-10 
         -70      5.52879 -2.32142e-07  2.75516e-08  0.000376927  2.02286e-10 -1.82429e-12  2.04842e-10 
         -70       5.6254 -2.28503e-07  2.75116e-08  0.000376908  1.89626e-10 -1.89197e-12  1.92112e-10 
         -70      5.72278 -2.24906e-07  2.74534e-08   0.00037689  1.77803e-10 -1.98321e-12  1.80171e-10 
         -70      5.82099 -2.21371e-07  2.73922e-08   0.00037687   1.6675e-10 -2.07565e-12  1.68956e-10 
         -70      5.92011 -2.17927e-07  2.73623e-08  0.000376851  1.56362e-10 -2.11521e-12  1.58408e-10 
         -70         6.02 -2.14613e-07  2.74247e-08  0.000376831  1.46489e-10 -2.00204e-12  1.48483e-10 
         -70      6.12078 -2.11188e-07  2.73149e-08   0.00037681   1.3737e-10 -2.02494e-12  1.39262e-10 
         -70      6.22234 -2.07767e-07  2.71317e-08  0.000376789  1.28919e-10 -2.08532e-12   1.3063e-10 
         -70       6.3248 -2.04438e-07  2.70224e-08  0.000376767  1.20978e-10 -2.09129e-12  1.22513e-10 
         -70      6.42803  -2.0116e-07  2.69565e-08  0.000376745  1.13533e-10 -2.06491e-12  1.14899e-10 
         -70      6.53216 -1.97901e-07    2.691e-08  0.000376722  1.06551e-10 -2.02257e-12  1.07756e-10 
         -70      6.63707 -1.94652e-07  2.68649e-08  0.000376699  1.00013e-10 -1.97581e-12   1.0107e-10 
         -70      6.74287 -1.91411e-07  2.68082e-08  0.000376675  9.38895e-11 -1.93185e-12  9.48069e-11 
         -70      6.84945  -1.8819e-07  2.67323e-08  0.000376651  8.81625e-11 -1.89452e-12  8.89502e-11 
         -70      6.95686 -1.85001e-07  2.66332e-08  0.000376626  8.28052e-11 -1.86481e-12  8.34707e-11 
         -70      7.06517 -1.81861e-07  2.65105e-08  0.000376601  7.77918e-11 -1.84168e-12  7.83409e-11 
         -70      7.17426  -1.7879e-07  2.63669e-08  0.000376575  7.31062e-11  -1.8228e-12  7.35427e-11 
         -70      7.28424 -1.75799e-07  2.62068e-08  0.000376549  6.87217e-11 -1.80506e-12  6.90477e-11 
         -70        7.395 -1.72898e-07  2.60362e-08  0.000376522  6.46234e-11 -1.78528e-12  6.48395e-11 
         -70      7.50666 -1.70088e-07  2.58616e-08  0.000376495  6.07872e-11 -1.76063e-12   6.0893e-11 
         -70      7.61908 -1.67365e-07  2.56896e-08  0.000376467  5.71998e-11 -1.72912e-12  5.71947e-11 
         -70      7.73241 -1.64712e-07   2.5526e-08  0.000376438    5.384e-11 -1.68981e-12  5.37238e-11 
         -70      7.84651 -1.62112e-07  2.53754e-08  0.000376409  5.06961e-11 -1.64303e-12  5.04702e-11 
         -70      7.96145 -1.59536e-07  2.52403e-08  0.000376379  4.77518e-11 -1.59031e-12  4.74191e-11 
         -70      8.07729 -1.56952e-07  2.51207e-08  0.000376349  4.49919e-11 -1.53411e-12  4.45582e-11 
         -70      8.19389 -1.54335e-07  2.50141e-08  0.000376318  4.24075e-11 -1.47755e-12  4.18818e-11 
         -70      8.31141 -1.51658e-07  2.49143e-08  0.000376286  3.99841e-11 -1.42347e-12  3.93784e-11 
         -70      8.42969 -1.48916e-07  2.48121e-08  0.000376254  3.77141e-11 -1.37367e-12  3.70434e-11 
         -70      8.54887 -1.46116e-07  2.47166e-08  0.000376221  3.55688e-11 -1.32091e-12  3.48513e-11 
         -70      8.66882   -1.433e-07  2.45964e-08  0.000376188  3.35509e-11 -1.29162e-12  3.28148e-11 
         -70      8.78968 -1.40488e-07  2.42732e-08  0.000376154  3.16535e-11 -1.25347e-12  3.08984e-11 
         -70      8.91131 -1.37703e-07  2.35522e-08   0.00037612  2.98564e-11 -1.19822e-12  2.90826e-11 
         -70      9.03384 -1.35167e-07  2.35858e-08  0.000376084  2.82654e-11 -1.15096e-12  2.73878e-11 
         -70      9.15713 -1.32927e-07   2.3697e-08  0.000376048  2.67681e-11 -1.09023e-12  2.57872e-11 
         -70      9.28126 -1.30865e-07  2.36572e-08  0.000376012  2.53455e-11 -1.02684e-12  2.42894e-11 
         -70       9.4063 -1.28908e-07  2.35314e-08  0.000375975  2.40006e-11  -9.6515e-13  2.28882e-11 
         -70       9.5321 -1.26928e-07  2.32898e-08  0.000375937  2.26791e-11 -9.16008e-13  2.15915e-11 
         -70      9.65882 -1.24912e-07  2.30099e-08  0.000375899  2.14449e-11 -8.79345e-13  2.03699e-11 
         -70      9.78629 -1.22857e-07    2.275e-08   0.00037586  2.03006e-11 -8.44876e-13  1.92193e-11 
         -70      9.91468 -1.20749e-07  2.25247e-08   0.00037582  1.92356e-11 -8.11749e-13  1.81348e-11 
         -70      10.0438 -1.18599e-07  2.23377e-08  0.000375779   1.8242e-11 -7.78482e-13   1.7115e-11 
         -70      10.1739 -1.16423e-07  2.21839e-08  0.000375738  1.73097e-11 -7.43428e-13  1.61565e-11 
         -70      10.3047 -1.14245e-07  2.20528e-08  0.000375697  1.64325e-11  -7.0544e-13  1.52581e-11 
         -70      10.4363 -1.12085e-07  2.19314e-08  0.000375654  1.56034e-11 -6.64097e-13  1.44167e-11 
         -70      10.5689 -1.09958e-07  2.18063e-08  0.000375611  1.48178e-11 -6.19974e-13  1.36285e-11 
         -70      10.7022 -1.07876e-07  2.16663e-08  0.000375567  1.40738e-11 -5.74747e-13  1.28906e-11 
         -70      10.8365 -1.05838e-07  2.15038e-08  0.000375523  1.33693e-11 -5.30827e-13  1.21977e-11 
         -70      10.9715 -1.03841e-07  2.13169e-08  0.000375478  1.27052e-11 -4.91148e-13  1.15457e-11 
         -70      11.1074 -1.01876e-07  2.11091e-08  0.000375432  1.20811e-11  -4.5827e-13  1.09293e-11 
         -70      11.2441 -9.99419e-08  2.08909e-08  0.000375386  1.14976e-11 -4.33572e-13  1.03457e-11 
         -70      11.3816 -9.80467e-08  2.06778e-08  0.000375339  1.09521e-11 -4.15773e-13  9.79236e-12 
         -70        11.52 -9.62285e-08  2.04906e-08  0.000375291  1.04398e-11 -3.99362e-13  9.27156e-12 
         -70      11.6592 -9.45638e-08  2.03522e-08  0.000375242    9.949e-12 -3.72421e-13  8.78934e-12 
         -70      11.7993 -9.31913e-08  2.02848e-08  0.000375193  9.46028e-12  -3.1408e-13  8.35866e-12 
         -70      11.9401 -9.14955e-08  1.99863e-08  0.000375143  9.02845e-12 -3.00863e-13  7.92131e-12 
         -70      12.0819  -8.9812e-08  1.97683e-08  0.000375092  8.61984e-12  -2.9092e-13   7.5121e-12 
         -70      12.2244 -8.81567e-08  1.96067e-08  0.000375041  8.22818e-12 -2.77608e-13  7.13037e-12 
         -70      12.3678 -8.65149e-08  1.94698e-08  0.000374989  7.85223e-12 -2.61746e-13  6.77332e-12 
         -70       12.512 -8.48815e-08  1.93359e-08  0.000374936  7.49208e-12 -2.44322e-13  6.43905e-12 
         -70      12.6571 -8.32522e-08  1.91918e-08  0.000374883   7.1473e-12 -2.26324e-13  6.12495e-12 
         -70       12.803 -8.16305e-08  1.90316e-08  0.000374829  6.81851e-12 -2.08732e-13  5.82936e-12 
         -70      12.9498 -8.00195e-08  1.88546e-08  0.000374774  6.50563e-12 -1.92353e-13  5.55014e-12 
         -70      13.0973 -7.84291e-08  1.86644e-08  0.000374718  6.20941e-12  -1.7782e-13  5.28617e-12 
         -70      13.2457 -7.68685e-08  1.84676e-08  0.000374662     5.93e-12 -1.65455e-13   5.0362e-12 
         -70       13.395 -7.53491e-08  1.82718e-08  0.000374605  5.66754e-12 -1.55241e-13  4.79937e-12 
         -70       13.545 -7.38869e-08  1.80859e-08  0.000374547  5.42251e-12 -1.46784e-13  4.57565e-12 
         -70       13.696 -7.24962e-08  1.79173e-08  0.000374489  5.19471e-12 -1.39234e-13  4.36483e-12 
         -70      13.8477 -7.11967e-08  1.77729e-08   0.00037443  4.98441e-12 -1.31302e-13  4.16754e-12 
         -70      14.0004 -6.96974e-08  1.76526e-08   0.00037437  4.76999e-12 -1.36314e-13  3.97781e-12 
         -70      14.1537  -6.8285e-08  1.75321e-08  0.000374309  4.56736e-12  -1.3506e-13  3.80225e-12 
         -70      14.3081 -6.69717e-08  1.74078e-08  0.000374248  4.37621e-12 -1.27793e-13  3.63794e-12 
         -70      14.4631 -6.57573e-08  1.72809e-08  0.000374186   4.1964e-12 -1.15678e-13  3.48332e-12 
         -70       14.619 -6.46327e-08  1.71555e-08  0.000374123  4.02697e-12 -1.00541e-13   3.3366e-12 
         -70      14.7758 -6.35808e-08   1.7037e-08   0.00037406  3.86666e-12 -8.46861e-14  3.19629e-12 
         -70      14.9334 -6.25755e-08  1.69294e-08  0.000373996  3.71427e-12 -7.06572e-14  3.06171e-12 
         -70      15.0919 -6.15764e-08  1.68319e-08  0.000373931  3.56819e-12 -6.08007e-14  2.93262e-12 
         -70      15.2511 -6.05326e-08  1.67348e-08  0.000373866  3.42746e-12 -5.68462e-14  2.81024e-12 
         -70      15.4113 -5.93771e-08  1.66147e-08  0.000373799  3.29132e-12 -5.92654e-14  2.69697e-12 
         -70      15.5722  -5.8033e-08  1.64285e-08  0.000373733  3.16032e-12 -6.65667e-14  2.59739e-12 
         -70      15.7341 -5.64079e-08  1.61059e-08  0.000373665  3.03613e-12 -7.44399e-14  2.51819e-12 
         -70      15.8966 -5.50144e-08  1.59548e-08  0.000373597  2.95442e-12 -7.84481e-14  2.42558e-12 
         -70      16.0602 -5.39108e-08   1.5952e-08  0.000373528  2.86261e-12 -8.13377e-14  2.32611e-12 
         -70      16.2244 -5.28412e-08  1.59176e-08  0.000373458  2.75872e-12 -8.40313e-14  2.23676e-12 
         -70      16.3895 -5.17936e-08  1.58474e-08  0.000373388  2.64964e-12 -8.59644e-14  2.15603e-12 
         -70      16.5555 -5.07605e-08  1.57427e-08  0.000373317  2.54046e-12 -8.68712e-14  2.08256e-12 
         -70      16.7223 -4.97397e-08  1.56084e-08  0.000373245  2.43497e-12 -8.67251e-14  2.01528e-12 
         -70        16.89 -4.87292e-08  1.54517e-08  0.000373172   2.3354e-12  -8.5685e-14   1.9531e-12 
         -70      17.0584 -4.77314e-08   1.5282e-08  0.000373099  2.24312e-12 -8.40409e-14   1.8952e-12 
         -70      17.2278 -4.67473e-08  1.51088e-08  0.000373025  2.15839e-12 -8.21587e-14  1.84078e-12 
         -70      17.3979 -4.57812e-08  1.49418e-08  0.000372951    2.081e-12 -8.04397e-14  1.78931e-12 
         -70      17.5689 -4.48348e-08   1.4789e-08  0.000372876  2.01006e-12 -7.92706e-14  1.74024e-12 
         -70      17.7407 -4.39115e-08  1.46573e-08    0.0003728  1.94455e-12  -7.8993e-14   1.6933e-12 
         -70      17.9133 -4.30121e-08  1.45509e-08  0.000372724  1.88318e-12 -7.98669e-14  1.64823e-12 
         -70      18.0869 -4.21365e-08  1.44713e-08  0.000372646  1.82468e-12 -8.20516e-14  1.60487e-12 
         -70      18.2611 -4.12842e-08  1.44175e-08  0.000372569  1.76803e-12 -8.55824e-14  1.56325e-12 
         -70      18.4364 -4.04517e-08   1.4385e-08   0.00037249  1.71233e-12 -9.03739e-14  1.52339e-12 
         -70      18.6123 -3.96357e-08   1.4367e-08  0.000372411  1.65715e-12 -9.62052e-14  1.48545e-12 
         -70      18.7892 -3.88301e-08  1.43541e-08  0.000372331  1.60231e-12 -1.02755e-13  1.44956e-12 
         -70      18.9669 -3.80296e-08  1.43354e-08  0.000372251  1.54821e-12 -1.09597e-13  1.41599e-12 
         -70      19.1454 -3.72274e-08   1.4299e-08   0.00037217  1.49552e-12 -1.16271e-13  1.38491e-12 
         -70      19.3247 -3.64188e-08  1.42337e-08  0.000372088  1.44545e-12 -1.22299e-13  1.35656e-12 
         -70       19.505 -3.55993e-08  1.41301e-08  0.000372006  1.39935e-12  -1.2728e-13  1.33109e-12 
         -70      19.6859 -3.47692e-08  1.39828e-08  0.000371923  1.35887e-12 -1.30951e-13  1.30863e-12 
         -70      19.8677 -3.39161e-08  1.37737e-08  0.000371839  1.32882e-12 -1.30955e-13  1.28949e-12 
         -70      20.0505 -3.30328e-08  1.34843e-08  0.000371755  1.29677e-12 -1.26987e-13  1.27258e-12 
         -70       20.234 -3.21951e-08  1.32119e-08   0.00037167  1.26846e-12 -1.21678e-13  1.25899e-12 
         -70      20.4184 -3.14414e-08  1.30258e-08  0.000371585  1.24232e-12 -1.18231e-13  1.24617e-12 
         -70      20.6035 -3.08325e-08  1.30271e-08  0.000371499  1.21618e-12 -1.21804e-13  1.22992e-12 
         -70      20.7896  -3.0454e-08  1.33556e-08  0.000371412  1.18698e-12 -1.39955e-13  1.20371e-12 
         -70      20.9765 -3.02508e-08  1.40112e-08  0.000371325  1.15134e-12 -1.72086e-13  1.16714e-12 
         -70      21.1642 -2.91348e-08  1.35227e-08  0.000371237  1.12353e-12 -1.53361e-13  1.17985e-12 
         -70      21.3527 -2.84393e-08  1.31008e-08  0.000371149  1.10677e-12 -1.37369e-13   1.1931e-12 
         -70      21.5421 -2.80399e-08  1.27522e-08   0.00037106  1.08135e-12  -1.2373e-13  1.20937e-12 
         -70      21.7323  -2.7369e-08  1.26449e-08  0.000370971  1.04444e-12 -1.30906e-13  1.17224e-12 
         -70      21.9233 -2.68134e-08  1.26797e-08  0.000370881  1.00706e-12  -1.4237e-13   1.1439e-12 
         -70      22.1153 -2.62892e-08  1.27708e-08   0.00037079  9.71268e-13 -1.54948e-13  1.12335e-12 
         -70       22.308 -2.57482e-08  1.28607e-08  0.000370699  9.38384e-13 -1.66524e-13  1.10945e-12 
         -70      22.5016 -2.51677e-08  1.29158e-08  0.000370607  9.08983e-13   -1.759e-13  1.10094e-12 
         -70      22.6959 -2.45466e-08  1.29209e-08  0.000370515  8.83192e-13 -1.82568e-13  1.09656e-12 
         -70      22.8912  -2.3896e-08  1.28749e-08  0.000370422  8.60689e-13  -1.8658e-13  1.09509e-12 
         -70      23.0872 -2.32367e-08  1.27867e-08  0.000370329  8.40949e-13 -1.88354e-13   1.0954e-12 
         -70      23.2841 -2.25913e-08  1.26712e-08  0.000370235  8.23263e-13 -1.88554e-13  1.09653e-12 
         -70      23.4819 -2.19812e-08  1.25455e-08  0.000370141  8.06885e-13 -1.87939e-13  1.09769e-12 
         -70      23.6804 -2.14235e-08  1.24267e-08  0.000370046  7.91143e-13 -1.87264e-13   1.0983e-12 
         -70      23.8799 -2.09268e-08  1.23286e-08   0.00036995  7.75446e-13 -1.87174e-13  1.09804e-12 
         -70      24.0801 -2.04912e-08  1.22605e-08  0.000369854  7.59412e-13 -1.88138e-13  1.09681e-12 
         -70      24.2813 -2.01058e-08  1.22256e-08  0.000369758   7.4283e-13 -1.90396e-13  1.09472e-12 
         -70      24.4831 -1.97512e-08  1.22205e-08  0.000369661  7.25748e-13 -1.93933e-13  1.09212e-12 
         -70       24.686 -1.93993e-08  1.22355e-08  0.000369564  7.08388e-13 -1.98492e-13  1.08949e-12 
         -70      24.8895 -1.90187e-08  1.22559e-08  0.000369466  6.91189e-13 -2.03592e-13  1.08742e-12 
         -70       25.094  -1.8577e-08  1.22639e-08  0.000369368  6.74664e-13 -2.08624e-13  1.08654e-12 
         -70      25.2992 -1.80498e-08  1.22412e-08  0.000369269  6.59385e-13 -2.12925e-13  1.08739e-12 
         -70      25.5052 -1.74263e-08  1.21741e-08   0.00036917  6.45794e-13 -2.15951e-13  1.09034e-12 
         -70      25.7123 -1.67202e-08  1.20576e-08   0.00036907  6.34073e-13 -2.17447e-13   1.0954e-12 
         -70        25.92 -1.59832e-08  1.19028e-08   0.00036897  6.23966e-13 -2.17682e-13  1.10209e-12 
         -70      26.1287 -1.53159e-08  1.17441e-08   0.00036887  6.14497e-13 -2.17734e-13  1.10925e-12 
         -70       26.338 -1.48877e-08  1.16487e-08  0.000368769  6.03737e-13  -2.1982e-13  1.11477e-12 
         -70      26.5484 -1.49528e-08  1.17275e-08  0.000368667  5.88437e-13 -2.27689e-13  1.11539e-12 
         -70      26.7595 -1.53182e-08  1.19265e-08  0.000368566  5.92786e-13 -2.35115e-13  1.11408e-12 
         -70      26.9715 -1.46826e-08  1.16457e-08  0.000368463  5.77716e-13 -2.21847e-13   1.1265e-12 
         -70      27.1842 -1.42523e-08  1.14107e-08  0.000368361  5.63859e-13 -2.19977e-13  1.13876e-12 
         -70      27.3978 -1.39127e-08  1.12687e-08  0.000368258  5.50256e-13 -2.24575e-13  1.14875e-12 
         -70      27.6123   -1.359e-08  1.12336e-08  0.000368155  5.36439e-13 -2.31914e-13  1.15566e-12 
         -70      27.8276 -1.32437e-08  1.12937e-08  0.000368051  5.22318e-13 -2.39328e-13  1.15966e-12 
         -70      28.0438 -1.28584e-08  1.14203e-08  0.000367947  5.08012e-13 -2.45122e-13  1.16155e-12 
         -70      28.2607 -1.24389e-08  1.15743e-08  0.000367842  4.93808e-13 -2.48415e-13  1.16253e-12 
         -70      28.4786 -1.20013e-08  1.17143e-08  0.000367737  4.80013e-13 -2.49029e-13  1.16391e-12 
         -70      28.6972 -1.15696e-08  1.18021e-08  0.000367632  4.66946e-13 -2.47334e-13  1.16688e-12 
         -70      28.9167 -1.11672e-08  1.18085e-08  0.000367527  4.54827e-13 -2.44102e-13  1.17234e-12 
         -70       29.137 -1.08147e-08  1.17186e-08  0.000367421  4.43811e-13 -2.40356e-13   1.1807e-12 
         -70      29.3582 -1.05225e-08  1.15346e-08  0.000367315  4.33923e-13 -2.37198e-13  1.19182e-12 
         -70      29.5801  -1.0289e-08  1.12803e-08  0.000367208  4.25127e-13 -2.35648e-13  1.20487e-12 
         -70      29.8029 -1.00958e-08  1.10015e-08  0.000367101  4.17338e-13 -2.36455e-13  1.21836e-12 
         -70      30.0266 -9.90578e-09  1.07674e-08  0.000366994  4.10507e-13 -2.39922e-13  1.23018e-12 
         -70      30.2511 -9.66147e-09  1.06706e-08  0.000366886  4.04744e-13   -2.457e-13  1.23758e-12 
         -70      30.4765 -9.28331e-09  1.08245e-08  0.000366778  4.00428e-13 -2.52603e-13  1.23745e-12 
         -70      30.7026   -8.671e-09  1.13601e-08   0.00036667  3.98409e-13 -2.58376e-13  1.22643e-12 
         -70      30.9297 -8.79486e-09  1.10067e-08  0.000366562  4.10394e-13 -2.56231e-13  1.25424e-12 
         -70      31.1574 -8.69838e-09  1.07992e-08  0.000366454  3.88201e-13 -2.62654e-13  1.26659e-12 
         -70      31.3862 -8.47853e-09  1.07278e-08  0.000366345  3.71521e-13 -2.63822e-13  1.27518e-12 
         -70      31.6156 -8.22242e-09  1.07665e-08  0.000366236  3.60221e-13 -2.61236e-13  1.28087e-12 
         -70      31.8459 -7.99016e-09  1.08768e-08  0.000366126   3.5356e-13 -2.56714e-13  1.28502e-12 
         -70      32.0772 -7.80666e-09  1.10034e-08  0.000366017  3.50362e-13 -2.52386e-13   1.2894e-12 
         -70      32.3092 -7.65356e-09  1.10689e-08  0.000365907   3.4917e-13 -2.50718e-13  1.29619e-12 
         -70      32.5421 -7.46061e-09  1.09687e-08  0.000365797  3.48403e-13 -2.54516e-13  1.30794e-12 
         -70      32.7757 -7.09911e-09  1.05642e-08  0.000365686  3.46554e-13 -2.66946e-13  1.32754e-12 
         -70      33.0103 -6.44537e-09  1.04031e-08  0.000365575  3.25188e-13 -2.70396e-13  1.34658e-12 
         -70      33.2456 -6.00398e-09  1.10754e-08  0.000365464  3.10616e-13 -2.46451e-13  1.33882e-12 
         -70      33.4819 -5.79318e-09  1.13603e-08  0.000365353  3.02464e-13 -2.33797e-13  1.34403e-12 
         -70      33.7189 -5.69099e-09  1.13759e-08  0.000365242  2.98199e-13   -2.294e-13  1.35585e-12 