Variables = x, y, u, v, p

Zone, I=800, F=POINT
         550            0  1.63051e-18  -4.9994e-30 -2.95348e-05 
         550     0.000117  4.12392e-05  1.36122e-12 -2.95348e-05 
         550     0.000469  0.000165309  2.18742e-11 -2.95347e-05 
         550     0.001056   0.00037221  1.10897e-10 -2.95346e-05 
         550     0.001879  0.000662295  3.51113e-10 -2.95345e-05 
         550     0.002936   0.00103486  8.57248e-10 -2.95342e-05 
         550     0.004228   0.00149025  1.77773e-09  -2.9534e-05 
         550     0.005755   0.00202848  3.29371e-09 -2.95337e-05 
         550     0.007518   0.00264988  5.62082e-09 -2.95333e-05 
         550     0.009515   0.00335377  9.00353e-09 -2.95329e-05 
         550     0.011746   0.00414014  1.37207e-08 -2.95325e-05 
         550     0.014214   0.00501004  2.00922e-08  -2.9532e-05 
         550     0.016915   0.00596206  2.84537e-08 -2.95315e-05 
         550     0.019853   0.00699763  3.91965e-08 -2.95309e-05 
         550     0.023023   0.00811496  5.27132e-08 -2.95302e-05 
         550     0.026431   0.00931619  6.94741e-08 -2.95296e-05 
         550     0.030075    0.0106006  8.99512e-08 -2.95288e-05 
         550      0.03395    0.0119664  1.14624e-07 -2.95281e-05 
         550     0.038063    0.0134161  1.44079e-07 -2.95273e-05 
         550     0.042408    0.0149476  1.78851e-07 -2.95264e-05 
         550     0.046991     0.016563  2.19596e-07 -2.95255e-05 
         550     0.051805    0.0182598  2.66894e-07 -2.95245e-05 
         550     0.056859    0.0200412   3.2151e-07 -2.95235e-05 
         550     0.062143    0.0219037  3.84043e-07 -2.95225e-05 
         550     0.067666    0.0238503   4.5534e-07 -2.95214e-05 
         550     0.073425    0.0258802  5.36146e-07 -2.95202e-05 
         550     0.079413    0.0279908  6.27159e-07  -2.9519e-05 
         550     0.085642    0.0301863  7.29403e-07 -2.95178e-05 
         550       0.0921    0.0324625  8.43553e-07 -2.95165e-05 
         550     0.098799    0.0348237  9.70728e-07 -2.95152e-05 
         550     0.105727    0.0372655  1.11164e-06 -2.95138e-05 
         550     0.112896    0.0397923   1.2675e-06 -2.95124e-05 
         550       0.1203    0.0424019   1.4392e-06 -2.95109e-05 
         550     0.127932    0.0450918  1.62759e-06 -2.95094e-05 
         550     0.135806     0.047867   1.8341e-06 -2.95078e-05 
         550     0.143909    0.0507228  2.05948e-06 -2.95062e-05 
         550     0.152253    0.0536635  2.30521e-06 -2.95045e-05 
         550     0.160825    0.0566846  2.57207e-06 -2.95028e-05 
         550     0.169639    0.0597908   2.8617e-06 -2.95011e-05 
         550     0.178688    0.0629798  3.17511e-06 -2.94993e-05 
         550     0.187965     0.066249  3.51331e-06 -2.94974e-05 
         550     0.197484    0.0696035  3.87811e-06 -2.94955e-05 
         550      0.20723    0.0730377  4.27027e-06 -2.94936e-05 
         550      0.21722    0.0765579  4.69183e-06 -2.94916e-05 
         550     0.227436    0.0801574  5.14343e-06 -2.94896e-05 
         550     0.237895    0.0838424  5.62724e-06 -2.94875e-05 
         550     0.248581    0.0876072  6.14398e-06 -2.94854e-05 
         550      0.25951    0.0914573  6.69592e-06 -2.94832e-05 
         550     0.270675    0.0953903  7.28426e-06  -2.9481e-05 
         550     0.282065    0.0994022  7.90994e-06 -2.94787e-05 
         550       0.2937       0.1035  8.57563e-06 -2.94764e-05 
         550      0.30556     0.107677  9.28182e-06  -2.9474e-05 
         550     0.317665     0.111939  1.00313e-05 -2.94716e-05 
         550     0.329995      0.11628  1.08246e-05 -2.94692e-05 
         550     0.342569     0.120707  1.16646e-05 -2.94666e-05 
         550     0.355379     0.125216  1.25525e-05 -2.94641e-05 
         550     0.368414     0.129803  1.34893e-05 -2.94615e-05 
         550     0.381693     0.134475  1.44782e-05 -2.94588e-05 
         550     0.395198     0.139226  1.55196e-05 -2.94561e-05 
         550     0.408948     0.144062  1.66169e-05 -2.94534e-05 
         550     0.422921     0.148976  1.77701e-05 -2.94506e-05 
         550     0.437141     0.153975  1.89832e-05 -2.94478e-05 
         550     0.451585     0.159051  2.02562e-05 -2.94449e-05 
         550     0.466275     0.164213  2.15928e-05 -2.94419e-05 
         550       0.4812     0.169455  2.29942e-05 -2.94389e-05 
         550     0.496348     0.174774  2.44612e-05 -2.94359e-05 
         550     0.511744     0.180178  2.59982e-05 -2.94328e-05 
         550     0.527361     0.185657  2.76046e-05 -2.94297e-05 
         550     0.543227     0.191221  2.92854e-05 -2.94265e-05 
         550     0.559314      0.19686  3.10395e-05 -2.94232e-05 
         550      0.57565     0.202583  3.28723e-05   -2.942e-05 
         550      0.59222     0.208385  3.47842e-05 -2.94166e-05 
         550     0.609012     0.214262   3.6776e-05 -2.94132e-05 
         550     0.626053     0.220222  3.88529e-05 -2.94098e-05 
         550     0.643315     0.226255  4.10137e-05 -2.94063e-05 
         550     0.660826     0.232371   4.3264e-05 -2.94028e-05 
         550     0.678557     0.238559  4.56025e-05 -2.93992e-05 
         550     0.696538     0.244829  4.80352e-05 -2.93955e-05 
         550     0.714754     0.251176  5.05623e-05 -2.93918e-05 
         550      0.73319     0.257593   5.3184e-05  -2.9388e-05 
         550     0.751876     0.264091  5.59066e-05 -2.93842e-05 
         550     0.770782     0.270658  5.87281e-05 -2.93803e-05 
         550     0.789937     0.277304  6.16548e-05 -2.93764e-05 
         550     0.809313     0.284019  6.46848e-05 -2.93724e-05 
         550     0.828939     0.290812  6.78248e-05 -2.93684e-05 
         550     0.848784     0.297672  7.10719e-05 -2.93643e-05 
         550      0.86888     0.304609  7.44335e-05 -2.93601e-05 
         550     0.889212     0.311616  7.79094e-05 -2.93559e-05 
         550     0.909761     0.318687  8.14983e-05 -2.93516e-05 
         550     0.930563     0.325832  8.52086e-05 -2.93473e-05 
         550     0.951582      0.33304  8.90359e-05 -2.93428e-05 
         550     0.972854      0.34032  9.29888e-05 -2.93384e-05 
         550     0.994343      0.34766  9.70626e-05 -2.93338e-05 
         550      1.01608      0.35507  0.000101266 -2.93292e-05 
         550      1.03806     0.362544  0.000105597 -2.93245e-05 
         550      1.06025     0.370073  0.000110055 -2.93198e-05 
         550       1.0827      0.37767  0.000114648  -2.9315e-05 
         550      1.10536      0.38532  0.000119371 -2.93101e-05 
         550      1.12828     0.393034  0.000124232 -2.93051e-05 
         550      1.15142     0.400799  0.000129226 -2.93001e-05 
         550       1.1748     0.408624  0.000134362 -2.92949e-05 
         550      1.19842     0.416503  0.000139637 -2.92897e-05 
         550      1.22226     0.424428  0.000145049 -2.92844e-05 
         550      1.24635     0.432408  0.000150608 -2.92791e-05 
         550      1.27066      0.44043  0.000156304 -2.92736e-05 
         550      1.29522     0.448505  0.000162149 -2.92681e-05 
         550         1.32     0.456617  0.000168134 -2.92625e-05 
         550      1.34503     0.464778   0.00017427 -2.92567e-05 
         550      1.37028     0.472971  0.000180547 -2.92509e-05 
         550      1.39578     0.481209  0.000186975  -2.9245e-05 
         550      1.42152     0.489482   0.00019355  -2.9239e-05 
         550      1.44747     0.497781  0.000200267 -2.92329e-05 
         550      1.47368     0.506117  0.000207137 -2.92266e-05 
         550       1.5001     0.514473  0.000214147 -2.92203e-05 
         550      1.52677     0.522862  0.000221309 -2.92138e-05 
         550      1.55367     0.531265  0.000228612 -2.92072e-05 
         550      1.58081     0.539695  0.000236066 -2.92005e-05 
         550       1.6082     0.548141  0.000243665 -2.91938e-05 
         550      1.63579     0.556594    0.0002514 -2.91869e-05 
         550      1.66364     0.565064  0.000259283 -2.91799e-05 
         550      1.69171     0.573534  0.000267301 -2.91727e-05 
         550      1.72003     0.582014  0.000275462 -2.91655e-05 
         550      1.74857     0.590488  0.000283753 -2.91581e-05 
         550      1.77736     0.598965  0.000292185 -2.91505e-05 
         550      1.80636      0.60743  0.000300741 -2.91428e-05 
         550      1.83563      0.61589  0.000309432 -2.91349e-05 
         550      1.86512     0.624337  0.000318249 -2.91269e-05 
         550      1.89484     0.632759  0.000327181 -2.91187e-05 
         550       1.9248     0.641167  0.000336238 -2.91103e-05 
         550      1.95498     0.649543  0.000345403 -2.91018e-05 
         550      1.98542     0.657896  0.000354686 -2.90931e-05 
         550      2.01607      0.66621  0.000364069 -2.90843e-05 
         550      2.04698     0.674492   0.00037356 -2.90752e-05 
         550      2.07812     0.682734  0.000383148  -2.9066e-05 
         550      2.10947     0.690924   0.00039282 -2.90566e-05 
         550      2.14109     0.699071  0.000402586  -2.9047e-05 
         550      2.17291     0.707158  0.000412425 -2.90373e-05 
         550      2.20499     0.715193  0.000422346 -2.90273e-05 
         550      2.23728     0.723161  0.000432327 -2.90172e-05 
         550      2.26984     0.731068  0.000442378 -2.90068e-05 
         550      2.30263     0.738905  0.000452484 -2.89963e-05 
         550      2.33562     0.746662  0.000462629 -2.89856e-05 
         550      2.36888     0.754346  0.000472824 -2.89746e-05 
         550      2.40235     0.761942  0.000483043 -2.89635e-05 
         550      2.43608     0.769457  0.000493296 -2.89522e-05 
         550      2.47002     0.776876  0.000503559 -2.89406e-05 
         550      2.50421     0.784206   0.00051384 -2.89288e-05 
         550      2.53862     0.791432  0.000524114 -2.89168e-05 
         550      2.57329     0.798562  0.000534389 -2.89045e-05 
         550      2.60819     0.805585   0.00054465  -2.8892e-05 
         550       2.6433     0.812494  0.000554878 -2.88793e-05 
         550      2.67868     0.819296  0.000565083 -2.88663e-05 
         550      2.71426     0.825976  0.000575238 -2.88531e-05 
         550       2.7501     0.832542  0.000585352 -2.88396e-05 
         550      2.78615      0.83898    0.0005954 -2.88259e-05 
         550      2.82247     0.845298  0.000605389 -2.88119e-05 
         550      2.85902     0.851488  0.000615302 -2.87976e-05 
         550      2.89577     0.857543  0.000625123 -2.87831e-05 
         550      2.93279     0.863469  0.000634859 -2.87684e-05 
         550      2.97002     0.869255  0.000644487 -2.87533e-05 
         550       3.0075     0.874909  0.000654012 -2.87381e-05 
         550       3.0452     0.880418  0.000663413 -2.87225e-05 
         550      3.08316     0.885792  0.000672695 -2.87067e-05 
         550      3.12135     0.891024  0.000681844 -2.86907e-05 
         550      3.15975     0.896107  0.000690845 -2.86745e-05 
         550      3.19842     0.901051  0.000699705  -2.8658e-05 
         550      3.23728     0.905846  0.000708402 -2.86413e-05 
         550      3.27642     0.910499  0.000716944 -2.86243e-05 
         550      3.31576     0.915002  0.000725311 -2.86072e-05 
         550      3.35536     0.919363   0.00073351 -2.85898e-05 
         550      3.39517     0.923576  0.000741522 -2.85722e-05 
         550      3.43525     0.927646  0.000749356 -2.85544e-05 
         550      3.47555     0.931571  0.000756999 -2.85364e-05 
         550      3.51607      0.93535  0.000764442 -2.85182e-05 
         550      3.55685     0.938988  0.000771693 -2.84997e-05 
         550      3.59783     0.942483  0.000778737 -2.84809e-05 
         550      3.63908      0.94584  0.000785583 -2.84617e-05 
         550      3.68053     0.949057  0.000792219 -2.84422e-05 
         550      3.72225      0.95214  0.000798655 -2.84222e-05 
         550      3.76421     0.955088  0.000804879 -2.84019e-05 
         550      3.80636     0.957903  0.000810878 -2.83816e-05 
         550      3.84879      0.96059  0.000816672 -2.83611e-05 
         550      3.89142     0.963149  0.000822251 -2.83404e-05 
         550      3.93431     0.965585  0.000827624 -2.83195e-05 
         550      3.97741     0.967899  0.000832782 -2.82983e-05 
         550      4.02077     0.970096  0.000837734  -2.8277e-05 
         550      4.06434     0.972177  0.000842475 -2.82556e-05 
         550      4.10817     0.974148  0.000847014  -2.8234e-05 
         550      4.15224      0.97601  0.000851349 -2.82122e-05 
         550      4.19651     0.977767  0.000855481 -2.81903e-05 
         550      4.24106     0.979423  0.000859418 -2.81683e-05 
         550       4.2858      0.98098  0.000863159 -2.81461e-05 
         550      4.33081     0.982445  0.000866714 -2.81238e-05 
         550      4.37602     0.983818  0.000870081 -2.81014e-05 
         550       4.4215     0.985105  0.000873271 -2.80787e-05 
         550      4.46721     0.986308  0.000876284  -2.8056e-05 
         550      4.51313     0.987431  0.000879126 -2.80331e-05 
         550      4.55931     0.988479  0.000881804   -2.801e-05 
         550       4.6057     0.989454   0.00088432 -2.79868e-05 
         550      4.65235     0.990361  0.000886685 -2.79634e-05 
         550      4.69921     0.991202    0.0008889 -2.79398e-05 
         550      4.74633     0.991981  0.000890973  -2.7916e-05 
         550      4.79369     0.992702   0.00089291 -2.78921e-05 
         550      4.84125     0.993367  0.000894715 -2.78679e-05 
         550      4.88908      0.99398  0.000896396 -2.78436e-05 
         550      4.93711     0.994544  0.000897956 -2.78191e-05 
         550      4.98541     0.995062  0.000899405 -2.77944e-05 
         550      5.03391     0.995536  0.000900745 -2.77695e-05 
         550      5.08268     0.995971  0.000901985 -2.77444e-05 
         550      5.13165     0.996368  0.000903127 -2.77191e-05 
         550      5.18089      0.99673  0.000904179 -2.76936e-05 
         550      5.23037      0.99706  0.000905146  -2.7668e-05 
         550      5.28004     0.997359  0.000906032 -2.76422e-05 
         550      5.32999      0.99763  0.000906844 -2.76162e-05 
         550      5.38013     0.997876  0.000907585 -2.75901e-05 
         550      5.43055     0.998098  0.000908262 -2.75638e-05 
         550      5.48116     0.998298  0.000908877 -2.75374e-05 
         550      5.53204     0.998478  0.000909436 -2.75109e-05 
         550      5.58317      0.99864  0.000909942 -2.74842e-05 
         550      5.63448     0.998785    0.0009104 -2.74574e-05 
         550      5.68607     0.998914  0.000910814 -2.74305e-05 
         550      5.73786      0.99903  0.000911187 -2.74036e-05 
         550      5.78992     0.999133  0.000911522 -2.73765e-05 
         550      5.84218     0.999225  0.000911823 -2.73494e-05 
         550      5.89471     0.999306  0.000912092 -2.73222e-05 
         550      5.94748     0.999378  0.000912333 -2.72949e-05 
         550      6.00044     0.999442  0.000912547 -2.72676e-05 
         550      6.05367     0.999498  0.000912738 -2.72401e-05 
         550       6.1071     0.999547  0.000912907 -2.72127e-05 
         550      6.16081      0.99959  0.000913057 -2.71852e-05 
         550      6.21471     0.999628   0.00091319 -2.71576e-05 
         550      6.26889     0.999661  0.000913307 -2.71299e-05 
         550      6.32326      0.99969  0.000913409 -2.71022e-05 
         550       6.3779     0.999715  0.000913499 -2.70744e-05 
         550      6.43279     0.999737  0.000913577 -2.70465e-05 
         550      6.48786     0.999756  0.000913646 -2.70186e-05 
         550      6.54321     0.999772  0.000913705 -2.69906e-05 
         550      6.59876     0.999786  0.000913754 -2.69607e-05 
         550      6.65458     0.999799  0.000913799 -2.69303e-05 
         550      6.71059     0.999809  0.000913846 -2.68992e-05 
         550      6.76689     0.999818   0.00091389 -2.68684e-05 
         550      6.82341     0.999826  0.000913897 -2.68422e-05 
         550      6.88013     0.999832  0.000913913 -2.68145e-05 
         550      6.93713     0.999838  0.000913943 -2.67839e-05 
         550      6.99432     0.999843  0.000913969 -2.67535e-05 
         550      7.05178     0.999847  0.000913991 -2.67234e-05 
         550      7.10944      0.99985  0.000914008 -2.66933e-05 
         550      7.16738     0.999853  0.000914021 -2.66633e-05 
         550      7.22551     0.999856  0.000914031 -2.66333e-05 
         550      7.28391     0.999858  0.000914039 -2.66032e-05 
         550      7.34256     0.999859  0.000914044 -2.65731e-05 
         550      7.40139     0.999861  0.000914048 -2.65429e-05 
         550       7.4605     0.999862   0.00091405 -2.65125e-05 
         550       7.5198     0.999863  0.000914052  -2.6482e-05 
         550      7.57939     0.999864  0.000914054 -2.64513e-05 
         550      7.63916     0.999865  0.000914055 -2.64205e-05 
         550      7.69921     0.999866  0.000914057 -2.63895e-05 
         550       7.7595     0.999867  0.000914059 -2.63583e-05 
         550      7.81998     0.999867  0.000914062  -2.6327e-05 
         550      7.88073     0.999868  0.000914065 -2.62954e-05 
         550      7.94168     0.999868  0.000914068 -2.62638e-05 
         550      8.00291     0.999869  0.000914071 -2.62319e-05 
         550      8.06432     0.999869  0.000914074 -2.61999e-05 
         550      8.12602     0.999869  0.000914077 -2.61677e-05 
         550      8.18796      0.99987  0.000914079 -2.61354e-05 
         550      8.25008      0.99987  0.000914082  -2.6103e-05 
         550      8.31248      0.99987  0.000914083 -2.60704e-05 
         550      8.37507     0.999871  0.000914085 -2.60377e-05 
         550      8.43794     0.999871  0.000914085 -2.60049e-05 
         550        8.501     0.999871  0.000914086  -2.5972e-05 
         550      8.56434     0.999871  0.000914086  -2.5939e-05 
         550      8.62787     0.999872  0.000914086 -2.59058e-05 
         550      8.69169     0.999872  0.000914085 -2.58726e-05 
         550      8.75574     0.999872  0.000914085 -2.58393e-05 
         550      8.81997     0.999873  0.000914086 -2.58059e-05 
         550      8.88449     0.999873  0.000914086 -2.57724e-05 
         550      8.94919     0.999873  0.000914087 -2.57388e-05 
         550      9.01418     0.999873  0.000914089 -2.57051e-05 
         550      9.07935     0.999874  0.000914092 -2.56714e-05 
         550      9.14481     0.999874  0.000914094 -2.56375e-05 
         550      9.21051     0.999874  0.000914098 -2.56036e-05 
         550      9.27639     0.999874  0.000914101 -2.55696e-05 
         550      9.34255     0.999875  0.000914104 -2.55354e-05 
         550       9.4089     0.999875  0.000914107 -2.55012e-05 
         550      9.47553     0.999875  0.000914108 -2.54669e-05 
         550      9.54235     0.999875  0.000914109 -2.54324e-05 
         550      9.60945     0.999876  0.000914107 -2.53978e-05 
         550      9.67674     0.999876  0.000914105  -2.5363e-05 
         550      9.74432     0.999876  0.000914102  -2.5328e-05 
         550      9.81212     0.999876  0.000914101 -2.52927e-05 
         550      9.88012     0.999877  0.000914103 -2.52572e-05 
         550       9.9484     0.999877  0.000914112 -2.52213e-05 
         550      10.0169     0.999877  0.000914107 -2.51874e-05 
         550      10.0856     0.999878    0.0009141 -2.51532e-05 
         550      10.1545     0.999878    0.0009141 -2.51182e-05 
         550      10.2238     0.999878  0.000914102 -2.50824e-05 
         550      10.2932     0.999878  0.000914105 -2.50463e-05 
         550      10.3628     0.999879  0.000914109 -2.50098e-05 
         550      10.4328     0.999879  0.000914112 -2.49731e-05 
         550      10.5029     0.999879  0.000914114 -2.49363e-05 
         550      10.5733     0.999879  0.000914115 -2.48995e-05 
         550      10.6438      0.99988  0.000914115 -2.48627e-05 
         550      10.7147      0.99988  0.000914114 -2.48258e-05 
         550      10.7858      0.99988  0.000914113  -2.4789e-05 
         550      10.8571     0.999881  0.000914112 -2.47522e-05 
         550      10.9287     0.999881  0.000914112 -2.47154e-05 
         550      11.0004     0.999881  0.000914111 -2.46786e-05 
         550      11.0725     0.999882  0.000914111 -2.46418e-05 
         550      11.1447     0.999882  0.000914112 -2.46048e-05 
         550      11.2172     0.999882  0.000914113 -2.45678e-05 
         550      11.2899     0.999882  0.000914114 -2.45307e-05 
         550      11.3628     0.999883  0.000914116 -2.44934e-05 
         550      11.4361     0.999883  0.000914118 -2.44559e-05 
         550      11.5095     0.999883  0.000914121 -2.44182e-05 
         550      11.5831     0.999884  0.000914123 -2.43803e-05 
         550       11.657     0.999884  0.000914125 -2.43422e-05 
         550      11.7312     0.999884  0.000914127 -2.43039e-05 
         550      11.8055     0.999885  0.000914129 -2.42654e-05 
         550      11.8801     0.999885  0.000914131 -2.42266e-05 
         550       11.955     0.999885  0.000914132 -2.41877e-05 
         550        12.03     0.999886  0.000914133 -2.41487e-05 
         550      12.1053     0.999886  0.000914135 -2.41096e-05 
         550      12.1809     0.999886  0.000914136 -2.40705e-05 
         550      12.2567     0.999887  0.000914137 -2.40315e-05 
         550      12.3326     0.999887  0.000914138 -2.39927e-05 
         550      12.4089     0.999887  0.000914139 -2.39544e-05 
         550      12.4854     0.999887  0.000914139 -2.39158e-05 
         550      12.5621     0.999888   0.00091414 -2.38735e-05 
         550      12.6391     0.999888  0.000914142 -2.38312e-05 
         550      12.7162     0.999888  0.000914145 -2.37891e-05 
         550      12.7937     0.999889  0.000914147 -2.37472e-05 
         550      12.8713     0.999889   0.00091415 -2.37057e-05 
         550      12.9492     0.999889  0.000914152 -2.36645e-05 
         550      13.0273      0.99989  0.000914152 -2.36237e-05 
         550      13.1057      0.99989   0.00091415 -2.35834e-05 
         550      13.1843     0.999891  0.000914146 -2.35435e-05 
         550      13.2631     0.999891  0.000914141 -2.35039e-05 
         550      13.3422     0.999891  0.000914134 -2.34645e-05 
         550      13.4215     0.999891  0.000914129  -2.3425e-05 
         550       13.501     0.999892  0.000914131  -2.3385e-05 
         550      13.5807     0.999892  0.000914146 -2.33443e-05 
         550      13.6608     0.999892  0.000914184  -2.3302e-05 
         550       13.741     0.999893  0.000914158 -2.32636e-05 
         550      13.8215     0.999893  0.000914129 -2.32253e-05 
         550      13.9022     0.999894  0.000914125 -2.31852e-05 
         550      13.9831     0.999894  0.000914133 -2.31439e-05 
         550      14.0643     0.999894  0.000914144 -2.31021e-05 
         550      14.1457     0.999895  0.000914155 -2.30599e-05 
         550      14.2274     0.999895  0.000914161 -2.30176e-05 
         550      14.3092     0.999895  0.000914164 -2.29752e-05 
         550      14.3914     0.999896  0.000914162 -2.29326e-05 
         550      14.4738     0.999896  0.000914158 -2.28895e-05 
         550      14.5563     0.999896  0.000914152 -2.28458e-05 
         550      14.6392     0.999897  0.000914145 -2.28011e-05 
         550      14.7222     0.999897  0.000914137 -2.27551e-05 
         550      14.8055     0.999897  0.000914128 -2.27075e-05 
         550       14.889     0.999898  0.000914135 -2.26633e-05 
         550      14.9728     0.999898  0.000914154 -2.26228e-05 
         550      15.0568     0.999898  0.000914165 -2.25809e-05 
         550       15.141     0.999899   0.00091417  -2.2538e-05 
         550      15.2255     0.999899  0.000914171 -2.24943e-05 
         550      15.3102     0.999899  0.000914169 -2.24502e-05 
         550      15.3952       0.9999  0.000914166 -2.24059e-05 
         550      15.4803       0.9999  0.000914162 -2.23615e-05 
         550      15.5657       0.9999  0.000914159  -2.2317e-05 
         550      15.6514     0.999901  0.000914157 -2.22725e-05 
         550      15.7372     0.999901  0.000914156  -2.2228e-05 
         550      15.8234     0.999901  0.000914156 -2.21835e-05 
         550      15.9097     0.999902  0.000914158 -2.21389e-05 
         550      15.9963     0.999902  0.000914161 -2.20941e-05 
         550      16.0831     0.999902  0.000914165 -2.20491e-05 
         550      16.1702     0.999903  0.000914169 -2.20038e-05 
         550      16.2574     0.999903  0.000914173 -2.19583e-05 
         550       16.345     0.999903  0.000914176 -2.19123e-05 
         550      16.4328     0.999904  0.000914178 -2.18661e-05 
         550      16.5207     0.999904   0.00091418 -2.18197e-05 
         550       16.609     0.999905   0.00091418  -2.1773e-05 
         550      16.6974     0.999905  0.000914179 -2.17263e-05 
         550      16.7861     0.999905  0.000914178 -2.16797e-05 
         550       16.875     0.999906  0.000914176 -2.16333e-05 
         550      16.9642     0.999906  0.000914175 -2.15871e-05 
         550      17.0537     0.999907  0.000914174 -2.15414e-05 
         550      17.1433     0.999907  0.000914174  -2.1496e-05 
         550      17.2332     0.999907  0.000914175 -2.14509e-05 
         550      17.3232     0.999908  0.000914176 -2.14058e-05 
         550      17.4136     0.999908  0.000914175 -2.13601e-05 
         550      17.5041     0.999908  0.000914169 -2.13132e-05 
         550       17.595     0.999909  0.000914163 -2.12643e-05 
         550      17.6861     0.999909  0.000914173 -2.12151e-05 
         550      17.7773      0.99991  0.000914176  -2.1166e-05 
         550      17.8689      0.99991  0.000914175 -2.11172e-05 
         550      17.9606      0.99991  0.000914171  -2.1069e-05 
         550      18.0526     0.999911  0.000914168 -2.10214e-05 
         550      18.1448     0.999911  0.000914165 -2.09745e-05 
         550      18.2373     0.999912  0.000914164 -2.09282e-05 
         550      18.3299     0.999912  0.000914165 -2.08824e-05 
         550      18.4229     0.999912  0.000914168 -2.08369e-05 
         550      18.5161     0.999913  0.000914172 -2.07914e-05 
         550      18.6094     0.999913  0.000914179 -2.07459e-05 
         550      18.7031     0.999914  0.000914186    -2.07e-05 
         550      18.7969     0.999914  0.000914193 -2.06536e-05 
         550       18.891     0.999914    0.0009142 -2.06065e-05 
         550      18.9853     0.999915  0.000914206 -2.05587e-05 
         550      19.0799     0.999915   0.00091421   -2.051e-05 
         550      19.1748     0.999916  0.000914211 -2.04603e-05 
         550      19.2698     0.999916   0.00091421 -2.04098e-05 
         550      19.3651     0.999916  0.000914207 -2.03585e-05 
         550      19.4606     0.999917  0.000914201 -2.03065e-05 
         550      19.5563     0.999917  0.000914194  -2.0254e-05 
         550      19.6523     0.999918  0.000914185 -2.02012e-05 
         550      19.7485     0.999918  0.000914176 -2.01482e-05 
         550      19.8449     0.999918  0.000914167 -2.00954e-05 
         550      19.9417     0.999919   0.00091416  -2.0043e-05 
         550      20.0386     0.999919  0.000914155 -1.99912e-05 
         550      20.1357     0.999919  0.000914154 -1.99402e-05 
         550      20.2331      0.99992  0.000914158   -1.989e-05 
         550      20.3307      0.99992  0.000914166 -1.98408e-05 
         550      20.4286     0.999921  0.000914178 -1.97923e-05 
         550      20.5267     0.999921  0.000914194 -1.97442e-05 
         550       20.625     0.999921  0.000914211  -1.9696e-05 
         550      20.7236     0.999922  0.000914226 -1.96469e-05 
         550      20.8224     0.999922  0.000914233 -1.95959e-05 
         550      20.9215     0.999923  0.000914227 -1.95413e-05 
         550      21.0207     0.999923  0.000914196 -1.94814e-05 
         550      21.1202     0.999923  0.000914143 -1.94166e-05 
         550      21.2199     0.999924  0.000914185 -1.93747e-05 
         550      21.3199     0.999924  0.000914209 -1.93293e-05 
         550      21.4202     0.999925  0.000914221 -1.92814e-05 
         550      21.5206     0.999925  0.000914223 -1.92318e-05 
         550      21.6213     0.999925  0.000914219 -1.91809e-05 
         550      21.7222     0.999926  0.000914212 -1.91294e-05 
         550      21.8234     0.999926  0.000914204 -1.90773e-05 
         550      21.9247     0.999926  0.000914196 -1.90251e-05 
         550      22.0264     0.999927  0.000914189 -1.89727e-05 
         550      22.1282     0.999927  0.000914184 -1.89204e-05 
         550      22.2303     0.999928  0.000914181  -1.8868e-05 
         550      22.3327     0.999928  0.000914181 -1.88156e-05 
         550      22.4352     0.999928  0.000914184 -1.87631e-05 
         550       22.538     0.999929  0.000914189 -1.87104e-05 
         550       22.641     0.999929  0.000914196 -1.86577e-05 
         550      22.7443      0.99993  0.000914205 -1.86049e-05 
         550      22.8477      0.99993  0.000914214 -1.85522e-05 
         550      22.9515     0.999931  0.000914222 -1.84997e-05 
         550      23.0555     0.999931  0.000914226  -1.8448e-05 
         550      23.1597     0.999932  0.000914221 -1.83975e-05 
         550      23.2642     0.999932  0.000914203 -1.83491e-05 
         550      23.3688     0.999933  0.000914163 -1.83036e-05 
         550      23.4737     0.999933  0.000914148 -1.82492e-05 
         550      23.5788     0.999933  0.000914176 -1.81843e-05 
         550      23.6843     0.999934   0.00091419 -1.81231e-05 
         550      23.7899     0.999934  0.000914194 -1.80646e-05 
         550      23.8957     0.999935  0.000914192 -1.80079e-05 
         550      24.0018     0.999935  0.000914189 -1.79523e-05 