Variables = x, y, u, v, p

Zone, I=800, F=POINT
         300            0            0            0 -3.55978e-05 
         300     0.000117   4.8684e-05  2.24794e-12 -3.55977e-05 
         300     0.000469  0.000195152  3.61055e-11 -3.55976e-05 
         300     0.001056  0.000439404   1.8303e-10 -3.55974e-05 
         300     0.001879  0.000781856  5.79477e-10 -3.55972e-05 
         300     0.002936   0.00122168  1.41479e-09 -3.55968e-05 
         300     0.004228   0.00175928  2.93391e-09 -3.55964e-05 
         300     0.005755   0.00239467  5.43585e-09 -3.55959e-05 
         300     0.007518   0.00312826  9.27645e-09 -3.55953e-05 
         300     0.009515   0.00395921  1.48592e-08 -3.55946e-05 
         300     0.011746   0.00488754  2.26442e-08 -3.55939e-05 
         300     0.014214   0.00591448  3.31597e-08 -3.55931e-05 
         300     0.016915   0.00703837  4.69594e-08 -3.55922e-05 
         300     0.019853   0.00826088  6.46891e-08 -3.55913e-05 
         300     0.023023   0.00957993  8.69967e-08 -3.55902e-05 
         300     0.026431     0.010998  1.14658e-07 -3.55891e-05 
         300     0.030075    0.0125143  1.48453e-07 -3.55879e-05 
         300      0.03395    0.0141267  1.89173e-07 -3.55866e-05 
         300     0.038063    0.0158381  2.37785e-07 -3.55853e-05 
         300     0.042408    0.0176461  2.95172e-07 -3.55839e-05 
         300     0.046991    0.0195531  3.62417e-07 -3.55823e-05 
         300     0.051805    0.0215562  4.40476e-07 -3.55808e-05 
         300     0.056859    0.0236592  5.30612e-07 -3.55791e-05 
         300     0.062143    0.0258578  6.33816e-07 -3.55774e-05 
         300     0.067666    0.0281559  7.51483e-07 -3.55756e-05 
         300     0.073425    0.0305522  8.84842e-07 -3.55737e-05 
         300     0.079413    0.0330438  1.03505e-06 -3.55717e-05 
         300     0.085642    0.0356356  1.20379e-06 -3.55697e-05 
         300       0.0921    0.0383228  1.39218e-06 -3.55675e-05 
         300     0.098799    0.0411101  1.60206e-06 -3.55653e-05 
         300     0.105727    0.0439927  1.83461e-06 -3.55631e-05 
         300     0.112896    0.0469756  2.09183e-06 -3.55607e-05 
         300       0.1203    0.0500562  2.37519e-06 -3.55583e-05 
         300     0.127932    0.0532316   2.6861e-06 -3.55558e-05 
         300     0.135806    0.0565076  3.02691e-06 -3.55532e-05 
         300     0.143909    0.0598788  3.39886e-06 -3.55505e-05 
         300     0.152253    0.0633502  3.80438e-06 -3.55478e-05 
         300     0.160825    0.0669163  4.24477e-06  -3.5545e-05 
         300     0.169639     0.070583  4.72271e-06 -3.55421e-05 
         300     0.178688    0.0743472  5.23991e-06 -3.55391e-05 
         300     0.187965    0.0782062    5.798e-06 -3.55361e-05 
         300     0.197484    0.0821656  6.39998e-06 -3.55329e-05 
         300      0.20723    0.0862191  7.04708e-06 -3.55297e-05 
         300      0.21722    0.0903739  7.74268e-06 -3.55264e-05 
         300     0.227436    0.0946223  8.48782e-06 -3.55231e-05 
         300     0.237895    0.0989714  9.28608e-06 -3.55196e-05 
         300     0.248581     0.103414  1.01387e-05 -3.55161e-05 
         300      0.25951     0.107958  1.10493e-05 -3.55125e-05 
         300     0.270675     0.112599  1.20198e-05 -3.55089e-05 
         300     0.282065     0.117333   1.3052e-05 -3.55051e-05 
         300       0.2937     0.122168  1.41501e-05 -3.55013e-05 
         300      0.30556     0.127096  1.53149e-05 -3.54974e-05 
         300     0.317665     0.132125  1.65511e-05 -3.54934e-05 
         300     0.329995     0.137246  1.78594e-05 -3.54893e-05 
         300     0.342569     0.142468  1.92446e-05 -3.54852e-05 
         300     0.355379     0.147786  2.07087e-05  -3.5481e-05 
         300     0.368414     0.153196  2.22532e-05 -3.54767e-05 
         300     0.381693     0.158705  2.38833e-05 -3.54723e-05 
         300     0.395198     0.164307  2.55999e-05 -3.54678e-05 
         300     0.408948     0.170008  2.74083e-05 -3.54633e-05 
         300     0.422921       0.1758  2.93086e-05 -3.54586e-05 
         300     0.437141     0.181691  3.13073e-05 -3.54539e-05 
         300     0.451585     0.187673  3.34042e-05 -3.54491e-05 
         300     0.466275     0.193753  3.56056e-05 -3.54443e-05 
         300       0.4812     0.199928  3.79132e-05 -3.54393e-05 
         300     0.496348     0.206191  4.03282e-05 -3.54343e-05 
         300     0.511744     0.212553  4.28578e-05 -3.54291e-05 
         300     0.527361     0.219002  4.55009e-05 -3.54239e-05 
         300     0.543227     0.225549  4.82656e-05 -3.54186e-05 
         300     0.559314     0.232182  5.11502e-05 -3.54133e-05 
         300      0.57565     0.238912  5.41631e-05 -3.54078e-05 
         300      0.59222     0.245733   5.7305e-05 -3.54022e-05 
         300     0.609012     0.252638  6.05766e-05 -3.53966e-05 
         300     0.626053     0.259638  6.39863e-05 -3.53909e-05 
         300     0.643315     0.266722  6.75327e-05  -3.5385e-05 
         300     0.660826     0.273899  7.12247e-05 -3.53791e-05 
         300     0.678557     0.281157  7.50593e-05  -3.5373e-05 
         300     0.696538     0.288508  7.90461e-05 -3.53669e-05 
         300     0.714754     0.295944  8.31853e-05 -3.53607e-05 
         300      0.73319     0.303458  8.74764e-05 -3.53544e-05 
         300     0.751876     0.311062  9.19298e-05  -3.5348e-05 
         300     0.770782     0.318742  9.65416e-05 -3.53415e-05 
         300     0.789937     0.326508  0.000101322 -3.53349e-05 
         300     0.809313     0.334349  0.000106267 -3.53282e-05 
         300     0.828939     0.342275  0.000111387 -3.53214e-05 
         300     0.848784     0.350271  0.000116678 -3.53144e-05 
         300      0.86888     0.358349   0.00012215 -3.53074e-05 
         300     0.889212     0.366502  0.000127803 -3.53002e-05 
         300     0.909761      0.37472  0.000133633 -3.52929e-05 
         300     0.930563     0.383016  0.000139653 -3.52855e-05 
         300     0.951582     0.391374  0.000145857 -3.52779e-05 
         300     0.972854     0.399806  0.000152256 -3.52703e-05 
         300     0.994343     0.408296  0.000158841 -3.52625e-05 
         300      1.01608     0.416855  0.000165627 -3.52545e-05 
         300      1.03806     0.425476  0.000172609 -3.52465e-05 
         300      1.06025     0.434148  0.000179783 -3.52383e-05 
         300       1.0827     0.442883  0.000187163 -3.52299e-05 
         300      1.10536     0.451665  0.000194738 -3.52214e-05 
         300      1.12828     0.460504  0.000202522 -3.52128e-05 
         300      1.15142     0.469385  0.000210503  -3.5204e-05 
         300       1.1748     0.478318  0.000218694 -3.51951e-05 
         300      1.19842     0.487293   0.00022709  -3.5186e-05 
         300      1.22226     0.496301  0.000235685 -3.51767e-05 
         300      1.24635     0.505351  0.000244492 -3.51672e-05 
         300      1.27066     0.514427  0.000253496 -3.51576e-05 
         300      1.29522      0.52354  0.000262712 -3.51477e-05 
         300         1.32     0.532672  0.000272124 -3.51377e-05 
         300      1.34503     0.541832  0.000281745 -3.51275e-05 
         300      1.37028     0.551004  0.000291558  -3.5117e-05 
         300      1.39578     0.560197  0.000301577 -3.51063e-05 
         300      1.42152       0.5694  0.000311792 -3.50954e-05 
         300      1.44747     0.578602  0.000322193 -3.50844e-05 
         300      1.47368     0.587814  0.000332795 -3.50731e-05 
         300       1.5001     0.597016  0.000343578 -3.50618e-05 
         300      1.52677     0.606217  0.000354553 -3.50501e-05 
         300      1.55367       0.6154  0.000365695 -3.50381e-05 
         300      1.58081     0.624575  0.000377018 -3.50258e-05 
         300       1.6082     0.633727  0.000388509 -3.50133e-05 
         300      1.63579     0.642847  0.000400156 -3.50006e-05 
         300      1.66364     0.651943   0.00041197 -3.49875e-05 
         300      1.69171     0.660996  0.000423927 -3.49741e-05 
         300      1.72003     0.670015   0.00043604 -3.49605e-05 
         300      1.74857     0.678981  0.000448281 -3.49465e-05 
         300      1.77736     0.687903  0.000460664 -3.49323e-05 
         300      1.80636     0.696761   0.00047316 -3.49177e-05 
         300      1.83563     0.705564  0.000485779 -3.49028e-05 
         300      1.86512       0.7143  0.000498504 -3.48876e-05 
         300      1.89484     0.722956  0.000511314  -3.4872e-05 
         300       1.9248     0.731542   0.00052422 -3.48562e-05 
         300      1.95498     0.740037  0.000537189 -3.48399e-05 
         300      1.98542      0.74845  0.000550233 -3.48234e-05 
         300      2.01607     0.756764   0.00056332 -3.48065e-05 
         300      2.04698     0.764984  0.000576459 -3.47892e-05 
         300      2.07812     0.773101  0.000589627 -3.47716e-05 
         300      2.10947     0.781102  0.000602802 -3.47537e-05 
         300      2.14109     0.788996  0.000615994 -3.47353e-05 
         300      2.17291     0.796764  0.000629168 -3.47166e-05 
         300      2.20499     0.804414  0.000642333 -3.46976e-05 
         300      2.23728     0.811931  0.000655456 -3.46781e-05 
         300      2.26984      0.81932  0.000668544 -3.46582e-05 
         300      2.30263     0.826573  0.000681574  -3.4638e-05 
         300      2.33562     0.833679  0.000694523 -3.46173e-05 
         300      2.36888     0.840646  0.000707399 -3.45963e-05 
         300      2.40235     0.847458  0.000720168 -3.45748e-05 
         300      2.43608     0.854124  0.000732838 -3.45529e-05 
         300      2.47002     0.860629  0.000745375 -3.45306e-05 
         300      2.50421     0.866982  0.000757788 -3.45078e-05 
         300      2.53862     0.873168  0.000770042 -3.44846e-05 
         300      2.57329     0.879197  0.000782147  -3.4461e-05 
         300      2.60819     0.885059   0.00079408 -3.44369e-05 
         300       2.6433      0.89075   0.00080582 -3.44124e-05 
         300      2.67868     0.896276  0.000817373 -3.43875e-05 
         300      2.71426     0.901628  0.000828711 -3.43621e-05 
         300       2.7501     0.906813  0.000839841 -3.43363e-05 
         300      2.78615     0.911822  0.000850735 -3.43101e-05 
         300      2.82247     0.916664  0.000861401 -3.42834e-05 
         300      2.85902     0.921333  0.000871821 -3.42564e-05 
         300      2.89577     0.925827  0.000881978  -3.4229e-05 
         300      2.93279     0.930154   0.00089188 -3.42011e-05 
         300      2.97002     0.934307  0.000901506 -3.41729e-05 
         300       3.0075     0.938295  0.000910864 -3.41444e-05 
         300       3.0452     0.942113  0.000919933 -3.41155e-05 
         300      3.08316     0.945769  0.000928725 -3.40862e-05 
         300      3.12135     0.949262  0.000937227 -3.40565e-05 
         300      3.15975     0.952592  0.000945431 -3.40266e-05 
         300      3.19842     0.955767  0.000953348 -3.39962e-05 
         300      3.23728     0.958784  0.000960964 -3.39655e-05 
         300      3.27642     0.961652  0.000968292 -3.39343e-05 
         300      3.31576      0.96437  0.000975321 -3.39027e-05 
         300      3.35536     0.966945  0.000982064 -3.38704e-05 
         300      3.39517     0.969378  0.000988511 -3.38376e-05 
         300      3.43525     0.971676  0.000994676 -3.38039e-05 
         300      3.47555     0.973841   0.00100056 -3.37694e-05 
         300      3.51607     0.975876   0.00100615 -3.37337e-05 
         300      3.55685     0.977789   0.00101147 -3.36966e-05 
         300      3.59783     0.979581   0.00101651 -3.36579e-05 
         300      3.63908     0.981259   0.00102128 -3.36172e-05 
         300      3.68053     0.982826   0.00102576  -3.3574e-05 
         300      3.72225     0.984288   0.00102996 -3.35279e-05 
         300      3.76421      0.98565   0.00103394 -3.34843e-05 
         300      3.80636     0.986914   0.00103777 -3.34507e-05 
         300      3.84879     0.988087   0.00104132 -3.34161e-05 
         300      3.89142     0.989172   0.00104463 -3.33814e-05 
         300      3.93431     0.990176   0.00104771  -3.3347e-05 
         300      3.97741     0.991101   0.00105058 -3.33133e-05 
         300      4.02077     0.991953   0.00105326 -3.32802e-05 
         300      4.06434     0.992735   0.00105574  -3.3248e-05 
         300      4.10817     0.993453   0.00105805 -3.32164e-05 
         300      4.15224     0.994109   0.00106019 -3.31853e-05 
         300      4.19651     0.994708   0.00106216 -3.31545e-05 
         300      4.24106     0.995255   0.00106398 -3.31237e-05 
         300       4.2858     0.995751   0.00106564 -3.30925e-05 
         300      4.33081     0.996202   0.00106717 -3.30607e-05 
         300      4.37602     0.996609   0.00106856 -3.30279e-05 
         300       4.4215     0.996978   0.00106983 -3.29938e-05 
         300      4.46721      0.99731   0.00107097 -3.29583e-05 
         300      4.51313     0.997609   0.00107201 -3.29211e-05 
         300      4.55931     0.997877   0.00107295  -3.2882e-05 
         300       4.6057     0.998117    0.0010738 -3.28411e-05 
         300      4.65235     0.998332   0.00107456 -3.27982e-05 
         300      4.69921     0.998523   0.00107525 -3.27535e-05 
         300      4.74633     0.998693   0.00107587 -3.27072e-05 
         300      4.79369     0.998844   0.00107644 -3.26595e-05 
         300      4.84125     0.998977   0.00107694 -3.26108e-05 
         300      4.88908     0.999095    0.0010774 -3.25616e-05 
         300      4.93711     0.999199   0.00107782 -3.25123e-05 
         300      4.98541      0.99929   0.00107819 -3.24637e-05 
         300      5.03391      0.99937   0.00107852 -3.24165e-05 
         300      5.08268      0.99944   0.00107881 -3.23715e-05 
         300      5.13165     0.999501   0.00107907 -3.23298e-05 
         300      5.18089     0.999554   0.00107929 -3.22923e-05 
         300      5.23037       0.9996   0.00107947 -3.22604e-05 
         300      5.28004      0.99964   0.00107962 -3.22353e-05 
         300      5.32999     0.999674   0.00107975 -3.22185e-05 
         300      5.38013     0.999704   0.00107985 -3.22116e-05 
         300      5.43055     0.999729   0.00107999   -3.215e-05 
         300      5.48116     0.999751   0.00108012  -3.2087e-05 
         300      5.53204      0.99977   0.00108025 -3.20294e-05 
         300      5.58317     0.999785   0.00108044 -3.19691e-05 
         300      5.63448     0.999799   0.00108029  -3.1949e-05 
         300      5.68607      0.99981   0.00108024 -3.19435e-05 
         300      5.73786      0.99982   0.00108027   -3.191e-05 
         300      5.78992     0.999828   0.00108037 -3.18127e-05 
         300      5.84218     0.999835   0.00108042  -3.1741e-05 
         300      5.89471     0.999841   0.00108044  -3.1686e-05 
         300      5.94748     0.999845   0.00108046 -3.16412e-05 
         300      6.00044     0.999849   0.00108048 -3.16018e-05 
         300      6.05367     0.999853   0.00108051 -3.15641e-05 
         300       6.1071     0.999856   0.00108054 -3.15259e-05 
         300      6.16081     0.999858   0.00108058 -3.14857e-05 
         300      6.21471      0.99986   0.00108061  -3.1443e-05 
         300      6.26889     0.999862   0.00108063 -3.13975e-05 
         300      6.32326     0.999863   0.00108065 -3.13497e-05 
         300       6.3779     0.999864   0.00108066    -3.13e-05 
         300      6.43279     0.999865   0.00108066 -3.12492e-05 
         300      6.48786     0.999866   0.00108065 -3.11981e-05 
         300      6.54321     0.999867   0.00108063 -3.11472e-05 
         300      6.59876     0.999867   0.00108061 -3.10972e-05 
         300      6.65458     0.999868   0.00108059 -3.10486e-05 
         300      6.71059     0.999868   0.00108058 -3.10016e-05 
         300      6.76689     0.999869   0.00108056 -3.09562e-05 
         300      6.82341     0.999869   0.00108056 -3.09123e-05 
         300      6.88013     0.999869   0.00108056 -3.08699e-05 
         300      6.93713      0.99987   0.00108057 -3.08283e-05 
         300      6.99432      0.99987   0.00108058 -3.07872e-05 
         300      7.05178      0.99987    0.0010806  -3.0746e-05 
         300      7.10944     0.999871   0.00108062 -3.07043e-05 
         300      7.16738     0.999871   0.00108064 -3.06613e-05 
         300      7.22551     0.999871   0.00108066 -3.06168e-05 
         300      7.28391     0.999871   0.00108067 -3.05701e-05 
         300      7.34256     0.999872   0.00108068 -3.05211e-05 
         300      7.40139     0.999872   0.00108068 -3.04694e-05 
         300       7.4605     0.999872   0.00108068 -3.04147e-05 
         300       7.5198     0.999872   0.00108068 -3.03565e-05 
         300      7.57939     0.999873   0.00108069 -3.02941e-05 
         300      7.63916     0.999873   0.00108069 -3.02265e-05 
         300      7.69921     0.999873   0.00108069 -3.01516e-05 
         300       7.7595     0.999873   0.00108073 -3.00938e-05 
         300      7.81998     0.999873   0.00108073 -3.00377e-05 
         300      7.88073     0.999873    0.0010807 -2.99763e-05 
         300      7.94168     0.999874   0.00108067 -2.99127e-05 
         300      8.00291     0.999874   0.00108065 -2.98489e-05 
         300      8.06432     0.999874   0.00108066 -2.97864e-05 
         300      8.12602     0.999874   0.00108067 -2.97261e-05 
         300      8.18796     0.999875    0.0010807 -2.96685e-05 
         300      8.25008     0.999875   0.00108073 -2.96138e-05 
         300      8.31248     0.999875   0.00108075 -2.95616e-05 
         300      8.37507     0.999875   0.00108077 -2.95117e-05 
         300      8.43794     0.999876   0.00108077 -2.94635e-05 
         300        8.501     0.999876   0.00108076 -2.94166e-05 
         300      8.56434     0.999876   0.00108073 -2.93701e-05 
         300      8.62787     0.999876   0.00108069 -2.93237e-05 
         300      8.69169     0.999876   0.00108065 -2.92766e-05 
         300      8.75574     0.999877    0.0010806 -2.92285e-05 
         300      8.81997     0.999877   0.00108056 -2.91791e-05 
         300      8.88449     0.999877   0.00108053  -2.9128e-05 
         300      8.94919     0.999877   0.00108051 -2.90752e-05 
         300      9.01418     0.999877   0.00108051 -2.90207e-05 
         300      9.07935     0.999878   0.00108053 -2.89645e-05 
         300      9.14481     0.999878   0.00108057 -2.89068e-05 
         300      9.21051     0.999878   0.00108062 -2.88479e-05 
         300      9.27639     0.999878   0.00108068 -2.87882e-05 
         300      9.34255     0.999879   0.00108075  -2.8728e-05 
         300       9.4089     0.999879   0.00108081 -2.86677e-05 
         300      9.47553     0.999879   0.00108086 -2.86075e-05 
         300      9.54235      0.99988   0.00108089  -2.8548e-05 
         300      9.60945      0.99988   0.00108089 -2.84891e-05 
         300      9.67674      0.99988   0.00108087 -2.84311e-05 
         300      9.74432      0.99988   0.00108081 -2.83739e-05 
         300      9.81212     0.999881   0.00108074 -2.83174e-05 
         300      9.88012     0.999881   0.00108064 -2.82615e-05 
         300       9.9484     0.999881   0.00108054 -2.82056e-05 
         300      10.0169     0.999881   0.00108045 -2.81494e-05 
         300      10.0856     0.999881   0.00108039 -2.80922e-05 
         300      10.1545     0.999882   0.00108039 -2.80336e-05 
         300      10.2238     0.999882   0.00108046  -2.7973e-05 
         300      10.2932     0.999882   0.00108061 -2.79102e-05 
         300      10.3628     0.999882   0.00108083 -2.78451e-05 
         300      10.4328     0.999882   0.00108108  -2.7778e-05 
         300      10.5029     0.999883    0.0010813 -2.77102e-05 
         300      10.5733     0.999883   0.00108134 -2.76434e-05 
         300      10.6438     0.999884   0.00108098 -2.75766e-05 
         300      10.7147     0.999884   0.00107962 -2.74516e-05 
         300      10.7858     0.999885   0.00107938 -2.76611e-05 
         300      10.8571     0.999885   0.00108015 -2.75541e-05 
         300      10.9287     0.999885   0.00108067 -2.74612e-05 
         300      11.0004     0.999885   0.00108097 -2.73784e-05 
         300      11.0725     0.999885   0.00108114 -2.72883e-05 
         300      11.1447     0.999885   0.00108118 -2.72062e-05 
         300      11.2172     0.999886   0.00108111 -2.71302e-05 
         300      11.2899     0.999886     0.001081 -2.70579e-05 
         300      11.3628     0.999886   0.00108086 -2.69875e-05 
         300      11.4361     0.999887   0.00108073 -2.69179e-05 
         300      11.5095     0.999887   0.00108061 -2.68484e-05 
         300      11.5831     0.999887   0.00108052 -2.67787e-05 
         300       11.657     0.999887   0.00108046 -2.67087e-05 
         300      11.7312     0.999888   0.00108043 -2.66386e-05 
         300      11.8055     0.999888   0.00108043 -2.65687e-05 
         300      11.8801     0.999888   0.00108046 -2.64993e-05 
         300       11.955     0.999889   0.00108051 -2.64306e-05 
         300        12.03     0.999889   0.00108058  -2.6363e-05 
         300      12.1053     0.999889   0.00108066 -2.62967e-05 
         300      12.1809     0.999889   0.00108073 -2.62318e-05 
         300      12.2567      0.99989    0.0010808 -2.61683e-05 
         300      12.3326      0.99989   0.00108086  -2.6106e-05 
         300      12.4089      0.99989   0.00108091 -2.60448e-05 
         300      12.4854     0.999891   0.00108094 -2.59844e-05 
         300      12.5621     0.999891   0.00108095 -2.59243e-05 
         300      12.6391     0.999891   0.00108093 -2.58641e-05 
         300      12.7162     0.999892   0.00108091 -2.58033e-05 
         300      12.7937     0.999892   0.00108086 -2.57414e-05 
         300      12.8713     0.999892   0.00108081  -2.5678e-05 
         300      12.9492     0.999893   0.00108074 -2.56125e-05 
         300      13.0273     0.999893   0.00108068 -2.55449e-05 
         300      13.1057     0.999893   0.00108062 -2.54747e-05 
         300      13.1843     0.999894   0.00108056 -2.54022e-05 
         300      13.2631     0.999894   0.00108052 -2.53273e-05 
         300      13.3422     0.999894    0.0010805 -2.52506e-05 
         300      13.4215     0.999894    0.0010805 -2.51725e-05 
         300       13.501     0.999895   0.00108052 -2.50937e-05 
         300      13.5807     0.999895   0.00108056 -2.50154e-05 
         300      13.6608     0.999895   0.00108062 -2.49384e-05 
         300       13.741     0.999895    0.0010807  -2.4864e-05 
         300      13.8215     0.999895   0.00108078 -2.47933e-05 
         300      13.9022     0.999896   0.00108086 -2.47273e-05 
         300      13.9831     0.999896   0.00108094  -2.4667e-05 
         300      14.0643     0.999896   0.00108099 -2.46126e-05 
         300      14.1457     0.999897   0.00108102 -2.45641e-05 
         300      14.2274     0.999897   0.00108101 -2.45203e-05 
         300      14.3092     0.999897   0.00108096 -2.44793e-05 
         300      14.3914     0.999898   0.00108087 -2.44374e-05 
         300      14.4738     0.999899   0.00108075 -2.43891e-05 
         300      14.5563     0.999899   0.00108063  -2.4327e-05 
         300      14.6392       0.9999   0.00108053 -2.42404e-05 
         300      14.7222       0.9999   0.00108052 -2.41156e-05 
         300      14.8055       0.9999   0.00108066 -2.39348e-05 
         300       14.889       0.9999   0.00108108 -2.36758e-05 
         300      14.9728       0.9999   0.00108088 -2.36797e-05 
         300      15.0568     0.999899    0.0010806 -2.37198e-05 
         300       15.141     0.999899   0.00108051 -2.36934e-05 
         300      15.2255       0.9999   0.00108054 -2.36244e-05 
         300      15.3102       0.9999   0.00108063 -2.35331e-05 
         300      15.3952     0.999901   0.00108072 -2.34359e-05 
         300      15.4803     0.999902   0.00108077 -2.33473e-05 
         300      15.5657     0.999903   0.00108074 -2.32796e-05 
         300      15.6514     0.999903   0.00108088  -2.3217e-05 
         300      15.7372     0.999903   0.00108096 -2.31564e-05 
         300      15.8234     0.999903   0.00108096 -2.30968e-05 
         300      15.9097     0.999904    0.0010809 -2.30362e-05 
         300      15.9963     0.999904   0.00108083 -2.29734e-05 
         300      16.0831     0.999904   0.00108074 -2.29078e-05 
         300      16.1702     0.999904   0.00108067  -2.2839e-05 
         300      16.2574     0.999905   0.00108061 -2.27672e-05 
         300       16.345     0.999905   0.00108058 -2.26926e-05 
         300      16.4328     0.999906   0.00108058 -2.26156e-05 
         300      16.5207     0.999906   0.00108059 -2.25369e-05 
         300       16.609     0.999906   0.00108063 -2.24567e-05 
         300      16.6974     0.999907   0.00108067 -2.23758e-05 
         300      16.7861     0.999907   0.00108073 -2.22944e-05 
         300       16.875     0.999907   0.00108078 -2.22129e-05 
         300      16.9642     0.999908   0.00108083 -2.21316e-05 
         300      17.0537     0.999908   0.00108087 -2.20505e-05 
         300      17.1433     0.999908   0.00108089 -2.19698e-05 
         300      17.2332     0.999909    0.0010809 -2.18894e-05 
         300      17.3232     0.999909   0.00108088 -2.18091e-05 
         300      17.4136     0.999909   0.00108086 -2.17287e-05 
         300      17.5041      0.99991   0.00108082 -2.16481e-05 
         300       17.595      0.99991   0.00108077 -2.15669e-05 
         300      17.6861     0.999911   0.00108073 -2.14851e-05 
         300      17.7773     0.999911   0.00108069 -2.14025e-05 
         300      17.8689     0.999911   0.00108066 -2.13191e-05 
         300      17.9606     0.999912   0.00108064 -2.12348e-05 
         300      18.0526     0.999912   0.00108065 -2.11498e-05 
         300      18.1448     0.999912   0.00108067 -2.10644e-05 
         300      18.2373     0.999912   0.00108072 -2.09789e-05 
         300      18.3299     0.999913   0.00108078 -2.08937e-05 
         300      18.4229     0.999913   0.00108085 -2.08092e-05 
         300      18.5161     0.999913   0.00108092  -2.0726e-05 
         300      18.6094     0.999913   0.00108097 -2.06443e-05 
         300      18.7031     0.999914   0.00108099 -2.05642e-05 
         300      18.7969     0.999914   0.00108098 -2.04856e-05 
         300       18.891     0.999915   0.00108091 -2.04076e-05 
         300      18.9853     0.999915   0.00108081  -2.0329e-05 
         300      19.0799     0.999916   0.00108069  -2.0247e-05 
         300      19.1748     0.999917   0.00108057 -2.01583e-05 
         300      19.2698     0.999918   0.00108055 -2.00576e-05 
         300      19.3651     0.999919   0.00108072 -1.99378e-05 
         300      19.4606      0.99992   0.00108113 -1.98055e-05 
         300      19.5563      0.99992   0.00108079 -1.97775e-05 
         300      19.6523     0.999919   0.00108063 -1.97337e-05 
         300      19.7485     0.999919    0.0010806 -1.96775e-05 
         300      19.8449     0.999918   0.00108064 -1.96116e-05 
         300      19.9417     0.999918   0.00108072 -1.95378e-05 
         300      20.0386     0.999918   0.00108082 -1.94576e-05 
         300      20.1357     0.999918    0.0010809 -1.93723e-05 
         300      20.2331     0.999918   0.00108097 -1.92826e-05 
         300      20.3307     0.999919     0.001081 -1.91893e-05 
         300      20.4286      0.99992   0.00108101 -1.90933e-05 
         300      20.5267     0.999921   0.00108099 -1.89957e-05 
         300       20.625     0.999922   0.00108096 -1.88977e-05 
         300      20.7236     0.999923   0.00108091 -1.88012e-05 
         300      20.8224     0.999924   0.00108087 -1.87084e-05 
         300      20.9215     0.999924   0.00108083 -1.86221e-05 
         300      21.0207     0.999925   0.00108082  -1.8546e-05 
         300      21.1202     0.999924   0.00108082  -1.8484e-05 
         300      21.2199     0.999924   0.00108082 -1.84411e-05 
         300      21.3199     0.999924   0.00108081 -1.83496e-05 
         300      21.4202     0.999924   0.00108081 -1.82392e-05 
         300      21.5206     0.999924   0.00108082 -1.81361e-05 
         300      21.6213     0.999925   0.00108082 -1.80381e-05 
         300      21.7222     0.999925   0.00108082  -1.7944e-05 
         300      21.8234     0.999925   0.00108082 -1.78527e-05 
         300      21.9247     0.999925   0.00108082 -1.77635e-05 
         300      22.0264     0.999926   0.00108082 -1.76758e-05 
         300      22.1282     0.999926   0.00108082 -1.75896e-05 
         300      22.2303     0.999927   0.00108082 -1.75045e-05 
         300      22.3327     0.999927   0.00108082 -1.74203e-05 
         300      22.4352     0.999928   0.00108082 -1.73371e-05 
         300       22.538     0.999929   0.00108082 -1.72546e-05 
         300       22.641     0.999929   0.00108082 -1.71728e-05 
         300      22.7443      0.99993   0.00108082 -1.70914e-05 
         300      22.8477      0.99993   0.00108082 -1.70102e-05 
         300      22.9515     0.999931   0.00108082 -1.69288e-05 
         300      23.0555     0.999931   0.00108081  -1.6847e-05 
         300      23.1597     0.999932    0.0010808 -1.67644e-05 
         300      23.2642     0.999932   0.00108078 -1.66806e-05 
         300      23.3688     0.999932   0.00108077 -1.65953e-05 
         300      23.4737     0.999932   0.00108075 -1.65081e-05 
         300      23.5788     0.999933   0.00108073 -1.64186e-05 
         300      23.6843     0.999933    0.0010807 -1.63267e-05 
         300      23.7899     0.999933   0.00108068 -1.62322e-05 
         300      23.8957     0.999934   0.00108066 -1.61352e-05 
         300      24.0018     0.999934   0.00108064 -1.60357e-05 