Variables = x, y, u, v, p

Zone, I=800, F=POINT
         200            0            0            0 -4.21945e-05 
         200     0.000117  5.30535e-05  2.91186e-12 -4.21944e-05 
         200     0.000469  0.000212668  4.67909e-11 -4.21943e-05 
         200     0.001056  0.000478842  2.37218e-10  -4.2194e-05 
         200     0.001879  0.000852031  7.51061e-10 -4.21937e-05 
         200     0.002936   0.00133133  1.83373e-09 -4.21932e-05 
         200     0.004228   0.00191718  3.80273e-09 -4.21927e-05 
         200     0.005755    0.0026096  7.04562e-09  -4.2192e-05 
         200     0.007518   0.00340903  1.20236e-08 -4.21913e-05 
         200     0.009515   0.00431457  1.92598e-08 -4.21904e-05 
         200     0.011746   0.00532622  2.93507e-08 -4.21895e-05 
         200     0.014214   0.00644534  4.29808e-08 -4.21884e-05 
         200     0.016915   0.00767011  6.08682e-08 -4.21873e-05 
         200     0.019853   0.00900235    8.385e-08  -4.2186e-05 
         200     0.023023    0.0104398  1.12766e-07 -4.21847e-05 
         200     0.026431    0.0119852  1.48624e-07 -4.21832e-05 
         200     0.030075    0.0136375  1.92432e-07 -4.21817e-05 
         200      0.03395    0.0153947  2.45218e-07   -4.218e-05 
         200     0.038063    0.0172597  3.08238e-07 -4.21783e-05 
         200     0.042408      0.01923  3.82633e-07 -4.21764e-05 
         200     0.046991    0.0213082  4.69811e-07 -4.21745e-05 
         200     0.051805    0.0234911  5.71011e-07 -4.21724e-05 
         200     0.056859    0.0257828  6.87871e-07 -4.21703e-05 
         200     0.062143    0.0281789  8.21676e-07  -4.2168e-05 
         200     0.067666    0.0306833  9.74238e-07 -4.21657e-05 
         200     0.073425    0.0332947  1.14715e-06 -4.21632e-05 
         200     0.079413    0.0360099  1.34191e-06 -4.21607e-05 
         200     0.085642    0.0388344  1.56071e-06  -4.2158e-05 
         200       0.0921    0.0417627    1.805e-06 -4.21553e-05 
         200     0.098799    0.0448003  2.07717e-06 -4.21524e-05 
         200     0.105727    0.0479417  2.37874e-06 -4.21495e-05 
         200     0.112896    0.0511923  2.71232e-06 -4.21464e-05 
         200       0.1203    0.0545494   3.0798e-06 -4.21433e-05 
         200     0.127932    0.0580098  3.48303e-06   -4.214e-05 
         200     0.135806    0.0615798  3.92505e-06 -4.21367e-05 
         200     0.143909    0.0652536  4.40748e-06 -4.21332e-05 
         200     0.152253    0.0690365  4.93347e-06 -4.21296e-05 
         200     0.160825    0.0729226   5.5047e-06  -4.2126e-05 
         200     0.169639    0.0769182  6.12468e-06 -4.21222e-05 
         200     0.178688    0.0810202  6.79559e-06 -4.21184e-05 
         200     0.187965    0.0852253  7.51958e-06 -4.21144e-05 
         200     0.197484    0.0895398  8.30053e-06 -4.21103e-05 
         200      0.20723    0.0939568  9.14004e-06 -4.21062e-05 
         200      0.21722     0.098484  1.00425e-05 -4.21019e-05 
         200     0.227436     0.103113  1.10093e-05 -4.20976e-05 
         200     0.237895     0.107852   1.2045e-05 -4.20931e-05 
         200     0.248581     0.112693  1.31512e-05 -4.20885e-05 
         200      0.25951     0.117643  1.43327e-05 -4.20838e-05 
         200     0.270675       0.1227  1.55921e-05 -4.20791e-05 
         200     0.282065     0.127857  1.69314e-05 -4.20742e-05 
         200       0.2937     0.133125  1.83563e-05 -4.20692e-05 
         200      0.30556     0.138493  1.98678e-05 -4.20641e-05 
         200     0.317665     0.143971  2.14719e-05 -4.20589e-05 
         200     0.329995     0.149549  2.31696e-05 -4.20536e-05 
         200     0.342569     0.155236   2.4967e-05 -4.20482e-05 
         200     0.355379     0.161028  2.68668e-05 -4.20427e-05 
         200     0.368414      0.16692   2.8871e-05 -4.20371e-05 
         200     0.381693     0.172919  3.09863e-05 -4.20314e-05 
         200     0.395198     0.179018  3.32136e-05 -4.20256e-05 
         200     0.408948     0.185225    3.556e-05 -4.20197e-05 
         200     0.422921      0.19153  3.80256e-05 -4.20136e-05 
         200     0.437141     0.197943  4.06186e-05 -4.20075e-05 
         200     0.451585     0.204453  4.33388e-05 -4.20012e-05 
         200     0.466275     0.211069  4.61944e-05 -4.19949e-05 
         200       0.4812     0.217787  4.91875e-05 -4.19884e-05 
         200     0.496348       0.2246  5.23196e-05 -4.19818e-05 
         200     0.511744      0.23152     5.56e-05 -4.19751e-05 
         200     0.527361     0.238532  5.90272e-05 -4.19683e-05 
         200     0.543227      0.24565  6.26114e-05 -4.19613e-05 
         200     0.559314      0.25286  6.63505e-05 -4.19543e-05 
         200      0.57565     0.260173  7.02551e-05 -4.19471e-05 
         200      0.59222     0.267582  7.43261e-05 -4.19398e-05 
         200     0.609012     0.275082  7.85643e-05 -4.19324e-05 
         200     0.626053     0.282683  8.29806e-05 -4.19248e-05 
         200     0.643315     0.290371  8.75724e-05 -4.19171e-05 
         200     0.660826     0.298158  9.23511e-05 -4.19093e-05 
         200     0.678557      0.30603  9.73128e-05 -4.19014e-05 
         200     0.696538     0.313999   0.00010247 -4.18933e-05 
         200     0.714754     0.322058  0.000107822 -4.18851e-05 
         200      0.73319     0.330197  0.000113368 -4.18767e-05 
         200     0.751876     0.338429  0.000119122 -4.18682e-05 
         200     0.770782      0.34674  0.000125078 -4.18596e-05 
         200     0.789937     0.355139  0.000131248 -4.18508e-05 
         200     0.809313     0.363614  0.000137627 -4.18419e-05 
         200     0.828939     0.372176  0.000144229 -4.18328e-05 
         200     0.848784     0.380807  0.000151045 -4.18235e-05 
         200      0.86888     0.389521  0.000158091 -4.18141e-05 
         200     0.889212      0.39831  0.000165363 -4.18045e-05 
         200     0.909761     0.407161  0.000172858 -4.17948e-05 
         200     0.930563     0.416089  0.000180592 -4.17848e-05 
         200     0.951582     0.425076  0.000188553 -4.17747e-05 
         200     0.972854     0.434133  0.000196757 -4.17643e-05 
         200     0.994343     0.443245  0.000205193 -4.17538e-05 
         200      1.01608     0.452421  0.000213875 -4.17431e-05 
         200      1.03806     0.461653  0.000222799 -4.17322e-05 
         200      1.06025     0.470929  0.000231959  -4.1721e-05 
         200       1.0827     0.480261  0.000241368 -4.17097e-05 
         200      1.10536     0.489631  0.000251014 -4.16981e-05 
         200      1.12828     0.499049  0.000260912 -4.16863e-05 
         200      1.15142     0.508499  0.000271046 -4.16742e-05 
         200       1.1748      0.51799   0.00028143 -4.16619e-05 
         200      1.19842     0.527511  0.000292057 -4.16493e-05 
         200      1.22226      0.53705  0.000302916 -4.16365e-05 
         200      1.24635     0.546619  0.000314023 -4.16234e-05 
         200      1.27066     0.556198  0.000325357   -4.161e-05 
         200      1.29522     0.565797  0.000336934 -4.15963e-05 
         200         1.32     0.575397  0.000348733 -4.15824e-05 
         200      1.34503     0.585008  0.000360767  -4.1568e-05 
         200      1.37028     0.594609  0.000373015 -4.15534e-05 
         200      1.39578     0.604211   0.00038549 -4.15385e-05 
         200      1.42152     0.613802  0.000398177 -4.15231e-05 
         200      1.44747     0.623368  0.000411062 -4.15075e-05 
         200      1.47368     0.632919  0.000424159 -4.14915e-05 
         200       1.5001     0.642434  0.000437442 -4.14751e-05 
         200      1.52677     0.651923  0.000450916 -4.14583e-05 
         200      1.55367     0.661366  0.000464557 -4.14412e-05 
         200      1.58081     0.670771  0.000478381 -4.14237e-05 
         200       1.6082     0.680125  0.000492366 -4.14059e-05 
         200      1.63579     0.689414  0.000506491 -4.13877e-05 
         200      1.66364     0.698648  0.000520769  -4.1369e-05 
         200      1.69171     0.707806  0.000535167 -4.13499e-05 
         200      1.72003     0.716897  0.000549694 -4.13303e-05 
         200      1.74857     0.725899  0.000564316 -4.13102e-05 
         200      1.77736     0.734822  0.000579045 -4.12897e-05 
         200      1.80636     0.743646  0.000593844 -4.12686e-05 
         200      1.83563     0.752377  0.000608723  -4.1247e-05 
         200      1.86512     0.761004  0.000623657 -4.12249e-05 
         200      1.89484     0.769513   0.00063862 -4.12022e-05 
         200       1.9248     0.777913  0.000653622 -4.11791e-05 
         200      1.95498     0.786184  0.000668623 -4.11554e-05 
         200      1.98542     0.794335  0.000683633 -4.11311e-05 
         200      2.01607     0.802346  0.000698612 -4.11063e-05 
         200      2.04698     0.810226  0.000713569  -4.1081e-05 
         200      2.07812     0.817962  0.000728476 -4.10551e-05 
         200      2.10947     0.825544  0.000743305 -4.10287e-05 
         200      2.14109      0.83298  0.000758064 -4.10018e-05 
         200      2.17291     0.840252  0.000772713 -4.09743e-05 
         200      2.20499     0.847369  0.000787259 -4.09463e-05 
         200      2.23728     0.854315  0.000801664 -4.09177e-05 
         200      2.26984     0.861098  0.000815933 -4.08886e-05 
         200      2.30263     0.867709  0.000830041 -4.08589e-05 
         200      2.33562     0.874139  0.000843959 -4.08286e-05 
         200      2.36888     0.880396  0.000857696 -4.07978e-05 
         200      2.40235     0.886468  0.000871214 -4.07665e-05 
         200      2.43608     0.892363  0.000884521 -4.07345e-05 
         200      2.47002     0.898069  0.000897582  -4.0702e-05 
         200      2.50421     0.903594  0.000910403  -4.0669e-05 
         200      2.53862     0.908929  0.000922952 -4.06353e-05 
         200      2.57329     0.914081  0.000935237 -4.06011e-05 
         200      2.60819     0.919046  0.000947236 -4.05662e-05 
         200       2.6433      0.92382   0.00095893 -4.05308e-05 
         200      2.67868     0.928412  0.000970327 -4.04948e-05 
         200      2.71426     0.932814  0.000981401 -4.04582e-05 
         200       2.7501     0.937037  0.000992161  -4.0421e-05 
         200      2.78615     0.941073   0.00100258 -4.03832e-05 
         200      2.82247     0.944932   0.00101268 -4.03449e-05 
         200      2.85902     0.948613   0.00102243 -4.03059e-05 
         200      2.89577     0.952116   0.00103184 -4.02664e-05 
         200      2.93279     0.955449    0.0010409 -4.02264e-05 
         200      2.97002     0.958611    0.0010496 -4.01859e-05 
         200       3.0075      0.96161   0.00105797 -4.01448e-05 
         200       3.0452     0.964446   0.00106597 -4.01032e-05 
         200      3.08316     0.967126   0.00107364 -4.00612e-05 
         200      3.12135     0.969653   0.00108096 -4.00187e-05 
         200      3.15975      0.97203   0.00108792 -3.99759e-05 
         200      3.19842     0.974265   0.00109456 -3.99325e-05 
         200      3.23728      0.97636   0.00110085 -3.98889e-05 
         200      3.27642     0.978322   0.00110681 -3.98449e-05 
         200      3.31576     0.980155   0.00111245 -3.98005e-05 
         200      3.35536     0.981865   0.00111777 -3.97558e-05 
         200      3.39517     0.983456   0.00112278 -3.97107e-05 
         200      3.43525     0.984935   0.00112749 -3.96652e-05 
         200      3.47555     0.986307   0.00113191 -3.96193e-05 
         200      3.51607     0.987575   0.00113605 -3.95729e-05 
         200      3.55685     0.988747   0.00113991 -3.95259e-05 
         200      3.59783     0.989826   0.00114352 -3.94782e-05 
         200      3.63908     0.990819   0.00114688 -3.94295e-05 
         200      3.68053      0.99173   0.00115001 -3.93797e-05 
         200      3.72225     0.992564   0.00115292 -3.93285e-05 
         200      3.76421     0.993327   0.00115561 -3.92816e-05 
         200      3.80636     0.994022   0.00115804 -3.92411e-05 
         200      3.84879     0.994655   0.00116029 -3.91952e-05 
         200      3.89142     0.995229   0.00116236 -3.91463e-05 
         200      3.93431     0.995749   0.00116426 -3.90959e-05 
         200      3.97741     0.996219   0.00116599 -3.90449e-05 
         200      4.02077     0.996642   0.00116757 -3.89936e-05 
         200      4.06434     0.997023     0.001169 -3.89418e-05 
         200      4.10817     0.997365   0.00117031 -3.88888e-05 
         200      4.15224     0.997671   0.00117149 -3.88338e-05 
         200      4.19651     0.997943   0.00117257 -3.87755e-05 
         200      4.24106     0.998187   0.00117351 -3.87211e-05 
         200       4.2858     0.998403   0.00117436  -3.8668e-05 
         200      4.33081     0.998594   0.00117514 -3.86146e-05 
         200      4.37602     0.998763   0.00117584 -3.85613e-05 
         200       4.4215     0.998912   0.00117647 -3.85079e-05 
         200      4.46721     0.999044   0.00117702 -3.84542e-05 
         200      4.51313     0.999159   0.00117752 -3.84002e-05 
         200      4.55931     0.999259   0.00117795 -3.83456e-05 
         200       4.6057     0.999347   0.00117833 -3.82905e-05 
         200      4.65235     0.999423   0.00117866 -3.82346e-05 
         200      4.69921     0.999489   0.00117895 -3.81782e-05 
         200      4.74633     0.999547    0.0011792 -3.81215e-05 
         200      4.79369     0.999596   0.00117943 -3.80648e-05 
         200      4.84125     0.999639   0.00117962 -3.80087e-05 
         200      4.88908     0.999675    0.0011798 -3.79534e-05 
         200      4.93711     0.999706   0.00117995 -3.78995e-05 
         200      4.98541     0.999733   0.00118007 -3.78468e-05 
         200      5.03391     0.999756   0.00118017  -3.7795e-05 
         200      5.08268     0.999775   0.00118026 -3.77428e-05 
         200      5.13165     0.999791   0.00118034 -3.76881e-05 
         200      5.18089     0.999805   0.00118047 -3.76269e-05 
         200      5.23037     0.999816    0.0011805 -3.75708e-05 
         200      5.28004     0.999826   0.00118055 -3.75052e-05 
         200      5.32999     0.999834    0.0011806 -3.74353e-05 
         200      5.38013     0.999841   0.00118065 -3.73665e-05 
         200      5.43055     0.999847   0.00118068  -3.7301e-05 
         200      5.48116     0.999851   0.00118069 -3.72396e-05 
         200      5.53204     0.999855    0.0011807 -3.71817e-05 
         200      5.58317     0.999858   0.00118071 -3.71261e-05 
         200      5.63448     0.999861   0.00118073 -3.70716e-05 
         200      5.68607     0.999863   0.00118075  -3.7017e-05 
         200      5.73786     0.999865   0.00118078 -3.69614e-05 
         200      5.78992     0.999866   0.00118081 -3.69042e-05 
         200      5.84218     0.999868   0.00118084 -3.68452e-05 
         200      5.89471     0.999869   0.00118086 -3.67846e-05 
         200      5.94748      0.99987   0.00118087 -3.67226e-05 
         200      6.00044      0.99987   0.00118088 -3.66596e-05 
         200      6.05367     0.999871   0.00118088 -3.65957e-05 
         200       6.1071     0.999872   0.00118088  -3.6531e-05 
         200      6.16081     0.999872   0.00118088 -3.64654e-05 
         200      6.21471     0.999872   0.00118089 -3.63986e-05 
         200      6.26889     0.999873   0.00118091 -3.63308e-05 
         200      6.32326     0.999873   0.00118092 -3.62688e-05 
         200       6.3779     0.999873   0.00118092 -3.62065e-05 
         200      6.43279     0.999873   0.00118091 -3.61406e-05 
         200      6.48786     0.999873    0.0011809 -3.60725e-05 
         200      6.54321     0.999874   0.00118088 -3.60029e-05 
         200      6.59876     0.999874   0.00118087 -3.59325e-05 
         200      6.65458     0.999874    0.0011809 -3.58609e-05 
         200      6.71059     0.999874   0.00118101 -3.57878e-05 
         200      6.76689     0.999875   0.00118096 -3.57436e-05 
         200      6.82341     0.999875   0.00118092 -3.56946e-05 
         200      6.88013     0.999875   0.00118092 -3.56347e-05 
         200      6.93713     0.999875   0.00118094 -3.55677e-05 
         200      6.99432     0.999875   0.00118096 -3.54966e-05 
         200      7.05178     0.999876   0.00118099 -3.54233e-05 
         200      7.10944     0.999876     0.001181 -3.53495e-05 
         200      7.16738     0.999876   0.00118101 -3.52756e-05 
         200      7.22551     0.999876   0.00118101 -3.52023e-05 
         200      7.28391     0.999876   0.00118101 -3.51294e-05 
         200      7.34256     0.999877   0.00118101  -3.5057e-05 
         200      7.40139     0.999877   0.00118101 -3.49848e-05 
         200       7.4605     0.999877   0.00118101 -3.49124e-05 
         200       7.5198     0.999877   0.00118102 -3.48397e-05 
         200      7.57939     0.999877   0.00118103 -3.47663e-05 
         200      7.63916     0.999877   0.00118105 -3.46924e-05 
         200      7.69921     0.999878   0.00118106 -3.46176e-05 
         200       7.7595     0.999878   0.00118108 -3.45423e-05 
         200      7.81998     0.999878   0.00118109 -3.44668e-05 
         200      7.88073     0.999878    0.0011811 -3.43911e-05 
         200      7.94168     0.999878   0.00118111 -3.43157e-05 
         200      8.00291     0.999879   0.00118111 -3.42409e-05 
         200      8.06432     0.999879   0.00118111  -3.4167e-05 
         200      8.12602     0.999879   0.00118111  -3.4094e-05 
         200      8.18796     0.999879   0.00118111  -3.4022e-05 
         200      8.25008     0.999879   0.00118111 -3.39506e-05 
         200      8.31248      0.99988   0.00118112  -3.3879e-05 
         200      8.37507      0.99988   0.00118113 -3.38061e-05 
         200      8.43794      0.99988   0.00118115 -3.37387e-05 
         200        8.501      0.99988   0.00118117 -3.36744e-05 
         200      8.56434     0.999881   0.00118118 -3.36062e-05 
         200      8.62787     0.999881   0.00118119 -3.35337e-05 
         200      8.69169     0.999881    0.0011812 -3.34567e-05 
         200      8.75574     0.999881   0.00118119  -3.3376e-05 
         200      8.81997     0.999881   0.00118117 -3.32936e-05 
         200      8.88449     0.999882   0.00118115 -3.32121e-05 
         200      8.94919     0.999882   0.00118112 -3.31357e-05 
         200      9.01418     0.999882    0.0011811 -3.30691e-05 
         200      9.07935     0.999882   0.00118109  -3.3018e-05 
         200      9.14481     0.999883   0.00118113 -3.29565e-05 
         200      9.21051     0.999883   0.00118125 -3.28917e-05 
         200      9.27639     0.999883   0.00118139 -3.27365e-05 
         200      9.34255     0.999883   0.00118137  -3.2603e-05 
         200       9.4089     0.999883   0.00118126 -3.25859e-05 
         200      9.47553     0.999884   0.00118121 -3.25451e-05 
         200      9.54235     0.999884    0.0011812 -3.24861e-05 
         200      9.60945     0.999884   0.00118122 -3.24136e-05 
         200      9.67674     0.999884   0.00118125 -3.23315e-05 
         200      9.74432     0.999884   0.00118129 -3.22427e-05 
         200      9.81212     0.999885   0.00118133 -3.21498e-05 
         200      9.88012     0.999885   0.00118136 -3.20547e-05 
         200       9.9484     0.999885   0.00118139 -3.19586e-05 
         200      10.0169     0.999885   0.00118141 -3.18627e-05 
         200      10.0856     0.999885   0.00118142 -3.17676e-05 
         200      10.1545     0.999886   0.00118142 -3.16739e-05 
         200      10.2238     0.999886   0.00118142 -3.15817e-05 
         200      10.2932     0.999886   0.00118142 -3.14912e-05 
         200      10.3628     0.999886   0.00118142 -3.14023e-05 
         200      10.4328     0.999887   0.00118141  -3.1315e-05 
         200      10.5029     0.999887   0.00118141 -3.12291e-05 
         200      10.5733     0.999887   0.00118141 -3.11443e-05 
         200      10.6438     0.999887   0.00118142 -3.10606e-05 
         200      10.7147     0.999888   0.00118142 -3.09776e-05 
         200      10.7858     0.999888   0.00118143 -3.08952e-05 
         200      10.8571     0.999888   0.00118143 -3.08131e-05 
         200      10.9287     0.999888   0.00118144 -3.07311e-05 
         200      11.0004     0.999888   0.00118144 -3.06491e-05 
         200      11.0725     0.999889   0.00118143 -3.05666e-05 
         200      11.1447     0.999889   0.00118142 -3.04836e-05 
         200      11.2172     0.999889   0.00118141 -3.03996e-05 
         200      11.2899     0.999889   0.00118139 -3.03146e-05 
         200      11.3628      0.99989   0.00118137 -3.02282e-05 
         200      11.4361      0.99989   0.00118134 -3.01401e-05 
         200      11.5095      0.99989   0.00118132 -3.00502e-05 
         200      11.5831     0.999891    0.0011813 -2.99583e-05 
         200       11.657     0.999891    0.0011813 -2.98644e-05 
         200      11.7312     0.999891   0.00118131 -2.97686e-05 
         200      11.8055     0.999891   0.00118133 -2.96714e-05 
         200      11.8801     0.999892   0.00118136 -2.95733e-05 
         200       11.955     0.999892   0.00118139 -2.94756e-05 
         200        12.03     0.999892   0.00118141 -2.93801e-05 
         200      12.1053     0.999892   0.00118138 -2.92893e-05 
         200      12.1809     0.999893   0.00118133 -2.91995e-05 
         200      12.2567     0.999893   0.00118143 -2.90952e-05 
         200      12.3326     0.999893   0.00118146 -2.89996e-05 
         200      12.4089     0.999894   0.00118146  -2.8909e-05 
         200      12.4854     0.999894   0.00118145 -2.88206e-05 
         200      12.5621     0.999894   0.00118146 -2.87327e-05 
         200      12.6391     0.999895   0.00118148  -2.8644e-05 
         200      12.7162     0.999895   0.00118151 -2.85539e-05 
         200      12.7937     0.999895   0.00118156 -2.84621e-05 
         200      12.8713     0.999895   0.00118161 -2.83689e-05 
         200      12.9492     0.999896   0.00118167 -2.82745e-05 
         200      13.0273     0.999896   0.00118172 -2.81796e-05 
         200      13.1057     0.999896   0.00118175 -2.80845e-05 
         200      13.1843     0.999896   0.00118176 -2.79899e-05 
         200      13.2631     0.999897   0.00118176  -2.7896e-05 
         200      13.3422     0.999897   0.00118173 -2.78024e-05 
         200      13.4215     0.999897   0.00118169 -2.77086e-05 
         200       13.501     0.999897   0.00118165 -2.76129e-05 
         200      13.5807     0.999898   0.00118161  -2.7513e-05 
         200      13.6608     0.999898    0.0011816 -2.74049e-05 
         200       13.741     0.999898   0.00118165 -2.72834e-05 
         200      13.8215     0.999898   0.00118179 -2.71451e-05 
         200      13.9022     0.999899   0.00118166 -2.70968e-05 
         200      13.9831     0.999899   0.00118161  -2.7028e-05 
         200      14.0643       0.9999   0.00118162 -2.69446e-05 
         200      14.1457       0.9999   0.00118166 -2.68514e-05 
         200      14.2274       0.9999   0.00118173 -2.67514e-05 
         200      14.3092       0.9999    0.0011818 -2.66473e-05 
         200      14.3914       0.9999   0.00118187 -2.65405e-05 
         200      14.4738     0.999901   0.00118192  -2.6432e-05 
         200      14.5563     0.999901   0.00118196 -2.63228e-05 
         200      14.6392     0.999901   0.00118197 -2.62131e-05 
         200      14.7222     0.999901   0.00118196 -2.61037e-05 
         200      14.8055     0.999902   0.00118193  -2.5995e-05 
         200       14.889     0.999902   0.00118187 -2.58878e-05 
         200      14.9728     0.999902    0.0011818 -2.57827e-05 
         200      15.0568     0.999903   0.00118173 -2.56808e-05 
         200       15.141     0.999903   0.00118168  -2.5583e-05 
         200      15.2255     0.999904   0.00118165 -2.54898e-05 
         200      15.3102     0.999904   0.00118166 -2.54016e-05 
         200      15.3952     0.999904   0.00118172 -2.53178e-05 
         200      15.4803     0.999904   0.00118182 -2.52367e-05 
         200      15.5657     0.999904   0.00118192 -2.51548e-05 
         200      15.6514     0.999904   0.00118195 -2.50663e-05 
         200      15.7372     0.999905    0.0011818 -2.49626e-05 
         200      15.8234     0.999906   0.00118146 -2.48414e-05 
         200      15.9097     0.999906   0.00118183 -2.47625e-05 
         200      15.9963     0.999906   0.00118196 -2.46717e-05 
         200      16.0831     0.999906   0.00118196 -2.45707e-05 
         200      16.1702     0.999906    0.0011819 -2.44605e-05 
         200      16.2574     0.999907   0.00118183 -2.43425e-05 
         200       16.345     0.999907   0.00118176  -2.4218e-05 
         200      16.4328     0.999908   0.00118172 -2.40881e-05 
         200      16.5207     0.999908   0.00118172 -2.39543e-05 
         200       16.609     0.999908   0.00118174 -2.38177e-05 
         200      16.6974     0.999908   0.00118178   -2.368e-05 
         200      16.7861     0.999909   0.00118184 -2.35423e-05 
         200       16.875     0.999909   0.00118191 -2.34061e-05 
         200      16.9642     0.999909   0.00118197 -2.32726e-05 
         200      17.0537      0.99991   0.00118203 -2.31432e-05 
         200      17.1433      0.99991   0.00118207 -2.30188e-05 
         200      17.2332      0.99991   0.00118209 -2.29003e-05 
         200      17.3232     0.999911   0.00118209 -2.27883e-05 
         200      17.4136     0.999911   0.00118208 -2.26829e-05 
         200      17.5041     0.999911   0.00118205 -2.25842e-05 
         200       17.595     0.999912   0.00118201 -2.24916e-05 
         200      17.6861     0.999912   0.00118196 -2.24042e-05 
         200      17.7773     0.999913   0.00118191 -2.23208e-05 
         200      17.8689     0.999913   0.00118186 -2.22396e-05 
         200      17.9606     0.999913   0.00118182 -2.21585e-05 
         200      18.0526     0.999913   0.00118179 -2.20751e-05 
         200      18.1448     0.999914   0.00118177 -2.19869e-05 
         200      18.2373     0.999914   0.00118177  -2.1891e-05 
         200      18.3299     0.999914   0.00118179  -2.1785e-05 
         200      18.4229     0.999914   0.00118182 -2.16665e-05 
         200      18.5161     0.999915   0.00118186 -2.15337e-05 
         200      18.6094     0.999915   0.00118192  -2.1386e-05 
         200      18.7031     0.999915   0.00118198 -2.12236e-05 
         200      18.7969     0.999915   0.00118205 -2.10489e-05 
         200       18.891     0.999916   0.00118212 -2.08662e-05 
         200      18.9853     0.999916   0.00118219  -2.0683e-05 
         200      19.0799     0.999917   0.00118224   -2.051e-05 
         200      19.1748     0.999917   0.00118228 -2.03628e-05 
         200      19.2698     0.999918    0.0011823  -2.0262e-05 
         200      19.3651     0.999918   0.00118228 -2.02344e-05 
         200      19.4606     0.999919   0.00118222 -2.03146e-05 
         200      19.5563     0.999919   0.00118208 -2.05457e-05 
         200      19.6523      0.99992   0.00118207  -2.0425e-05 
         200      19.7485     0.999919   0.00118212 -2.00573e-05 
         200      19.8449     0.999919   0.00118209 -1.97615e-05 
         200      19.9417     0.999919   0.00118204 -1.95279e-05 
         200      20.0386     0.999919   0.00118207  -1.9353e-05 
         200      20.1357     0.999921   0.00118235 -1.92401e-05 
         200      20.2331     0.999923   0.00118314 -1.91998e-05 
         200      20.3307     0.999922   0.00118236 -1.89137e-05 
         200      20.4286     0.999921   0.00118213 -1.87583e-05 
         200      20.5267     0.999921    0.0011822 -1.86911e-05 
         200       20.625     0.999921   0.00118239 -1.86723e-05 
         200      20.7236     0.999922   0.00118256 -1.86713e-05 
         200      20.8224     0.999922   0.00118265 -1.86648e-05 
         200      20.9215     0.999923   0.00118263 -1.86365e-05 
         200      21.0207     0.999923   0.00118251 -1.85756e-05 
         200      21.1202     0.999924   0.00118232  -1.8476e-05 
         200      21.2199     0.999924   0.00118208 -1.83357e-05 
         200      21.3199     0.999924   0.00118183 -1.81556e-05 
         200      21.4202     0.999924    0.0011816 -1.79392e-05 
         200      21.5206     0.999924   0.00118142 -1.76922e-05 
         200      21.6213     0.999924   0.00118139 -1.75592e-05 
         200      21.7222     0.999924   0.00118143 -1.74209e-05 
         200      21.8234     0.999925   0.00118153 -1.72708e-05 
         200      21.9247     0.999925   0.00118168 -1.71139e-05 
         200      22.0264     0.999925   0.00118188 -1.69545e-05 
         200      22.1282     0.999926    0.0011821 -1.67966e-05 
         200      22.2303     0.999926   0.00118233 -1.66432e-05 
         200      22.3327     0.999927   0.00118253 -1.64969e-05 
         200      22.4352     0.999927   0.00118271 -1.63598e-05 
         200       22.538     0.999928   0.00118283 -1.62329e-05 
         200       22.641     0.999928   0.00118289 -1.61171e-05 
         200      22.7443     0.999929   0.00118288 -1.60121e-05 
         200      22.8477      0.99993    0.0011828 -1.59174e-05 
         200      22.9515      0.99993   0.00118267 -1.58316e-05 
         200      23.0555      0.99993   0.00118249 -1.57528e-05 
         200      23.1597     0.999931   0.00118229 -1.56788e-05 
         200      23.2642     0.999931   0.00118207 -1.56064e-05 
         200      23.3688     0.999931   0.00118188 -1.55326e-05 
         200      23.4737     0.999932   0.00118172 -1.54536e-05 
         200      23.5788     0.999932   0.00118161 -1.53658e-05 
         200      23.6843     0.999932   0.00118158 -1.52652e-05 
         200      23.7899     0.999932   0.00118162 -1.51483e-05 
         200      23.8957     0.999933   0.00118172 -1.50115e-05 
         200      24.0018     0.999933   0.00118189 -1.48519e-05 