Variables = x, y, u, v, p

Zone, I=800, F=POINT
         650            0           -0           -0 -2.80177e-05 
         650     0.000117  3.90926e-05  1.15967e-12 -2.80176e-05 
         650     0.000469  0.000156705  1.86282e-11 -2.80176e-05 
         650     0.001056  0.000352836  9.44336e-11 -2.80175e-05 
         650     0.001879  0.000627821  2.98981e-10 -2.80173e-05 
         650     0.002936  0.000980992  7.29958e-10 -2.80172e-05 
         650     0.004228   0.00141268  1.51375e-09 -2.80169e-05 
         650     0.005755   0.00192289  2.80461e-09 -2.80167e-05 
         650     0.007518   0.00251195  4.78615e-09 -2.80164e-05 
         650     0.009515    0.0031792  7.66652e-09  -2.8016e-05 
         650     0.011746   0.00392464  1.16832e-08 -2.80157e-05 
         650     0.014214   0.00474926  1.71085e-08 -2.80153e-05 
         650     0.016915   0.00565173  2.42284e-08 -2.80148e-05 
         650     0.019853   0.00663339  3.33758e-08 -2.80143e-05 
         650     0.023023   0.00769257  4.48853e-08 -2.80138e-05 
         650     0.026431   0.00883127  5.91571e-08 -2.80132e-05 
         650     0.030075    0.0100488  7.65934e-08 -2.80126e-05 
         650      0.03395    0.0113436  9.76022e-08 -2.80119e-05 
         650     0.038063    0.0127178  1.22683e-07 -2.80112e-05 
         650     0.042408    0.0141696  1.52291e-07 -2.80105e-05 
         650     0.046991    0.0157009  1.86986e-07 -2.80097e-05 
         650     0.051805    0.0173094   2.2726e-07 -2.80089e-05 
         650     0.056859     0.018998  2.73765e-07  -2.8008e-05 
         650     0.062143    0.0207635  3.27012e-07 -2.80071e-05 
         650     0.067666    0.0226089  3.87722e-07 -2.80062e-05 
         650     0.073425    0.0245331  4.56528e-07 -2.80052e-05 
         650     0.079413    0.0265338  5.34026e-07 -2.80042e-05 
         650     0.085642    0.0286151  6.21087e-07 -2.80032e-05 
         650       0.0921    0.0307728  7.18286e-07 -2.80021e-05 
         650     0.098799    0.0330111  8.26575e-07 -2.80009e-05 
         650     0.105727    0.0353258   9.4656e-07 -2.79998e-05 
         650     0.112896    0.0377211  1.07928e-06 -2.79985e-05 
         650       0.1203    0.0401949  1.22548e-06 -2.79973e-05 
         650     0.127932    0.0427448   1.3859e-06  -2.7996e-05 
         650     0.135806    0.0453755  1.56174e-06 -2.79947e-05 
         650     0.143909    0.0480828  1.75366e-06 -2.79933e-05 
         650     0.152253    0.0508705   1.9629e-06 -2.79919e-05 
         650     0.160825    0.0537343  2.19014e-06 -2.79904e-05 
         650     0.169639    0.0566789  2.43676e-06 -2.79889e-05 
         650     0.178688     0.059702  2.70363e-06 -2.79874e-05 
         650     0.187965    0.0628011  2.99162e-06 -2.79858e-05 
         650     0.197484    0.0659811  3.30226e-06 -2.79842e-05 
         650      0.20723    0.0692367   3.6362e-06 -2.79826e-05 
         650      0.21722    0.0725737  3.99517e-06 -2.79809e-05 
         650     0.227436    0.0759861  4.37973e-06 -2.79791e-05 
         650     0.237895    0.0794795  4.79172e-06 -2.79774e-05 
         650     0.248581    0.0830486  5.23176e-06 -2.79755e-05 
         650      0.25951    0.0866986  5.70178e-06 -2.79737e-05 
         650     0.270675    0.0904272  6.20279e-06 -2.79718e-05 
         650     0.282065    0.0942306  6.73561e-06 -2.79699e-05 
         650       0.2937    0.0981156  7.30252e-06 -2.79679e-05 
         650      0.30556     0.102075  7.90392e-06 -2.79659e-05 
         650     0.317665     0.106117  8.54224e-06 -2.79638e-05 
         650     0.329995     0.110232  9.21784e-06 -2.79617e-05 
         650     0.342569     0.114429  9.93321e-06 -2.79596e-05 
         650     0.355379     0.118704  1.06894e-05 -2.79574e-05 
         650     0.368414     0.123054  1.14873e-05 -2.79552e-05 
         650     0.381693     0.127484  1.23296e-05  -2.7953e-05 
         650     0.395198     0.131989  1.32166e-05 -2.79507e-05 
         650     0.408948     0.136575  1.41512e-05 -2.79483e-05 
         650     0.422921     0.141234  1.51336e-05  -2.7946e-05 
         650     0.437141     0.145975  1.61669e-05 -2.79435e-05 
         650     0.451585     0.150789  1.72513e-05 -2.79411e-05 
         650     0.466275     0.155684    1.839e-05 -2.79386e-05 
         650       0.4812     0.160656  1.95839e-05  -2.7936e-05 
         650     0.496348     0.165701  2.08338e-05 -2.79334e-05 
         650     0.511744     0.170827  2.21434e-05 -2.79308e-05 
         650     0.527361     0.176024  2.35122e-05 -2.79282e-05 
         650     0.543227     0.181303  2.49444e-05 -2.79254e-05 
         650     0.559314     0.186653  2.64393e-05 -2.79227e-05 
         650      0.57565     0.192083  2.80014e-05 -2.79199e-05 
         650      0.59222     0.197588   2.9631e-05 -2.79171e-05 
         650     0.609012     0.203165  3.13287e-05 -2.79142e-05 
         650     0.626053     0.208821  3.30991e-05 -2.79112e-05 
         650     0.643315     0.214548  3.49414e-05 -2.79083e-05 
         650     0.660826     0.220353  3.68605e-05 -2.79053e-05 
         650     0.678557     0.226228  3.88548e-05 -2.79022e-05 
         650     0.696538     0.232181  4.09297e-05 -2.78991e-05 
         650     0.714754     0.238207  4.30853e-05  -2.7896e-05 
         650      0.73319     0.244302  4.53218e-05 -2.78928e-05 
         650     0.751876     0.250474  4.76447e-05 -2.78896e-05 
         650     0.770782     0.256713  5.00523e-05 -2.78863e-05 
         650     0.789937     0.263028  5.25501e-05 -2.78829e-05 
         650     0.809313     0.269409  5.51365e-05 -2.78796e-05 
         650     0.828939     0.275866  5.78174e-05 -2.78761e-05 
         650     0.848784     0.282388  6.05903e-05 -2.78726e-05 
         650      0.86888     0.288984  6.34618e-05 -2.78691e-05 
         650     0.889212     0.295648  6.64316e-05 -2.78655e-05 
         650     0.909761     0.302375  6.94987e-05 -2.78619e-05 
         650     0.930563     0.309175  7.26704e-05 -2.78582e-05 
         650     0.951582     0.316035  7.59429e-05 -2.78545e-05 
         650     0.972854     0.322966  7.93238e-05 -2.78507e-05 
         650     0.994343     0.329956  8.28091e-05 -2.78469e-05 
         650      1.01608     0.337016  8.64061e-05  -2.7843e-05 
         650      1.03806     0.344138  9.01141e-05 -2.78391e-05 
         650      1.06025     0.351317  9.39315e-05 -2.78351e-05 
         650       1.0827     0.358561   9.7866e-05  -2.7831e-05 
         650      1.10536      0.36586  0.000101913 -2.78269e-05 
         650      1.12828     0.373222  0.000106081 -2.78227e-05 
         650      1.15142     0.380636  0.000110364 -2.78185e-05 
         650       1.1748     0.388112  0.000114771 -2.78142e-05 
         650      1.19842     0.395642  0.000119301 -2.78098e-05 
         650      1.22226     0.403219  0.000123949 -2.78053e-05 
         650      1.24635     0.410854  0.000128726 -2.78008e-05 
         650      1.27066     0.418533  0.000133625 -2.77962e-05 
         650      1.29522     0.426267  0.000138654 -2.77916e-05 
         650         1.32     0.434041  0.000143808 -2.77869e-05 
         650      1.34503     0.441867  0.000149093 -2.77821e-05 
         650      1.37028      0.44973  0.000154504 -2.77773e-05 
         650      1.39578      0.45764  0.000160048 -2.77724e-05 
         650      1.42152      0.46559  0.000165724 -2.77674e-05 
         650      1.44747     0.473571  0.000171526 -2.77623e-05 
         650      1.47368     0.481594  0.000177466  -2.7757e-05 
         650       1.5001     0.489643  0.000183535 -2.77516e-05 
         650      1.52677      0.49773  0.000189739 -2.77467e-05 
         650      1.55367     0.505839   0.00019607 -2.77416e-05 
         650      1.58081     0.513981  0.000202537 -2.77362e-05 
         650       1.6082     0.522147  0.000209135 -2.77306e-05 
         650      1.63579     0.530327  0.000215859 -2.77247e-05 
         650      1.66364     0.538532  0.000222719 -2.77187e-05 
         650      1.69171     0.546748  0.000229704 -2.77125e-05 
         650      1.72003     0.554982  0.000236823 -2.77062e-05 
         650      1.74857      0.56322  0.000244064 -2.76999e-05 
         650      1.77736     0.571472  0.000251437 -2.76934e-05 
         650      1.80636     0.579722  0.000258929 -2.76869e-05 
         650      1.83563     0.587979  0.000266551 -2.76803e-05 
         650      1.86512     0.596235  0.000274293 -2.76737e-05 
         650      1.89484     0.604479  0.000282148  -2.7667e-05 
         650       1.9248     0.612721  0.000290126 -2.76603e-05 
         650      1.95498     0.620944  0.000298212 -2.76534e-05 
         650      1.98542     0.629159  0.000306415 -2.76465e-05 
         650      2.01607     0.637348  0.000314719 -2.76395e-05 
         650      2.04698     0.645522  0.000323135 -2.76323e-05 
         650      2.07812      0.65367  0.000331652  -2.7625e-05 
         650      2.10947     0.661782   0.00034026 -2.76176e-05 
         650      2.14109     0.669867  0.000348968   -2.761e-05 
         650      2.17291     0.677909  0.000357758 -2.76022e-05 
         650      2.20499     0.685917   0.00036664 -2.75942e-05 
         650      2.23728     0.693873  0.000375596 -2.75861e-05 
         650      2.26984     0.701788  0.000384634 -2.75777e-05 
         650      2.30263     0.709651  0.000393743 -2.75692e-05 
         650      2.33562     0.717451  0.000402909 -2.75604e-05 
         650      2.36888     0.725198  0.000412142 -2.75514e-05 
         650      2.40235     0.732875  0.000421422 -2.75422e-05 
         650      2.43608     0.740491  0.000430757 -2.75328e-05 
         650      2.47002      0.74803  0.000440127 -2.75231e-05 
         650      2.50421     0.755499   0.00044954 -2.75133e-05 
         650      2.53862     0.762884  0.000458975 -2.75033e-05 
         650      2.57329     0.770192  0.000468439 -2.74931e-05 
         650      2.60819     0.777413  0.000477919 -2.74827e-05 
         650       2.6433     0.784539    0.0004874 -2.74721e-05 
         650      2.67868     0.791578   0.00049689 -2.74614e-05 
         650      2.71426     0.798514  0.000506366 -2.74506e-05 
         650       2.7501     0.805355  0.000515836 -2.74396e-05 
         650      2.78615     0.812087  0.000525279 -2.74284e-05 
         650      2.82247     0.818718    0.0005347 -2.74172e-05 
         650      2.85902     0.825239  0.000544086 -2.74058e-05 
         650      2.89577     0.831642   0.00055342 -2.73942e-05 
         650      2.93279     0.837934   0.00056271 -2.73825e-05 
         650      2.97002     0.844103  0.000571934 -2.73707e-05 
         650       3.0075     0.850156  0.000581099 -2.73587e-05 
         650       3.0452     0.856081  0.000590182 -2.73465e-05 
         650      3.08316     0.861885  0.000599191  -2.7334e-05 
         650      3.12135     0.867561   0.00060811 -2.73213e-05 
         650      3.15975     0.873103  0.000616926 -2.73084e-05 
         650      3.19842     0.878518  0.000625645 -2.72952e-05 
         650      3.23728     0.883796  0.000634247 -2.72816e-05 
         650      3.27642     0.888943  0.000642739 -2.72678e-05 
         650      3.31576     0.893952    0.0006511 -2.72536e-05 
         650      3.35536     0.898827  0.000659337  -2.7239e-05 
         650      3.39517     0.903562  0.000667432 -2.72242e-05 
         650      3.43525     0.908163  0.000675391  -2.7209e-05 
         650      3.47555     0.912625  0.000683203 -2.71937e-05 
         650      3.51607     0.916946  0.000690855 -2.71783e-05 
         650      3.55685     0.921132  0.000698354  -2.7163e-05 
         650      3.59783     0.925176  0.000705683 -2.71481e-05 
         650      3.63908     0.929086  0.000712849 -2.71337e-05 
         650      3.68053     0.932856  0.000719834 -2.71204e-05 
         650      3.72225     0.936493  0.000726644 -2.71086e-05 
         650      3.76421     0.939995  0.000733273 -2.70954e-05 
         650      3.80636     0.943361  0.000739725 -2.70759e-05 
         650      3.84879     0.946597  0.000745999 -2.70563e-05 
         650      3.89142       0.9497  0.000752083 -2.70367e-05 
         650      3.93431     0.952677  0.000757984 -2.70168e-05 
         650      3.97741     0.955524  0.000763692 -2.69968e-05 
         650      4.02077     0.958249  0.000769215 -2.69765e-05 
         650      4.06434      0.96085  0.000774542 -2.69561e-05 
         650      4.10817     0.963333  0.000779684 -2.69353e-05 
         650      4.15224     0.965698   0.00078463 -2.69201e-05 
         650      4.19651     0.967947  0.000789384  -2.6905e-05 
         650      4.24106     0.970085  0.000793952 -2.68892e-05 
         650       4.2858     0.972113   0.00079833 -2.68726e-05 
         650      4.33081     0.974037  0.000802527 -2.68553e-05 
         650      4.37602     0.975856  0.000806537 -2.68375e-05 
         650       4.4215     0.977577  0.000810371 -2.68192e-05 
         650      4.46721     0.979202  0.000814026 -2.68003e-05 
         650      4.51313     0.980732  0.000817505 -2.67811e-05 
         650      4.55931     0.982174  0.000820816 -2.67615e-05 
         650       4.6057     0.983528  0.000823957 -2.67415e-05 
         650      4.65235       0.9848  0.000826938 -2.67212e-05 
         650      4.69921     0.985992  0.000829758 -2.67007e-05 
         650      4.74633     0.987108  0.000832426   -2.668e-05 
         650      4.79369     0.988151  0.000834944  -2.6659e-05 
         650      4.84125     0.989123  0.000837316 -2.66379e-05 
         650      4.88908      0.99003  0.000839549 -2.66166e-05 
         650      4.93711     0.990873  0.000841646 -2.65952e-05 
         650      4.98541     0.991656  0.000843614 -2.65736e-05 
         650      5.03391     0.992382  0.000845456  -2.6552e-05 
         650      5.08268     0.993055  0.000847179 -2.65303e-05 
         650      5.13165     0.993676  0.000848787 -2.65085e-05 
         650      5.18089      0.99425  0.000850286 -2.64866e-05 
         650      5.23037     0.994778   0.00085168 -2.64647e-05 
         650      5.28004     0.995264  0.000852974 -2.64427e-05 
         650      5.32999      0.99571  0.000854175 -2.64207e-05 
         650      5.38013     0.996119  0.000855285 -2.63986e-05 
         650      5.43055     0.996494  0.000856311 -2.63765e-05 
         650      5.48116     0.996835  0.000857257 -2.63543e-05 
         650      5.53204     0.997147  0.000858127  -2.6332e-05 
         650      5.58317     0.997431  0.000858927 -2.63097e-05 
         650      5.63448     0.997689   0.00085966 -2.62873e-05 
         650      5.68607     0.997923  0.000860332 -2.62649e-05 
         650      5.73786     0.998135  0.000860944 -2.62424e-05 
         650      5.78992     0.998326  0.000861503 -2.62198e-05 
         650      5.84218     0.998499  0.000862011 -2.61971e-05 
         650      5.89471     0.998654  0.000862473 -2.61743e-05 
         650      5.94748     0.998794  0.000862891 -2.61515e-05 
         650      6.00044     0.998919  0.000863269 -2.61286e-05 
         650      6.05367     0.999032  0.000863611 -2.61055e-05 
         650       6.1071     0.999132  0.000863918 -2.60824e-05 
         650      6.16081     0.999221  0.000864195 -2.60591e-05 
         650      6.21471     0.999301  0.000864443 -2.60358e-05 
         650      6.26889     0.999372  0.000864665 -2.60123e-05 
         650      6.32326     0.999435  0.000864863 -2.59887e-05 
         650       6.3779      0.99949   0.00086504  -2.5965e-05 
         650      6.43279     0.999539  0.000865198 -2.59411e-05 
         650      6.48786     0.999582  0.000865338 -2.59171e-05 
         650      6.54321      0.99962  0.000865462  -2.5893e-05 
         650      6.59876     0.999654  0.000865572 -2.58688e-05 
         650      6.65458     0.999683  0.000865669 -2.58444e-05 
         650      6.71059     0.999708  0.000865755   -2.582e-05 
         650      6.76689      0.99973  0.000865831 -2.57953e-05 
         650      6.82341      0.99975  0.000865898 -2.57706e-05 
         650      6.88013     0.999766  0.000865957 -2.57457e-05 
         650      6.93713     0.999781  0.000866008 -2.57207e-05 
         650      6.99432     0.999793  0.000866054 -2.56956e-05 
         650      7.05178     0.999804  0.000866093 -2.56703e-05 
         650      7.10944     0.999814  0.000866128 -2.56449e-05 
         650      7.16738     0.999822  0.000866158 -2.56194e-05 
         650      7.22551     0.999829  0.000866185 -2.55938e-05 
         650      7.28391     0.999835  0.000866208  -2.5568e-05 
         650      7.34256      0.99984  0.000866228 -2.55421e-05 
         650      7.40139     0.999844  0.000866245 -2.55161e-05 
         650       7.4605     0.999848  0.000866259   -2.549e-05 
         650       7.5198     0.999851  0.000866272 -2.54637e-05 
         650      7.57939     0.999854  0.000866282 -2.54373e-05 
         650      7.63916     0.999857   0.00086629 -2.54108e-05 
         650      7.69921     0.999859  0.000866297 -2.53842e-05 
         650       7.7595      0.99986  0.000866302 -2.53574e-05 
         650      7.81998     0.999862  0.000866307 -2.53305e-05 
         650      7.88073     0.999863   0.00086631 -2.53034e-05 
         650      7.94168     0.999864  0.000866313 -2.52762e-05 
         650      8.00291     0.999865  0.000866316 -2.52489e-05 
         650      8.06432     0.999865   0.00086632 -2.52214e-05 
         650      8.12602     0.999866  0.000866325 -2.51938e-05 
         650      8.18796     0.999867  0.000866332  -2.5166e-05 
         650      8.25008     0.999868  0.000866335  -2.5139e-05 
         650      8.31248     0.999868  0.000866335  -2.5112e-05 
         650      8.37507     0.999869  0.000866335 -2.50847e-05 
         650      8.43794     0.999869  0.000866335 -2.50573e-05 
         650        8.501     0.999869  0.000866335 -2.50296e-05 
         650      8.56434      0.99987  0.000866335 -2.50019e-05 
         650      8.62787      0.99987  0.000866335  -2.4974e-05 
         650      8.69169      0.99987  0.000866336  -2.4946e-05 
         650      8.75574     0.999871  0.000866337 -2.49178e-05 
         650      8.81997     0.999871  0.000866338 -2.48896e-05 
         650      8.88449     0.999871   0.00086634 -2.48612e-05 
         650      8.94919     0.999872  0.000866342 -2.48328e-05 
         650      9.01418     0.999872  0.000866344 -2.48042e-05 
         650      9.07935     0.999872  0.000866346 -2.47755e-05 
         650      9.14481     0.999873  0.000866348 -2.47468e-05 
         650      9.21051     0.999873   0.00086635 -2.47179e-05 
         650      9.27639     0.999873  0.000866352 -2.46889e-05 
         650      9.34255     0.999873  0.000866353 -2.46599e-05 
         650       9.4089     0.999874  0.000866355 -2.46307e-05 
         650      9.47553     0.999874  0.000866356 -2.46015e-05 
         650      9.54235     0.999874  0.000866356 -2.45723e-05 
         650      9.60945     0.999874  0.000866357 -2.45429e-05 
         650      9.67674     0.999875  0.000866357 -2.45136e-05 
         650      9.74432     0.999875  0.000866356 -2.44841e-05 
         650      9.81212     0.999875  0.000866356 -2.44546e-05 
         650      9.88012     0.999875  0.000866355 -2.44251e-05 
         650       9.9484     0.999876  0.000866354 -2.43955e-05 
         650      10.0169     0.999876  0.000866354 -2.43658e-05 
         650      10.0856     0.999876  0.000866353  -2.4336e-05 
         650      10.1545     0.999877  0.000866353 -2.43062e-05 
         650      10.2238     0.999877  0.000866353 -2.42761e-05 
         650      10.2932     0.999877  0.000866353 -2.42458e-05 
         650      10.3628     0.999878  0.000866354 -2.42152e-05 
         650      10.4328     0.999878  0.000866356 -2.41842e-05 
         650      10.5029     0.999878  0.000866357 -2.41527e-05 
         650      10.5733     0.999878   0.00086636 -2.41206e-05 
         650      10.6438     0.999879  0.000866362 -2.40877e-05 
         650      10.7147     0.999879  0.000866365 -2.40538e-05 
         650      10.7858     0.999879  0.000866367 -2.40207e-05 
         650      10.8571      0.99988   0.00086637 -2.39889e-05 
         650      10.9287      0.99988  0.000866372 -2.39571e-05 
         650      11.0004      0.99988  0.000866374 -2.39253e-05 
         650      11.0725     0.999881  0.000866375 -2.38936e-05 
         650      11.1447     0.999881  0.000866375 -2.38619e-05 
         650      11.2172     0.999881  0.000866375 -2.38302e-05 
         650      11.2899     0.999881  0.000866374 -2.37985e-05 
         650      11.3628     0.999882  0.000866373 -2.37669e-05 
         650      11.4361     0.999882  0.000866371 -2.37352e-05 
         650      11.5095     0.999882  0.000866369 -2.37035e-05 
         650      11.5831     0.999883  0.000866366 -2.36717e-05 
         650       11.657     0.999883  0.000866363 -2.36398e-05 
         650      11.7312     0.999883  0.000866361 -2.36079e-05 
         650      11.8055     0.999884  0.000866358 -2.35757e-05 
         650      11.8801     0.999884  0.000866357 -2.35434e-05 
         650       11.955     0.999884  0.000866356 -2.35108e-05 
         650        12.03     0.999885  0.000866356 -2.34779e-05 
         650      12.1053     0.999885  0.000866357 -2.34448e-05 
         650      12.1809     0.999885   0.00086636 -2.34114e-05 
         650      12.2567     0.999885  0.000866364 -2.33776e-05 
         650      12.3326     0.999886   0.00086637 -2.33435e-05 
         650      12.4089     0.999886  0.000866377 -2.33092e-05 
         650      12.4854     0.999886  0.000866384 -2.32746e-05 
         650      12.5621     0.999887  0.000866391 -2.32399e-05 
         650      12.6391     0.999887  0.000866395 -2.32051e-05 
         650      12.7162     0.999888  0.000866396 -2.31704e-05 
         650      12.7937     0.999888   0.00086639  -2.3136e-05 
         650      12.8713     0.999888  0.000866373 -2.31022e-05 
         650      12.9492     0.999889  0.000866356 -2.30687e-05 
         650      13.0273     0.999889   0.00086638 -2.30338e-05 
         650      13.1057     0.999889  0.000866391 -2.29994e-05 
         650      13.1843     0.999889  0.000866391 -2.29653e-05 
         650      13.2631      0.99989  0.000866387 -2.29313e-05 
         650      13.3422      0.99989  0.000866379 -2.28973e-05 
         650      13.4215      0.99989  0.000866371 -2.28633e-05 
         650       13.501     0.999891  0.000866364 -2.28292e-05 
         650      13.5807     0.999891  0.000866359 -2.27948e-05 
         650      13.6608     0.999892  0.000866357 -2.27602e-05 
         650       13.741     0.999892  0.000866356 -2.27254e-05 
         650      13.8215     0.999892  0.000866358 -2.26902e-05 
         650      13.9022     0.999893  0.000866362 -2.26548e-05 
         650      13.9831     0.999893  0.000866367 -2.26191e-05 
         650      14.0643     0.999893  0.000866373 -2.25831e-05 
         650      14.1457     0.999894   0.00086638 -2.25468e-05 
         650      14.2274     0.999894  0.000866386 -2.25103e-05 
         650      14.3092     0.999894  0.000866392 -2.24735e-05 
         650      14.3914     0.999895  0.000866397 -2.24365e-05 
         650      14.4738     0.999895  0.000866401 -2.23993e-05 
         650      14.5563     0.999895  0.000866403  -2.2362e-05 
         650      14.6392     0.999896  0.000866403 -2.23246e-05 
         650      14.7222     0.999896  0.000866403 -2.22873e-05 
         650      14.8055     0.999896    0.0008664   -2.225e-05 
         650       14.889     0.999897  0.000866397  -2.2213e-05 
         650      14.9728     0.999897  0.000866394 -2.21763e-05 
         650      15.0568     0.999897   0.00086639 -2.21401e-05 
         650       15.141     0.999898  0.000866387 -2.21046e-05 
         650      15.2255     0.999898  0.000866384   -2.207e-05 
         650      15.3102     0.999898  0.000866384 -2.20367e-05 
         650      15.3952     0.999899   0.00086638 -2.19963e-05 
         650      15.4803     0.999899  0.000866378 -2.19565e-05 
         650      15.5657       0.9999  0.000866378 -2.19173e-05 
         650      15.6514       0.9999   0.00086638 -2.18784e-05 
         650      15.7372       0.9999  0.000866382   -2.184e-05 
         650      15.8234     0.999901  0.000866385 -2.18017e-05 
         650      15.9097     0.999901  0.000866389 -2.17637e-05 
         650      15.9963     0.999901  0.000866394 -2.17257e-05 
         650      16.0831     0.999902  0.000866398 -2.16879e-05 
         650      16.1702     0.999902  0.000866403 -2.16501e-05 
         650      16.2574     0.999902  0.000866407 -2.16123e-05 
         650       16.345     0.999903   0.00086641 -2.15744e-05 
         650      16.4328     0.999903  0.000866413 -2.15365e-05 
         650      16.5207     0.999904  0.000866415 -2.14985e-05 
         650       16.609     0.999904  0.000866416 -2.14604e-05 
         650      16.6974     0.999904  0.000866417 -2.14222e-05 
         650      16.7861     0.999905  0.000866416 -2.13838e-05 
         650       16.875     0.999905  0.000866415 -2.13453e-05 
         650      16.9642     0.999905  0.000866413 -2.13066e-05 
         650      17.0537     0.999906  0.000866411 -2.12677e-05 
         650      17.1433     0.999906  0.000866409 -2.12286e-05 
         650      17.2332     0.999907  0.000866406 -2.11892e-05 
         650      17.3232     0.999907  0.000866404 -2.11496e-05 
         650      17.4136     0.999907  0.000866402 -2.11097e-05 
         650      17.5041     0.999908  0.000866401 -2.10695e-05 
         650       17.595     0.999908    0.0008664  -2.1029e-05 
         650      17.6861     0.999909    0.0008664 -2.09882e-05 
         650      17.7773     0.999909  0.000866401 -2.09471e-05 
         650      17.8689     0.999909  0.000866403 -2.09057e-05 
         650      17.9606      0.99991  0.000866406  -2.0864e-05 
         650      18.0526      0.99991   0.00086641  -2.0822e-05 
         650      18.1448     0.999911  0.000866413 -2.07798e-05 
         650      18.2373     0.999911  0.000866416 -2.07375e-05 
         650      18.3299     0.999911  0.000866417 -2.06952e-05 
         650      18.4229     0.999912  0.000866416  -2.0653e-05 
         650      18.5161     0.999912  0.000866411 -2.06111e-05 
         650      18.6094     0.999913  0.000866399 -2.05696e-05 
         650      18.7031     0.999913  0.000866412 -2.05271e-05 
         650      18.7969     0.999913  0.000866423 -2.04855e-05 
         650       18.891     0.999914  0.000866427 -2.04446e-05 
         650      18.9853     0.999914  0.000866428 -2.04043e-05 
         650      19.0799     0.999915  0.000866427 -2.03641e-05 
         650      19.1748     0.999915  0.000866424 -2.03238e-05 
         650      19.2698     0.999915  0.000866421 -2.02834e-05 
         650      19.3651     0.999916  0.000866419 -2.02427e-05 
         650      19.4606     0.999916  0.000866417 -2.02017e-05 
         650      19.5563     0.999917  0.000866416 -2.01602e-05 
         650      19.6523     0.999917  0.000866416 -2.01183e-05 
         650      19.7485     0.999918  0.000866416 -2.00759e-05 
         650      19.8449     0.999918  0.000866418 -2.00332e-05 
         650      19.9417     0.999918  0.000866419 -1.99901e-05 
         650      20.0386     0.999919  0.000866421 -1.99466e-05 
         650      20.1357     0.999919  0.000866424  -1.9903e-05 
         650      20.2331      0.99992  0.000866426 -1.98591e-05 
         650      20.3307      0.99992  0.000866428 -1.98151e-05 
         650      20.4286      0.99992  0.000866429 -1.97711e-05 
         650      20.5267     0.999921  0.000866431  -1.9727e-05 
         650       20.625     0.999921  0.000866431 -1.96829e-05 
         650      20.7236     0.999921  0.000866432 -1.96389e-05 
         650      20.8224     0.999922  0.000866432  -1.9595e-05 
         650      20.9215     0.999922  0.000866431 -1.95512e-05 
         650      21.0207     0.999923  0.000866431 -1.95076e-05 
         650      21.1202     0.999923   0.00086643 -1.94641e-05 
         650      21.2199     0.999923  0.000866428 -1.94207e-05 
         650      21.3199     0.999924  0.000866427 -1.93774e-05 
         650      21.4202     0.999924  0.000866426 -1.93343e-05 
         650      21.5206     0.999925  0.000866425 -1.92912e-05 
         650      21.6213     0.999925  0.000866425 -1.92481e-05 
         650      21.7222     0.999925  0.000866425 -1.92051e-05 
         650      21.8234     0.999926  0.000866425  -1.9162e-05 
         650      21.9247     0.999926  0.000866425 -1.91188e-05 
         650      22.0264     0.999927  0.000866426 -1.90754e-05 
         650      22.1282     0.999927  0.000866427 -1.90318e-05 
         650      22.2303     0.999927  0.000866428  -1.8988e-05 
         650      22.3327     0.999928   0.00086643 -1.89438e-05 
         650      22.4352     0.999928  0.000866431 -1.88994e-05 
         650       22.538     0.999929  0.000866433 -1.88546e-05 
         650       22.641     0.999929  0.000866435 -1.88094e-05 
         650      22.7443      0.99993  0.000866436 -1.87639e-05 
         650      22.8477      0.99993  0.000866438  -1.8718e-05 
         650      22.9515      0.99993  0.000866439 -1.86717e-05 
         650      23.0555     0.999931   0.00086644 -1.86251e-05 
         650      23.1597     0.999931  0.000866441 -1.85783e-05 
         650      23.2642     0.999932  0.000866441 -1.85312e-05 
         650      23.3688     0.999932  0.000866441  -1.8484e-05 
         650      23.4737     0.999933  0.000866441 -1.84366e-05 
         650      23.5788     0.999933  0.000866441 -1.83893e-05 
         650      23.6843     0.999934  0.000866442  -1.8342e-05 
         650      23.7899     0.999934  0.000866442 -1.82949e-05 
         650      23.8957     0.999935  0.000866442  -1.8248e-05 
         650      24.0018     0.999935  0.000866443 -1.82015e-05 