Variables = x, y, u, v, p

Zone, I=800, F=POINT
         500            0            0            0 -3.04504e-05 
         500     0.000117  4.24546e-05  1.48584e-12 -3.04503e-05 
         500     0.000469  0.000170181  2.38733e-11 -3.04503e-05 
         500     0.001056   0.00038318  1.21029e-10 -3.04501e-05 
         500     0.001879  0.000681814  3.83188e-10   -3.045e-05 
         500     0.002936   0.00106536  9.35556e-10 -3.04497e-05 
         500     0.004228   0.00153417  1.94011e-09 -3.04494e-05 
         500     0.005755   0.00208826  3.59458e-09 -3.04491e-05 
         500     0.007518   0.00272798  6.13426e-09 -3.04487e-05 
         500     0.009515   0.00345261  9.82596e-09 -3.04483e-05 
         500     0.011746   0.00426215   1.4974e-08 -3.04478e-05 
         500     0.014214   0.00515769  2.19276e-08 -3.04473e-05 
         500     0.016915   0.00613778  3.10529e-08 -3.04467e-05 
         500     0.019853   0.00720386   4.2777e-08 -3.04461e-05 
         500     0.023023   0.00835413  5.75283e-08 -3.04454e-05 
         500     0.026431   0.00959075  7.58202e-08 -3.04446e-05 
         500     0.030075     0.010913  9.81678e-08 -3.04438e-05 
         500      0.03395    0.0123191  1.25094e-07  -3.0443e-05 
         500     0.038063    0.0138115   1.5724e-07 -3.04421e-05 
         500     0.042408    0.0153882  1.95188e-07 -3.04412e-05 
         500     0.046991    0.0170512  2.39655e-07 -3.04402e-05 
         500     0.051805     0.018798  2.91274e-07 -3.04391e-05 
         500     0.056859    0.0206318  3.50878e-07  -3.0438e-05 
         500     0.062143    0.0225492  4.19124e-07 -3.04369e-05 
         500     0.067666    0.0245533  4.96934e-07 -3.04357e-05 
         500     0.073425    0.0266429   5.8512e-07 -3.04344e-05 
         500     0.079413    0.0288157  6.84447e-07 -3.04331e-05 
         500     0.085642    0.0310759   7.9603e-07 -3.04318e-05 
         500       0.0921    0.0334192  9.20607e-07 -3.04304e-05 
         500     0.098799      0.03585   1.0594e-06 -3.04289e-05 
         500     0.105727    0.0383638  1.21318e-06 -3.04274e-05 
         500     0.112896     0.040965  1.38328e-06 -3.04259e-05 
         500       0.1203    0.0436515  1.57066e-06 -3.04243e-05 
         500     0.127932    0.0464207  1.77626e-06 -3.04226e-05 
         500     0.135806    0.0492776  2.00163e-06 -3.04209e-05 
         500     0.143909    0.0522176   2.2476e-06 -3.04191e-05 
         500     0.152253     0.055245  2.51577e-06 -3.04173e-05 
         500     0.160825     0.058355  2.80701e-06 -3.04155e-05 
         500     0.169639    0.0615527  3.12308e-06 -3.04135e-05 
         500     0.178688    0.0648357  3.46512e-06 -3.04116e-05 
         500     0.187965    0.0682012   3.8342e-06 -3.04096e-05 
         500     0.197484    0.0716544  4.23232e-06 -3.04075e-05 
         500      0.20723    0.0751898  4.66029e-06 -3.04054e-05 
         500      0.21722    0.0788136  5.12034e-06 -3.04032e-05 
         500     0.227436    0.0825191  5.61318e-06  -3.0401e-05 
         500     0.237895    0.0863126  6.14116e-06 -3.03987e-05 
         500     0.248581    0.0901881  6.70508e-06 -3.03964e-05 
         500      0.25951    0.0941515  7.30741e-06  -3.0394e-05 
         500     0.270675    0.0982002  7.94945e-06 -3.03916e-05 
         500     0.282065      0.10233  8.63223e-06 -3.03891e-05 
         500       0.2937     0.106548  9.35868e-06 -3.03866e-05 
         500      0.30556     0.110848  1.01293e-05  -3.0384e-05 
         500     0.317665     0.115235  1.09472e-05 -3.03814e-05 
         500     0.329995     0.119704  1.18129e-05 -3.03787e-05 
         500     0.342569      0.12426  1.27295e-05  -3.0376e-05 
         500     0.355379     0.128902  1.36984e-05 -3.03732e-05 
         500     0.368414     0.133624  1.47206e-05 -3.03703e-05 
         500     0.381693     0.138433  1.57997e-05 -3.03674e-05 
         500     0.395198     0.143323   1.6936e-05 -3.03645e-05 
         500     0.408948     0.148301  1.81333e-05 -3.03615e-05 
         500     0.422921     0.153358  1.93916e-05 -3.03584e-05 
         500     0.437141     0.158503  2.07152e-05 -3.03553e-05 
         500     0.451585     0.163728   2.2104e-05 -3.03522e-05 
         500     0.466275      0.16904  2.35623e-05  -3.0349e-05 
         500       0.4812     0.174435  2.50913e-05 -3.03457e-05 
         500     0.496348     0.179908  2.66917e-05 -3.03424e-05 
         500     0.511744     0.185469  2.83685e-05  -3.0339e-05 
         500     0.527361     0.191107  3.01208e-05 -3.03356e-05 
         500     0.543227     0.196833  3.19542e-05 -3.03321e-05 
         500     0.559314     0.202635  3.38677e-05 -3.03286e-05 
         500      0.57565     0.208524  3.58668e-05  -3.0325e-05 
         500      0.59222     0.214493  3.79521e-05 -3.03213e-05 
         500     0.609012     0.220539  4.01243e-05 -3.03176e-05 
         500     0.626053     0.226671  4.23892e-05 -3.03139e-05 
         500     0.643315     0.232877  4.47455e-05   -3.031e-05 
         500     0.660826     0.239168  4.71995e-05 -3.03062e-05 
         500     0.678557     0.245532  4.97493e-05 -3.03022e-05 
         500     0.696538     0.251981  5.24016e-05 -3.02982e-05 
         500     0.714754     0.258507  5.51567e-05 -3.02942e-05 
         500      0.73319     0.265106  5.80145e-05 -3.02901e-05 
         500     0.751876     0.271787  6.09821e-05 -3.02859e-05 
         500     0.770782     0.278539  6.40571e-05 -3.02817e-05 
         500     0.789937     0.285372  6.72466e-05 -3.02774e-05 
         500     0.809313     0.292274  7.05482e-05  -3.0273e-05 
         500     0.828939     0.299256  7.39692e-05 -3.02686e-05 
         500     0.848784     0.306305  7.75065e-05 -3.02641e-05 
         500      0.86888     0.313432  8.11682e-05 -3.02595e-05 
         500     0.889212     0.320631  8.49538e-05 -3.02549e-05 
         500     0.909761     0.327895  8.88619e-05 -3.02502e-05 
         500     0.930563     0.335234  9.29016e-05 -3.02454e-05 
         500     0.951582     0.342635   9.7068e-05 -3.02406e-05 
         500     0.972854     0.350109   0.00010137 -3.02357e-05 
         500     0.994343     0.357644  0.000105803 -3.02307e-05 
         500      1.01608     0.365249  0.000110377 -3.02256e-05 
         500      1.03806     0.372918  0.000115088 -3.02205e-05 
         500      1.06025     0.380643  0.000119936 -3.02153e-05 
         500       1.0827     0.388434   0.00012493   -3.021e-05 
         500      1.10536     0.396279  0.000130063 -3.02046e-05 
         500      1.12828     0.404187  0.000135346 -3.01991e-05 
         500      1.15142     0.412145  0.000140772 -3.01936e-05 
         500       1.1748     0.420163   0.00014635  -3.0188e-05 
         500      1.19842     0.428234  0.000152079 -3.01822e-05 
         500      1.22226     0.436348  0.000157953 -3.01764e-05 
         500      1.24635     0.444518  0.000163985 -3.01705e-05 
         500      1.27066     0.452727  0.000170164 -3.01645e-05 
         500      1.29522     0.460987  0.000176503 -3.01584e-05 
         500         1.32     0.469282  0.000182991 -3.01522e-05 
         500      1.34503     0.477624  0.000189639 -3.01459e-05 
         500      1.37028     0.485996  0.000196438 -3.01395e-05 
         500      1.39578      0.49441  0.000203397 -3.01329e-05 
         500      1.42152     0.502855  0.000210513 -3.01262e-05 
         500      1.44747     0.511324  0.000217778 -3.01194e-05 
         500      1.47368     0.519826  0.000225205 -3.01125e-05 
         500       1.5001     0.528345  0.000232781 -3.01054e-05 
         500      1.52677     0.536891  0.000240518 -3.00982e-05 
         500      1.55367     0.545449  0.000248401 -3.00909e-05 
         500      1.58081     0.554028  0.000256442 -3.00835e-05 
         500       1.6082     0.562618  0.000264633 -3.00761e-05 
         500      1.63579      0.57121  0.000272967 -3.00685e-05 
         500      1.66364     0.579814  0.000281454 -3.00608e-05 
         500      1.69171     0.588412  0.000290079  -3.0053e-05 
         500      1.72003     0.597014  0.000298854  -3.0045e-05 
         500      1.74857     0.605603  0.000307762 -3.00368e-05 
         500      1.77736      0.61419  0.000316815 -3.00284e-05 
         500      1.80636     0.622756  0.000325993 -3.00199e-05 
         500      1.83563     0.631312   0.00033531 -3.00111e-05 
         500      1.86512     0.639846  0.000344753 -3.00021e-05 
         500      1.89484     0.648348  0.000354311 -2.99929e-05 
         500       1.9248     0.656828  0.000363994 -2.99836e-05 
         500      1.95498     0.665267  0.000373783  -2.9974e-05 
         500      1.98542     0.673674  0.000383688 -2.99642e-05 
         500      2.01607     0.682034  0.000393688 -2.99542e-05 
         500      2.04698     0.690353  0.000403793  -2.9944e-05 
         500      2.07812     0.698622  0.000413989 -2.99337e-05 
         500      2.10947      0.70683  0.000424263 -2.99231e-05 
         500      2.14109     0.714984  0.000434624 -2.99123e-05 
         500      2.17291     0.723069  0.000445049 -2.99014e-05 
         500      2.20499     0.731092  0.000455547 -2.98902e-05 
         500      2.23728     0.739037  0.000466095 -2.98789e-05 
         500      2.26984     0.746911  0.000476701 -2.98673e-05 
         500      2.30263     0.754704  0.000487351 -2.98556e-05 
         500      2.33562     0.762405  0.000498026 -2.98436e-05 
         500      2.36888     0.770024  0.000508737 -2.98314e-05 
         500      2.40235     0.777543  0.000519458 -2.98191e-05 
         500      2.43608      0.78497  0.000530196 -2.98064e-05 
         500      2.47002      0.79229  0.000540927 -2.97936e-05 
         500      2.50421      0.79951  0.000551659 -2.97804e-05 
         500      2.53862     0.806615  0.000562365 -2.97671e-05 
         500      2.57329     0.813612  0.000573054 -2.97534e-05 
         500      2.60819     0.820493  0.000583707 -2.97395e-05 
         500       2.6433     0.827248  0.000594307 -2.97253e-05 
         500      2.67868     0.833885  0.000604861 -2.97108e-05 
         500      2.71426      0.84039  0.000615344  -2.9696e-05 
         500       2.7501     0.846771  0.000625761 -2.96809e-05 
         500      2.78615     0.853014  0.000636088 -2.96655e-05 
         500      2.82247     0.859127  0.000646332 -2.96497e-05 
         500      2.85902     0.865102  0.000656474 -2.96337e-05 
         500      2.89577     0.870933  0.000666499 -2.96173e-05 
         500      2.93279     0.876626  0.000676412 -2.96007e-05 
         500      2.97002     0.882172   0.00068619 -2.95837e-05 
         500       3.0075     0.887576  0.000695839 -2.95664e-05 
         500       3.0452     0.892829  0.000705336 -2.95489e-05 
         500      3.08316     0.897939  0.000714688 -2.95311e-05 
         500      3.12135     0.902899   0.00072388 -2.95131e-05 
         500      3.15975     0.907706  0.000732897 -2.94948e-05 
         500      3.19842     0.912367  0.000741747 -2.94763e-05 
         500      3.23728     0.916875  0.000750409 -2.94576e-05 
         500      3.27642     0.921235  0.000758891 -2.94386e-05 
         500      3.31576     0.925443  0.000767174 -2.94195e-05 
         500      3.35536     0.929504  0.000775266 -2.94001e-05 
         500      3.39517     0.933414  0.000783148 -2.93804e-05 
         500      3.43525     0.937179   0.00079083 -2.93604e-05 
         500      3.47555     0.940799  0.000798301 -2.93401e-05 
         500      3.51607      0.94427  0.000805551 -2.93192e-05 
         500      3.55685     0.947601  0.000812589 -2.92977e-05 
         500      3.59783     0.950789    0.0008194 -2.92755e-05 
         500      3.63908     0.953839  0.000825992 -2.92522e-05 
         500      3.68053     0.956751  0.000832351 -2.92275e-05 
         500      3.72225     0.959531  0.000838484 -2.92012e-05 
         500      3.76421     0.962179  0.000844399 -2.91747e-05 
         500      3.80636     0.964696  0.000850104 -2.91515e-05 
         500      3.84879     0.967089  0.000855581 -2.91288e-05 
         500      3.89142     0.969359  0.000860826 -2.91062e-05 
         500      3.93431      0.97151  0.000865851 -2.90838e-05 
         500      3.97741     0.973544  0.000870653 -2.90614e-05 
         500      4.02077     0.975467  0.000875242 -2.90391e-05 
         500      4.06434     0.977279  0.000879617 -2.90167e-05 
         500      4.10817     0.978988  0.000883786 -2.89943e-05 
         500      4.15224     0.980595  0.000887751 -2.89717e-05 
         500      4.19651     0.982102  0.000891512 -2.89491e-05 
         500      4.24106     0.983517   0.00089508 -2.89264e-05 
         500       4.2858     0.984841  0.000898454 -2.89035e-05 
         500      4.33081     0.986079  0.000901643 -2.88805e-05 
         500      4.37602     0.987234  0.000904647 -2.88574e-05 
         500       4.4215      0.98831  0.000907477 -2.88341e-05 
         500      4.46721     0.989311  0.000910135 -2.88106e-05 
         500      4.51313      0.99024  0.000912626  -2.8787e-05 
         500      4.55931     0.991103   0.00091496 -2.87632e-05 
         500       4.6057       0.9919  0.000917139 -2.87392e-05 
         500      4.65235     0.992637  0.000919173  -2.8715e-05 
         500      4.69921     0.993316  0.000921065 -2.86905e-05 
         500      4.74633     0.993942  0.000922826 -2.86657e-05 
         500      4.79369     0.994517  0.000924461 -2.86406e-05 
         500      4.84125     0.995044  0.000925974 -2.86152e-05 
         500      4.88908     0.995528  0.000927375 -2.85894e-05 
         500      4.93711     0.995969  0.000928669 -2.85632e-05 
         500      4.98541     0.996372  0.000929862 -2.85365e-05 
         500      5.03391     0.996738   0.00093096 -2.85094e-05 
         500      5.08268     0.997072   0.00093197 -2.84817e-05 
         500      5.13165     0.997374  0.000932896 -2.84536e-05 
         500      5.18089     0.997648  0.000933744 -2.84249e-05 
         500      5.23037     0.997895  0.000934519 -2.83956e-05 
         500      5.28004     0.998118  0.000935224 -2.83659e-05 
         500      5.32999     0.998319  0.000935865 -2.83356e-05 
         500      5.38013       0.9985  0.000936445  -2.8305e-05 
         500      5.43055     0.998661  0.000936969 -2.82739e-05 
         500      5.48116     0.998806   0.00093744 -2.82425e-05 
         500      5.53204     0.998935  0.000937862 -2.82109e-05 
         500      5.58317      0.99905  0.000938239 -2.81791e-05 
         500      5.63448     0.999152  0.000938574 -2.81475e-05 
         500      5.68607     0.999243  0.000938871 -2.81161e-05 
         500      5.73786     0.999323  0.000939135 -2.80851e-05 
         500      5.78992     0.999394  0.000939368 -2.80548e-05 
         500      5.84218     0.999457  0.000939576 -2.80254e-05 
         500      5.89471     0.999512  0.000939763 -2.79972e-05 
         500      5.94748      0.99956  0.000939934 -2.79704e-05 
         500      6.00044     0.999602  0.000940094 -2.79455e-05 
         500      6.05367     0.999639  0.000940246 -2.79227e-05 
         500       6.1071     0.999671  0.000940382 -2.78972e-05 
         500      6.16081     0.999699  0.000940502 -2.78706e-05 
         500      6.21471     0.999723  0.000940609 -2.78455e-05 
         500      6.26889     0.999744  0.000940701  -2.7821e-05 
         500      6.32326     0.999763  0.000940772 -2.77964e-05 
         500       6.3779     0.999778  0.000940816 -2.77706e-05 
         500      6.43279     0.999792   0.00094082 -2.77424e-05 
         500      6.48786     0.999803  0.000940777 -2.77097e-05 
         500      6.54321     0.999813  0.000940889 -2.76639e-05 
         500      6.59876     0.999822  0.000940964  -2.7624e-05 
         500      6.65458     0.999829   0.00094101  -2.7588e-05 
         500      6.71059     0.999835  0.000941032 -2.75545e-05 
         500      6.76689      0.99984  0.000941036  -2.7522e-05 
         500      6.82341     0.999845  0.000941023 -2.74898e-05 
         500      6.88013     0.999849  0.000941049 -2.74605e-05 
         500      6.93713     0.999852  0.000941065 -2.74296e-05 
         500      6.99432     0.999855  0.000941073 -2.73972e-05 
         500      7.05178     0.999857  0.000941076 -2.73639e-05 
         500      7.10944     0.999859  0.000941077   -2.733e-05 
         500      7.16738      0.99986  0.000941079 -2.72958e-05 
         500      7.22551     0.999862  0.000941082 -2.72615e-05 
         500      7.28391     0.999863  0.000941086 -2.72272e-05 
         500      7.34256     0.999864  0.000941093  -2.7193e-05 
         500      7.40139     0.999865    0.0009411  -2.7159e-05 
         500       7.4605     0.999866   0.00094111  -2.7125e-05 
         500       7.5198     0.999866  0.000941119 -2.70912e-05 
         500      7.57939     0.999867  0.000941129 -2.70574e-05 
         500      7.63916     0.999868  0.000941138 -2.70237e-05 
         500      7.69921     0.999868  0.000941146 -2.69899e-05 
         500       7.7595     0.999868  0.000941152  -2.6956e-05 
         500      7.81998     0.999869  0.000941157 -2.69219e-05 
         500      7.88073     0.999869  0.000941161 -2.68877e-05 
         500      7.94168     0.999869  0.000941162 -2.68532e-05 
         500      8.00291      0.99987  0.000941163 -2.68185e-05 
         500      8.06432      0.99987  0.000941162 -2.67836e-05 
         500      8.12602      0.99987   0.00094116 -2.67485e-05 
         500      8.18796     0.999871  0.000941158 -2.67132e-05 
         500      8.25008     0.999871  0.000941156 -2.66777e-05 
         500      8.31248     0.999871  0.000941154 -2.66421e-05 
         500      8.37507     0.999871  0.000941152 -2.66064e-05 
         500      8.43794     0.999872  0.000941151 -2.65706e-05 
         500        8.501     0.999872  0.000941151 -2.65348e-05 
         500      8.56434     0.999872  0.000941152  -2.6499e-05 
         500      8.62787     0.999873  0.000941153 -2.64632e-05 
         500      8.69169     0.999873  0.000941155 -2.64275e-05 
         500      8.75574     0.999873  0.000941157 -2.63917e-05 
         500      8.81997     0.999873  0.000941159 -2.63561e-05 
         500      8.88449     0.999874   0.00094116 -2.63203e-05 
         500      8.94919     0.999874  0.000941161 -2.62846e-05 
         500      9.01418     0.999874  0.000941161 -2.62487e-05 
         500      9.07935     0.999874   0.00094116 -2.62126e-05 
         500      9.14481     0.999875  0.000941158 -2.61763e-05 
         500      9.21051     0.999875  0.000941156 -2.61397e-05 
         500      9.27639     0.999875  0.000941153 -2.61029e-05 
         500      9.34255     0.999875  0.000941152 -2.60658e-05 
         500       9.4089     0.999876  0.000941153 -2.60287e-05 
         500      9.47553     0.999876  0.000941159 -2.59916e-05 
         500      9.54235     0.999876  0.000941171  -2.5955e-05 
         500      9.60945     0.999876  0.000941193 -2.59193e-05 
         500      9.67674     0.999877  0.000941169 -2.58777e-05 
         500      9.74432     0.999877  0.000941162 -2.58368e-05 
         500      9.81212     0.999877  0.000941166 -2.57966e-05 
         500      9.88012     0.999877  0.000941176 -2.57567e-05 
         500       9.9484     0.999878  0.000941185 -2.57169e-05 
         500      10.0169     0.999878  0.000941192 -2.56771e-05 
         500      10.0856     0.999878  0.000941195  -2.5637e-05 
         500      10.1545     0.999879  0.000941195 -2.55967e-05 
         500      10.2238     0.999879  0.000941192 -2.55563e-05 
         500      10.2932     0.999879  0.000941187 -2.55156e-05 
         500      10.3628     0.999879  0.000941181 -2.54749e-05 
         500      10.4328      0.99988  0.000941175 -2.54342e-05 
         500      10.5029      0.99988   0.00094117 -2.53936e-05 
         500      10.5733      0.99988  0.000941167  -2.5353e-05 
         500      10.6438      0.99988  0.000941167 -2.53127e-05 
         500      10.7147     0.999881  0.000941169 -2.52726e-05 
         500      10.7858     0.999881  0.000941173 -2.52327e-05 
         500      10.8571     0.999881   0.00094118 -2.51931e-05 
         500      10.9287     0.999882  0.000941188 -2.51537e-05 
         500      11.0004     0.999882  0.000941197 -2.51144e-05 
         500      11.0725     0.999882  0.000941205 -2.50753e-05 
         500      11.1447     0.999882  0.000941213 -2.50362e-05 
         500      11.2172     0.999883   0.00094122  -2.4997e-05 
         500      11.2899     0.999883  0.000941224 -2.49577e-05 
         500      11.3628     0.999883  0.000941226 -2.49181e-05 
         500      11.4361     0.999884  0.000941225 -2.48781e-05 
         500      11.5095     0.999884  0.000941221 -2.48378e-05 
         500      11.5831     0.999884  0.000941214 -2.47969e-05 
         500       11.657     0.999885  0.000941206 -2.47554e-05 
         500      11.7312     0.999885  0.000941197 -2.47134e-05 
         500      11.8055     0.999885  0.000941187 -2.46708e-05 
         500      11.8801     0.999885  0.000941178 -2.46277e-05 
         500       11.955     0.999886  0.000941172 -2.45841e-05 
         500        12.03     0.999886  0.000941168 -2.45401e-05 
         500      12.1053     0.999886  0.000941168 -2.44959e-05 
         500      12.1809     0.999887  0.000941172 -2.44515e-05 
         500      12.2567     0.999887   0.00094118 -2.44073e-05 
         500      12.3326     0.999887  0.000941193 -2.43633e-05 
         500      12.4089     0.999888  0.000941209 -2.43196e-05 
         500      12.4854     0.999888  0.000941226 -2.42765e-05 
         500      12.5621     0.999888  0.000941244  -2.4234e-05 
         500      12.6391     0.999889  0.000941259 -2.41921e-05 
         500      12.7162     0.999889  0.000941268 -2.41506e-05 
         500      12.7937     0.999889   0.00094127 -2.41091e-05 
         500      12.8713      0.99989  0.000941262 -2.40673e-05 
         500      12.9492      0.99989  0.000941242 -2.40242e-05 
         500      13.0273      0.99989  0.000941212 -2.39787e-05 
         500      13.1057     0.999891  0.000941176 -2.39291e-05 
         500      13.1843     0.999891   0.00094114 -2.38735e-05 
         500      13.2631     0.999891  0.000941118  -2.3809e-05 
         500      13.3422     0.999892  0.000941124 -2.37446e-05 
         500      13.4215     0.999892   0.00094117  -2.3707e-05 
         500       13.501     0.999892  0.000941302 -2.36741e-05 
         500      13.5807     0.999893  0.000941466 -2.36378e-05 
         500      13.6608     0.999893  0.000941279 -2.35714e-05 
         500       13.741     0.999893  0.000941181 -2.35301e-05 
         500      13.8215     0.999894  0.000941169 -2.34978e-05 
         500      13.9022     0.999894  0.000941178 -2.34618e-05 
         500      13.9831     0.999894  0.000941197  -2.3423e-05 
         500      14.0643     0.999895   0.00094122 -2.33819e-05 
         500      14.1457     0.999895  0.000941242 -2.33392e-05 
         500      14.2274     0.999895   0.00094126 -2.32952e-05 
         500      14.3092     0.999896  0.000941273 -2.32504e-05 
         500      14.3914     0.999896   0.00094128 -2.32048e-05 
         500      14.4738     0.999896  0.000941282 -2.31587e-05 
         500      14.5563     0.999897  0.000941279 -2.31123e-05 
         500      14.6392     0.999897  0.000941273 -2.30655e-05 
         500      14.7222     0.999897  0.000941265 -2.30185e-05 
         500      14.8055     0.999898  0.000941256 -2.29712e-05 
         500       14.889     0.999898  0.000941247 -2.29237e-05 
         500      14.9728     0.999898  0.000941238 -2.28759e-05 
         500      15.0568     0.999899  0.000941231 -2.28278e-05 
         500       15.141     0.999899  0.000941226 -2.27795e-05 
         500      15.2255     0.999899  0.000941224  -2.2731e-05 
         500      15.3102       0.9999  0.000941223 -2.26822e-05 
         500      15.3952       0.9999  0.000941224 -2.26331e-05 
         500      15.4803       0.9999  0.000941227 -2.25839e-05 
         500      15.5657     0.999901  0.000941231 -2.25344e-05 
         500      15.6514     0.999901  0.000941235 -2.24848e-05 
         500      15.7372     0.999901   0.00094124 -2.24351e-05 
         500      15.8234     0.999902  0.000941245 -2.23854e-05 
         500      15.9097     0.999902  0.000941249 -2.23358e-05 
         500      15.9963     0.999902  0.000941252 -2.22862e-05 
         500      16.0831     0.999903  0.000941255 -2.22368e-05 
         500      16.1702     0.999903  0.000941256 -2.21876e-05 
         500      16.2574     0.999903  0.000941257 -2.21386e-05 
         500       16.345     0.999904  0.000941256 -2.20898e-05 
         500      16.4328     0.999904  0.000941255 -2.20413e-05 
         500      16.5207     0.999905  0.000941254  -2.1993e-05 
         500       16.609     0.999905  0.000941252 -2.19449e-05 
         500      16.6974     0.999906  0.000941251 -2.18968e-05 
         500      16.7861     0.999906  0.000941249 -2.18487e-05 
         500       16.875     0.999906  0.000941248 -2.18004e-05 
         500      16.9642     0.999907  0.000941246 -2.17518e-05 
         500      17.0537     0.999907  0.000941244 -2.17026e-05 
         500      17.1433     0.999907  0.000941242 -2.16526e-05 
         500      17.2332     0.999908  0.000941238 -2.16016e-05 
         500      17.3232     0.999908  0.000941233 -2.15494e-05 
         500      17.4136     0.999908  0.000941227 -2.14957e-05 
         500      17.5041     0.999909   0.00094122 -2.14403e-05 
         500       17.595     0.999909  0.000941215  -2.1383e-05 
         500      17.6861     0.999909  0.000941215 -2.13236e-05 
         500      17.7773      0.99991  0.000941224 -2.12623e-05 
         500      17.8689      0.99991  0.000941251 -2.11988e-05 
         500      17.9606      0.99991  0.000941309 -2.11337e-05 
         500      18.0526     0.999911  0.000941301 -2.10763e-05 
         500      18.1448     0.999911  0.000941228 -2.10326e-05 
         500      18.2373     0.999912  0.000941198 -2.09975e-05 
         500      18.3299     0.999912  0.000941196  -2.0975e-05 
         500      18.4229     0.999913  0.000941215 -2.09699e-05 
         500      18.5161     0.999913  0.000941249 -2.09054e-05 
         500      18.6094     0.999914  0.000941275 -2.08197e-05 
         500      18.7031     0.999914   0.00094129 -2.07468e-05 
         500      18.7969     0.999914  0.000941294 -2.06833e-05 
         500       18.891     0.999915  0.000941292 -2.06264e-05 
         500      18.9853     0.999915  0.000941284 -2.05741e-05 
         500      19.0799     0.999915  0.000941275 -2.05244e-05 
         500      19.1748     0.999916  0.000941265 -2.04761e-05 
         500      19.2698     0.999916  0.000941256 -2.04283e-05 
         500      19.3651     0.999917  0.000941249 -2.03803e-05 
         500      19.4606     0.999917  0.000941245 -2.03316e-05 
         500      19.5563     0.999917  0.000941243 -2.02818e-05 
         500      19.6523     0.999918  0.000941244  -2.0231e-05 
         500      19.7485     0.999918  0.000941247  -2.0179e-05 
         500      19.8449     0.999919  0.000941251 -2.01259e-05 
         500      19.9417     0.999919  0.000941256 -2.00718e-05 
         500      20.0386     0.999919  0.000941261 -2.00167e-05 
         500      20.1357      0.99992  0.000941265 -1.99609e-05 
         500      20.2331      0.99992  0.000941268 -1.99043e-05 
         500      20.3307      0.99992   0.00094127 -1.98471e-05 
         500      20.4286     0.999921  0.000941271 -1.97894e-05 
         500      20.5267     0.999921  0.000941271 -1.97314e-05 
         500       20.625     0.999922  0.000941271 -1.96729e-05 
         500      20.7236     0.999922  0.000941271  -1.9614e-05 
         500      20.8224     0.999922  0.000941272  -1.9555e-05 
         500      20.9215     0.999923  0.000941275 -1.94957e-05 
         500      21.0207     0.999923   0.00094128 -1.94362e-05 
         500      21.1202     0.999923  0.000941286 -1.93765e-05 
         500      21.2199     0.999924  0.000941294 -1.93169e-05 
         500      21.3199     0.999924  0.000941303 -1.92572e-05 
         500      21.4202     0.999925  0.000941311 -1.91977e-05 
         500      21.5206     0.999925  0.000941317 -1.91385e-05 
         500      21.6213     0.999925   0.00094132 -1.90796e-05 
         500      21.7222     0.999926  0.000941317 -1.90212e-05 
         500      21.8234     0.999926  0.000941309 -1.89633e-05 
         500      21.9247     0.999926  0.000941296 -1.89059e-05 
         500      22.0264     0.999927  0.000941281 -1.88488e-05 
         500      22.1282     0.999927  0.000941271 -1.87919e-05 
         500      22.2303     0.999928  0.000941279 -1.87345e-05 
         500      22.3327     0.999928   0.00094131 -1.86767e-05 
         500      22.4352     0.999929  0.000941289 -1.86222e-05 
         500       22.538     0.999929  0.000941267 -1.85673e-05 
         500       22.641     0.999929  0.000941247 -1.85121e-05 
         500      22.7443      0.99993  0.000941233 -1.84565e-05 
         500      22.8477      0.99993  0.000941224 -1.84006e-05 
         500      22.9515     0.999931  0.000941221 -1.83443e-05 
         500      23.0555     0.999931  0.000941223 -1.82877e-05 
         500      23.1597     0.999932   0.00094123 -1.82308e-05 
         500      23.2642     0.999932  0.000941239 -1.81735e-05 
         500      23.3688     0.999932  0.000941251  -1.8116e-05 
         500      23.4737     0.999933  0.000941264  -1.8058e-05 
         500      23.5788     0.999933  0.000941276 -1.79998e-05 
         500      23.6843     0.999934  0.000941286 -1.79412e-05 
         500      23.7899     0.999934  0.000941294 -1.78822e-05 
         500      23.8957     0.999935    0.0009413  -1.7823e-05 
         500      24.0018     0.999935  0.000941302 -1.77634e-05 