Variables = x, y, u, v, p

Zone, I=800, F=POINT
         100            0            0            0 -0.000191667 
         100     0.000117  5.89086e-05  4.24009e-12 -0.000191667 
         100     0.000469  0.000236138  6.81448e-11 -0.000191666 
         100     0.001056  0.000531691  3.45507e-10 -0.000191666 
         100     0.001879  0.000946072  1.09403e-09 -0.000191666 
         100     0.002936   0.00147828  2.67144e-09 -0.000191665 
         100     0.004228   0.00212882  5.54077e-09 -0.000191664 
         100     0.005755   0.00289769  1.02676e-08 -0.000191663 
         100     0.007518   0.00378542  1.75257e-08 -0.000191662 
         100     0.009515   0.00479099  2.80797e-08 -0.000191661 
         100     0.011746   0.00591442  4.28027e-08 -0.000191659 
         100     0.014214   0.00715722  6.26978e-08 -0.000191658 
         100     0.016915   0.00851739  8.88185e-08 -0.000191656 
         100     0.019853   0.00999696  1.22395e-07 -0.000191654 
         100     0.023023    0.0115934  1.64665e-07 -0.000191652 
         100     0.026431    0.0133098   2.1711e-07  -0.00019165 
         100     0.030075    0.0151451  2.81224e-07 -0.000191648 
         100      0.03395    0.0170969  3.58527e-07 -0.000191646 
         100     0.038063    0.0191686   4.5088e-07 -0.000191643 
         100     0.042408    0.0213572  5.59982e-07  -0.00019164 
         100     0.046991    0.0236659   6.8793e-07 -0.000191637 
         100     0.051805    0.0260911  8.36577e-07 -0.000191634 
         100     0.056859    0.0286373  1.00837e-06 -0.000191631 
         100     0.062143    0.0312995  1.20525e-06 -0.000191628 
         100     0.067666    0.0340823  1.42994e-06 -0.000191624 
         100     0.073425    0.0369841  1.68484e-06 -0.000191621 
         100     0.079413    0.0400015  1.97223e-06 -0.000191617 
         100     0.085642    0.0431406  2.29543e-06 -0.000191613 
         100       0.0921    0.0463952  2.65667e-06 -0.000191609 
         100     0.098799    0.0497715  3.05957e-06 -0.000191604 
         100     0.105727    0.0532634  3.50651e-06   -0.0001916 
         100     0.112896    0.0568769  4.00147e-06 -0.000191595 
         100       0.1203    0.0606092  4.54739e-06  -0.00019159 
         100     0.127932    0.0644565  5.14716e-06 -0.000191586 
         100     0.135806     0.068426  5.80543e-06  -0.00019158 
         100     0.143909    0.0725112  6.52483e-06 -0.000191575 
         100     0.152253     0.076718  7.31023e-06  -0.00019157 
         100     0.160825      0.08104  8.16432e-06 -0.000191564 
         100     0.169639     0.085484  9.09257e-06 -0.000191558 
         100     0.178688    0.0900467  1.00985e-05 -0.000191552 
         100     0.187965    0.0947243  1.11855e-05 -0.000191546 
         100     0.197484     0.099524  1.23597e-05  -0.00019154 
         100      0.20723     0.104438  1.36238e-05 -0.000191533 
         100      0.21722     0.109475  1.49847e-05 -0.000191526 
         100     0.227436     0.114626  1.64447e-05  -0.00019152 
         100     0.237895     0.119899  1.80111e-05 -0.000191512 
         100     0.248581     0.125286  1.96866e-05 -0.000191505 
         100      0.25951     0.130795  2.14789e-05 -0.000191498 
         100     0.270675     0.136422  2.33921e-05  -0.00019149 
         100     0.282065     0.142162  2.54298e-05 -0.000191482 
         100       0.2937     0.148024  2.76008e-05 -0.000191474 
         100      0.30556     0.153999  2.99071e-05 -0.000191465 
         100     0.317665     0.160095  3.23584e-05 -0.000191457 
         100     0.329995     0.166304  3.49562e-05 -0.000191448 
         100     0.342569     0.172633  3.77105e-05 -0.000191439 
         100     0.355379     0.179078  4.06256e-05  -0.00019143 
         100     0.368414     0.185635  4.37049e-05  -0.00019142 
         100     0.381693     0.192311  4.69591e-05  -0.00019141 
         100     0.395198     0.199097  5.03898e-05   -0.0001914 
         100     0.408948     0.206003  5.40081e-05  -0.00019139 
         100     0.422921     0.213016  5.78144e-05 -0.000191379 
         100     0.437141     0.220148  6.18215e-05 -0.000191368 
         100     0.451585     0.227388  6.60292e-05 -0.000191357 
         100     0.466275     0.234744  7.04502e-05 -0.000191345 
         100       0.4812     0.242212  7.50877e-05 -0.000191333 
         100     0.496348     0.249783  7.99438e-05 -0.000191321 
         100     0.511744      0.25747  8.50328e-05 -0.000191308 
         100     0.527361     0.265258  9.03518e-05 -0.000191295 
         100     0.543227      0.27316  9.59164e-05 -0.000191281 
         100     0.559314     0.281161  0.000101723 -0.000191267 
         100      0.57565     0.289274  0.000107786 -0.000191253 
         100      0.59222     0.297489  0.000114107 -0.000191238 
         100     0.609012     0.305799  0.000120687 -0.000191223 
         100     0.626053     0.314217  0.000127541 -0.000191207 
         100     0.643315     0.322726  0.000134662  -0.00019119 
         100     0.660826     0.331338  0.000142067 -0.000191173 
         100     0.678557     0.340038  0.000149749 -0.000191155 
         100     0.696538     0.348839  0.000157724 -0.000191137 
         100     0.714754      0.35773  0.000165989 -0.000191118 
         100      0.73319     0.366702  0.000174542 -0.000191098 
         100     0.751876     0.375768  0.000183399 -0.000191078 
         100     0.770782      0.38491  0.000192549 -0.000191057 
         100     0.789937      0.39414  0.000202008 -0.000191035 
         100     0.809313     0.403442  0.000211763 -0.000191012 
         100     0.828939     0.412826  0.000221832 -0.000190988 
         100     0.848784     0.422275  0.000232199 -0.000190963 
         100      0.86888       0.4318  0.000242881 -0.000190937 
         100     0.889212     0.441392  0.000253871 -0.000190911 
         100     0.909761     0.451038  0.000265158 -0.000190883 
         100     0.930563     0.460751  0.000276761 -0.000190854 
         100     0.951582      0.47051  0.000288657 -0.000190823 
         100     0.972854      0.48033  0.000300867 -0.000190792 
         100     0.994343     0.490188  0.000313367 -0.000190759 
         100      1.01608     0.500097  0.000326174 -0.000190725 
         100      1.03806     0.510045  0.000339277 -0.000190689 
         100      1.06025     0.520019   0.00035266 -0.000190652 
         100       1.0827      0.53003   0.00036634 -0.000190614 
         100      1.10536     0.540059  0.000380293 -0.000190574 
         100      1.12828     0.550116  0.000394533 -0.000190532 
         100      1.15142      0.56018  0.000409036 -0.000190488 
         100       1.1748     0.570261  0.000423816 -0.000190443 
         100      1.19842     0.580347  0.000438857 -0.000190396 
         100      1.22226     0.590425  0.000454141 -0.000190347 
         100      1.24635     0.600504  0.000469686 -0.000190296 
         100      1.27066     0.610563  0.000485458 -0.000190243 
         100      1.29522     0.620613  0.000501477 -0.000190188 
         100         1.32     0.630631  0.000517709 -0.000190131 
         100      1.34503     0.640626  0.000534171 -0.000190072 
         100      1.37028     0.650578  0.000550829  -0.00019001 
         100      1.39578     0.660496    0.0005677 -0.000189946 
         100      1.42152     0.670365  0.000584761  -0.00018988 
         100      1.44747     0.680171  0.000601987 -0.000189811 
         100      1.47368     0.689923  0.000619396  -0.00018974 
         100       1.5001     0.699599  0.000636946 -0.000189666 
         100      1.52677     0.709208   0.00065466  -0.00018959 
         100      1.55367     0.718728   0.00067249 -0.000189512 
         100      1.58081     0.728166  0.000690452  -0.00018943 
         100       1.6082     0.737508  0.000708516 -0.000189346 
         100      1.63579      0.74674  0.000726656 -0.000189259 
         100      1.66364     0.755871  0.000744882 -0.000189168 
         100      1.69171     0.764878  0.000763152 -0.000189076 
         100      1.72003     0.773769  0.000781476  -0.00018898 
         100      1.74857     0.782523  0.000799807 -0.000188881 
         100      1.77736     0.791149  0.000818154 -0.000188779 
         100      1.80636     0.799625   0.00083647 -0.000188675 
         100      1.83563     0.807958  0.000854763 -0.000188567 
         100      1.86512     0.816137  0.000872997 -0.000188456 
         100      1.89484     0.824148  0.000891137 -0.000188342 
         100       1.9248     0.831998   0.00090919 -0.000188225 
         100      1.95498      0.83967  0.000927105 -0.000188105 
         100      1.98542     0.847171   0.00094489 -0.000187981 
         100      2.01607     0.854485  0.000962494 -0.000187855 
         100      2.04698     0.861618  0.000979924 -0.000187725 
         100      2.07812      0.86856  0.000997143 -0.000187592 
         100      2.10947     0.875303   0.00101412 -0.000187456 
         100      2.14109     0.881854   0.00103086 -0.000187317 
         100      2.17291       0.8882   0.00104731 -0.000187174 
         100      2.20499     0.894349   0.00106349 -0.000187029 
         100      2.23728     0.900288   0.00107934  -0.00018688 
         100      2.26984     0.906026   0.00109488 -0.000186728 
         100      2.30263     0.911558   0.00111008 -0.000186572 
         100      2.33562     0.916878    0.0011249 -0.000186414 
         100      2.36888     0.921995   0.00113937 -0.000186252 
         100      2.40235     0.926901   0.00115343 -0.000186087 
         100      2.43608     0.931605   0.00116711  -0.00018592 
         100      2.47002     0.936101   0.00118037 -0.000185749 
         100      2.50421     0.940398   0.00119321 -0.000185575 
         100      2.53862     0.944491   0.00120562 -0.000185398 
         100      2.57329     0.948389   0.00121761 -0.000185218 
         100      2.60819     0.952093   0.00122915 -0.000185036 
         100       2.6433     0.955603   0.00124024 -0.000184851 
         100      2.67868     0.958929    0.0012509 -0.000184662 
         100      2.71426     0.962069    0.0012611 -0.000184471 
         100       2.7501     0.965033   0.00127086 -0.000184278 
         100      2.78615     0.967821   0.00128017 -0.000184082 
         100      2.82247     0.970443   0.00128905 -0.000183883 
         100      2.85902     0.972901   0.00129749 -0.000183681 
         100      2.89577     0.975201   0.00130549 -0.000183477 
         100      2.93279      0.97735   0.00131308 -0.000183271 
         100      2.97002     0.979352   0.00132025 -0.000183062 
         100       3.0075     0.981216   0.00132701 -0.000182851 
         100       3.0452     0.982945   0.00133338 -0.000182637 
         100      3.08316     0.984548   0.00133936 -0.000182421 
         100      3.12135     0.986029   0.00134498 -0.000182202 
         100      3.15975     0.987394   0.00135023 -0.000181982 
         100      3.19842      0.98865   0.00135514 -0.000181759 
         100      3.23728     0.989803   0.00135971 -0.000181534 
         100      3.27642      0.99086   0.00136397 -0.000181306 
         100      3.31576     0.991825   0.00136792 -0.000181076 
         100      3.35536     0.992706   0.00137158 -0.000180844 
         100      3.39517     0.993506   0.00137497 -0.000180611 
         100      3.43525     0.994232    0.0013781 -0.000180374 
         100      3.47555     0.994889   0.00138098 -0.000180136 
         100      3.51607     0.995482   0.00138363 -0.000179896 
         100      3.55685     0.996017   0.00138607 -0.000179654 
         100      3.59783     0.996496    0.0013883  -0.00017941 
         100      3.63908     0.996926   0.00139034 -0.000179165 
         100      3.68053      0.99731    0.0013922 -0.000178919 
         100      3.72225     0.997652    0.0013939 -0.000178672 
         100      3.76421     0.997956   0.00139546  -0.00017842 
         100      3.80636     0.998226   0.00139688 -0.000178163 
         100      3.84879     0.998464   0.00139817 -0.000177906 
         100      3.89142     0.998673   0.00139934 -0.000177649 
         100      3.93431     0.998858    0.0014004 -0.000177389 
         100      3.97741     0.999019   0.00140137 -0.000177129 
         100      4.02077     0.999161   0.00140226  -0.00017687 
         100      4.06434     0.999284   0.00140307 -0.000176609 
         100      4.10817      0.99939   0.00140382  -0.00017634 
         100      4.15224     0.999483    0.0014045  -0.00017607 
         100      4.19651     0.999563   0.00140512   -0.0001758 
         100      4.24106     0.999631   0.00140569 -0.000175528 
         100       4.2858      0.99969   0.00140621 -0.000175255 
         100      4.33081     0.999741   0.00140669  -0.00017498 
         100      4.37602     0.999784   0.00140714 -0.000174703 
         100       4.4215      0.99982   0.00140756 -0.000174424 
         100      4.46721     0.999851   0.00140795 -0.000174141 
         100      4.51313     0.999877   0.00140832 -0.000173857 
         100      4.55931     0.999899   0.00140867 -0.000173572 
         100       4.6057     0.999917     0.001409 -0.000173285 
         100      4.65235     0.999933   0.00140932 -0.000172996 
         100      4.69921     0.999945   0.00140963 -0.000172707 
         100      4.74633     0.999956   0.00140993 -0.000172416 
         100      4.79369     0.999965   0.00141022 -0.000172121 
         100      4.84125     0.999972    0.0014105 -0.000171824 
         100      4.88908     0.999978   0.00141077 -0.000171524 
         100      4.93711     0.999983   0.00141104 -0.000171225 
         100      4.98541     0.999986    0.0014113 -0.000170924 
         100      5.03391      0.99999   0.00141155 -0.000170623 
         100      5.08268     0.999992   0.00141181 -0.000170319 
         100      5.13165     0.999994   0.00141207 -0.000170012 
         100      5.18089     0.999996   0.00141233 -0.000169701 
         100      5.23037     0.999997   0.00141259 -0.000169387 
         100      5.28004     0.999998   0.00141283 -0.000169071 
         100      5.32999     0.999999   0.00141307 -0.000168762 
         100      5.38013     0.999999   0.00141332 -0.000168445 
         100      5.43055            1   0.00141357 -0.000168121 
         100      5.48116            1   0.00141383 -0.000167801 
         100      5.53204            1   0.00141409 -0.000167485 
         100      5.58317            1   0.00141434  -0.00016716 
         100      5.63448            1   0.00141458 -0.000166828 
         100      5.68607            1   0.00141481   -0.0001665 
         100      5.73786            1   0.00141505 -0.000166171 
         100      5.78992            1    0.0014153 -0.000165838 
         100      5.84218            1   0.00141556   -0.0001655 
         100      5.89471            1   0.00141582 -0.000165159 
         100      5.94748            1   0.00141607 -0.000164815 
         100      6.00044            1   0.00141633 -0.000164473 
         100      6.05367            1   0.00141658 -0.000164131 
         100       6.1071            1   0.00141683  -0.00016379 
         100      6.16081            1   0.00141709 -0.000163451 
         100      6.21471            1   0.00141733 -0.000163114 
         100      6.26889            1   0.00141757 -0.000162774 
         100      6.32326            1   0.00141782 -0.000162428 
         100       6.3779            1   0.00141807 -0.000162074 
         100      6.43279     0.999999   0.00141832 -0.000161711 
         100      6.48786     0.999999   0.00141858 -0.000161343 
         100      6.54321     0.999999   0.00141884  -0.00016097 
         100      6.59876     0.999999    0.0014191 -0.000160599 
         100      6.65458     0.999999   0.00141937 -0.000160232 
         100      6.71059     0.999999   0.00141965 -0.000159872 
         100      6.76689     0.999999   0.00141992 -0.000159517 
         100      6.82341     0.999999   0.00142011 -0.000159161 
         100      6.88013     0.999999   0.00142029 -0.000158803 
         100      6.93713     0.999998   0.00142063 -0.000158447 
         100      6.99432     0.999998   0.00142091 -0.000158072 
         100      7.05178     0.999998   0.00142116 -0.000157684 
         100      7.10944     0.999998    0.0014214 -0.000157291 
         100      7.16738     0.999998   0.00142162 -0.000156895 
         100      7.22551     0.999998   0.00142187 -0.000156501 
         100      7.28391     0.999998   0.00142214  -0.00015611 
         100      7.34256     0.999997   0.00142241 -0.000155723 
         100      7.40139     0.999997   0.00142269 -0.000155338 
         100       7.4605     0.999997   0.00142296 -0.000154952 
         100       7.5198     0.999997   0.00142322 -0.000154565 
         100      7.57939     0.999997   0.00142347 -0.000154173 
         100      7.63916     0.999997   0.00142372 -0.000153776 
         100      7.69921     0.999997   0.00142396 -0.000153373 
         100       7.7595     0.999997   0.00142421 -0.000152964 
         100      7.81998     0.999996   0.00142445 -0.000152551 
         100      7.88073     0.999996   0.00142471 -0.000152134 
         100      7.94168     0.999996   0.00142497 -0.000151714 
         100      8.00291     0.999996   0.00142523 -0.000151293 
         100      8.06432     0.999996    0.0014255 -0.000150874 
         100      8.12602     0.999996   0.00142577 -0.000150455 
         100      8.18796     0.999996   0.00142604  -0.00015004 
         100      8.25008     0.999995    0.0014263 -0.000149627 
         100      8.31248     0.999995   0.00142655 -0.000149215 
         100      8.37507     0.999995   0.00142679 -0.000148805 
         100      8.43794     0.999995   0.00142705 -0.000148391 
         100        8.501     0.999995   0.00142733 -0.000147974 
         100      8.56434     0.999995   0.00142756 -0.000147547 
         100      8.62787     0.999995   0.00142782 -0.000147115 
         100      8.69169     0.999994    0.0014281 -0.000146679 
         100      8.75574     0.999994   0.00142837  -0.00014624 
         100      8.81997     0.999994   0.00142861 -0.000145797 
         100      8.88449     0.999994   0.00142884 -0.000145353 
         100      8.94919     0.999994   0.00142907 -0.000144908 
         100      9.01418     0.999994    0.0014293 -0.000144463 
         100      9.07935     0.999994   0.00142956 -0.000144019 
         100      9.14481     0.999993   0.00142984 -0.000143574 
         100      9.21051     0.999993   0.00143013 -0.000143128 
         100      9.27639     0.999993   0.00143041 -0.000142681 
         100      9.34255     0.999993    0.0014307  -0.00014223 
         100       9.4089     0.999993   0.00143096 -0.000141774 
         100      9.47553     0.999993   0.00143121 -0.000141313 
         100      9.54235     0.999992   0.00143144 -0.000140847 
         100      9.60945     0.999992   0.00143167 -0.000140376 
         100      9.67674     0.999992   0.00143191 -0.000139902 
         100      9.74432     0.999992   0.00143216 -0.000139426 
         100      9.81212     0.999992   0.00143243  -0.00013895 
         100      9.88012     0.999992   0.00143272 -0.000138478 
         100       9.9484     0.999991   0.00143301 -0.000138007 
         100      10.0169     0.999991   0.00143329 -0.000137536 
         100      10.0856     0.999991   0.00143353 -0.000137062 
         100      10.1545     0.999991   0.00143376  -0.00013659 
         100      10.2238     0.999991   0.00143397 -0.000136104 
         100      10.2932      0.99999   0.00143418 -0.000135608 
         100      10.3628      0.99999    0.0014344  -0.00013511 
         100      10.4328      0.99999   0.00143466 -0.000134616 
         100      10.5029      0.99999   0.00143496 -0.000134145 
         100      10.5733      0.99999    0.0014353  -0.00013372 
         100      10.6438      0.99999   0.00143541 -0.000133187 
         100      10.7147     0.999989   0.00143563 -0.000132597 
         100      10.7858     0.999989   0.00143595 -0.000132028 
         100      10.8571     0.999989    0.0014363 -0.000131497 
         100      10.9287     0.999989   0.00143663 -0.000131006 
         100      11.0004     0.999989   0.00143691 -0.000130547 
         100      11.0725     0.999989   0.00143714 -0.000130108 
         100      11.1447     0.999988   0.00143732 -0.000129673 
         100      11.2172     0.999988   0.00143746 -0.000129232 
         100      11.2899     0.999988    0.0014376 -0.000128777 
         100      11.3628     0.999988   0.00143771 -0.000128271 
         100      11.4361     0.999988   0.00143787 -0.000127724 
         100      11.5095     0.999988    0.0014381 -0.000127147 
         100      11.5831     0.999988   0.00143843 -0.000126553 
         100       11.657     0.999987   0.00143882 -0.000125956 
         100      11.7312     0.999987   0.00143924 -0.000125372 
         100      11.8055     0.999987   0.00143962 -0.000124812 
         100      11.8801     0.999987   0.00143991  -0.00012428 
         100       11.955     0.999986   0.00144009 -0.000123778 
         100        12.03     0.999986   0.00144017 -0.000123296 
         100      12.1053     0.999986   0.00144021 -0.000122819 
         100      12.1809     0.999986    0.0014403 -0.000122331 
         100      12.2567     0.999986   0.00144057 -0.000121817 
         100      12.3326     0.999986   0.00144104 -0.000121276 
         100      12.4089     0.999986   0.00144159 -0.000120724 
         100      12.4854     0.999986   0.00144172  -0.00012022 
         100      12.5621     0.999986   0.00144124 -0.000119781 
         100      12.6391     0.999985   0.00144215 -0.000119156 
         100      12.7162     0.999985    0.0014426 -0.000118529 
         100      12.7937     0.999985   0.00144274 -0.000117901 
         100      12.8713     0.999985   0.00144272 -0.000117276 
         100      12.9492     0.999984   0.00144265 -0.000116655 
         100      13.0273     0.999984   0.00144263 -0.000116043 
         100      13.1057     0.999984   0.00144271 -0.000115443 
         100      13.1843     0.999984   0.00144291 -0.000114857 
         100      13.2631     0.999984   0.00144323 -0.000114286 
         100      13.3422     0.999983   0.00144365 -0.000113729 
         100      13.4215     0.999983   0.00144411 -0.000113184 
         100       13.501     0.999983   0.00144458 -0.000112648 
         100      13.5807     0.999983   0.00144502 -0.000112117 
         100      13.6608     0.999982   0.00144537 -0.000111585 
         100       13.741     0.999982   0.00144563 -0.000111047 
         100      13.8215     0.999982   0.00144578 -0.000110499 
         100      13.9022     0.999982   0.00144583 -0.000109937 
         100      13.9831     0.999982   0.00144581 -0.000109358 
         100      14.0643     0.999982   0.00144577  -0.00010876 
         100      14.1457     0.999981   0.00144574 -0.000108144 
         100      14.2274     0.999981   0.00144579 -0.000107511 
         100      14.3092     0.999981   0.00144594 -0.000106867 
         100      14.3914     0.999981   0.00144624 -0.000106215 
         100      14.4738      0.99998   0.00144668 -0.000105562 
         100      14.5563      0.99998   0.00144723 -0.000104914 
         100      14.6392      0.99998   0.00144784 -0.000104274 
         100      14.7222     0.999979   0.00144841 -0.000103641 
         100      14.8055     0.999979   0.00144883 -0.000103009 
         100       14.889     0.999979   0.00144895 -0.000102379 
         100      14.9728     0.999979   0.00144845 -0.000101843 
         100      15.0568     0.999979   0.00144761 -0.000101323 
         100       15.141     0.999979    0.0014471 -0.000100667 
         100      15.2255     0.999978   0.00144836 -9.95753e-05 
         100      15.3102     0.999977   0.00145135 -9.84751e-05 
         100      15.3952     0.999979   0.00144986 -9.92718e-05 
         100      15.4803     0.999979   0.00144889 -9.90971e-05 
         100      15.5657     0.999979   0.00144846 -9.85234e-05 
         100      15.6514     0.999978   0.00144864 -9.78052e-05 
         100      15.7372     0.999977   0.00144915 -9.70114e-05 
         100      15.8234     0.999976   0.00144978 -9.61908e-05 
         100      15.9097     0.999976    0.0014504 -9.53786e-05 
         100      15.9963     0.999975   0.00145093 -9.45948e-05 
         100      16.0831     0.999975   0.00145134 -9.38517e-05 
         100      16.1702     0.999975   0.00145161 -9.31513e-05 
         100      16.2574     0.999975   0.00145177 -9.24918e-05 
         100       16.345     0.999975   0.00145182 -9.18655e-05 
         100      16.4328     0.999975   0.00145181 -9.12636e-05 
         100      16.5207     0.999975   0.00145177 -9.06762e-05 
         100       16.609     0.999975   0.00145173 -9.00917e-05 
         100      16.6974     0.999975   0.00145171 -8.95017e-05 
         100      16.7861     0.999975   0.00145174 -8.88969e-05 
         100       16.875     0.999975   0.00145182 -8.82722e-05 
         100      16.9642     0.999975   0.00145197 -8.76228e-05 
         100      17.0537     0.999974   0.00145218 -8.69476e-05 
         100      17.1433     0.999974   0.00145243  -8.6248e-05 
         100      17.2332     0.999974   0.00145272 -8.55258e-05 
         100      17.3232     0.999973   0.00145304 -8.47867e-05 
         100      17.4136     0.999973   0.00145335 -8.40357e-05 
         100      17.5041     0.999972   0.00145365 -8.32807e-05 
         100       17.595     0.999972   0.00145391 -8.25278e-05 
         100      17.6861     0.999971   0.00145413 -8.17845e-05 
         100      17.7773     0.999971   0.00145429 -8.10573e-05 
         100      17.8689     0.999971   0.00145439 -8.03496e-05 
         100      17.9606      0.99997   0.00145444 -7.96652e-05 
         100      18.0526      0.99997   0.00145444 -7.90032e-05 
         100      18.1448      0.99997   0.00145441 -7.83623e-05 
         100      18.2373      0.99997   0.00145436 -7.77365e-05 
         100      18.3299      0.99997   0.00145432 -7.71191e-05 
         100      18.4229      0.99997   0.00145431 -7.64994e-05 
         100      18.5161      0.99997   0.00145436 -7.58665e-05 
         100      18.6094      0.99997   0.00145447 -7.52091e-05 
         100      18.7031     0.999969   0.00145467 -7.45156e-05 
         100      18.7969     0.999969   0.00145496 -7.37792e-05 
         100       18.891     0.999969   0.00145532 -7.29964e-05 
         100      18.9853     0.999968   0.00145572 -7.21746e-05 
         100      19.0799     0.999968   0.00145613 -7.13307e-05 
         100      19.1748     0.999967   0.00145647 -7.05003e-05 
         100      19.2698     0.999967   0.00145664 -6.97407e-05 
         100      19.3651     0.999966   0.00145653 -6.91352e-05 
         100      19.4606     0.999966     0.001456 -6.88043e-05 
         100      19.5563     0.999966   0.00145488   -6.891e-05 
         100      19.6523     0.999966   0.00145552 -6.75909e-05 
         100      19.7485     0.999965   0.00145662 -6.59959e-05 
         100      19.8449     0.999965   0.00145687 -6.49832e-05 
         100      19.9417     0.999966   0.00145605  -6.4381e-05 
         100      20.0386     0.999966   0.00145728 -6.41307e-05 
         100      20.1357     0.999967   0.00145754 -6.37543e-05 
         100      20.2331     0.999967   0.00145731 -6.32903e-05 
         100      20.3307     0.999967   0.00145684 -6.27619e-05 
         100      20.4286     0.999967   0.00145619 -6.21731e-05 
         100      20.5267     0.999966   0.00145578 -6.12402e-05 
         100       20.625     0.999964   0.00145606 -6.01558e-05 
         100      20.7236     0.999963   0.00145662 -5.91876e-05 
         100      20.8224     0.999962   0.00145733 -5.83111e-05 
         100      20.9215     0.999961   0.00145805 -5.75032e-05 
         100      21.0207      0.99996    0.0014587 -5.67471e-05 
         100      21.1202      0.99996   0.00145919 -5.60265e-05 
         100      21.2199     0.999959   0.00145948 -5.53302e-05 
         100      21.3199     0.999959   0.00145955 -5.46469e-05 
         100      21.4202     0.999959   0.00145942 -5.39694e-05 
         100      21.5206     0.999959   0.00145912 -5.32921e-05 
         100      21.6213     0.999959    0.0014587 -5.26092e-05 
         100      21.7222     0.999959   0.00145821 -5.19188e-05 
         100      21.8234      0.99996   0.00145773 -5.12176e-05 
         100      21.9247      0.99996    0.0014573 -5.05058e-05 
         100      22.0264      0.99996   0.00145698 -4.97818e-05 
         100      22.1282      0.99996   0.00145681 -4.90472e-05 
         100      22.2303      0.99996   0.00145681 -4.83017e-05 
         100      22.3327     0.999959   0.00145699 -4.75471e-05 
         100      22.4352     0.999959   0.00145732 -4.67855e-05 
         100       22.538     0.999958   0.00145779 -4.60176e-05 
         100       22.641     0.999958   0.00145834 -4.52465e-05 
         100      22.7443     0.999957   0.00145891 -4.44727e-05 
         100      22.8477     0.999956   0.00145944 -4.36995e-05 
         100      22.9515     0.999956   0.00145989 -4.29274e-05 
         100      23.0555     0.999956   0.00146019 -4.21588e-05 
         100      23.1597     0.999955   0.00146031 -4.13957e-05 
         100      23.2642     0.999955   0.00146024 -4.06383e-05 
         100      23.3688     0.999955   0.00146001 -3.98886e-05 
         100      23.4737     0.999955   0.00145965  -3.9146e-05 
         100      23.5788     0.999956   0.00145924 -3.84118e-05 
         100      23.6843     0.999956   0.00145888 -3.76843e-05 
         100      23.7899     0.999956   0.00145867  -3.6963e-05 
         100      23.8957     0.999956   0.00145871 -3.62465e-05 
         100      24.0018     0.999956   0.00145904 -3.55307e-05 