Variables = x, y, u, v, p

Zone, I=416, F=POINT
         -50            0            0            0     -5.63703 
         -50     0.013333 -2.46614e-05 -6.49677e-09     -5.63703 
         -50     0.053333 -1.37344e-05 -4.89079e-08     -5.63703 
         -50         0.12 -2.23777e-06 -1.44017e-07     -5.63703 
         -50     0.213332  8.39166e-06 -2.38586e-07     -5.63703 
         -50     0.333332  1.66454e-05 -4.66928e-07     -5.63702 
         -50         0.48  2.22029e-05 -7.30881e-07     -5.63701 
         -50     0.653331  2.48436e-05  3.00701e-07     -5.63699 
         -50     0.853332   2.2105e-05  9.87246e-07     -5.63696 
         -50         1.08  1.22548e-05  6.49146e-07     -5.63692 
         -50      1.33333 -1.93235e-06  8.40081e-07     -5.63686 
         -50      1.61333 -1.59821e-05  6.87367e-07     -5.63679 
         -50         1.92 -3.08818e-05  1.49328e-07     -5.63669 
         -50      2.25333 -4.49603e-05 -5.30414e-07     -5.63657 
         -50      2.61333 -5.23154e-05 -1.64342e-07     -5.63641 
         -50            3 -5.13948e-05  6.88564e-07     -5.63622 
         -25            0 -1.69551e-20  5.91823e-25     -5.42109 
         -25     0.013333 -2.06062e-05 -9.89886e-10     -5.42109 
         -25     0.053333 -1.98871e-05  5.18719e-09     -5.42109 
         -25         0.12  -2.1675e-05  3.19729e-08     -5.42109 
         -25     0.213332 -2.30387e-05  6.57653e-08     -5.42109 
         -25     0.333332 -2.21873e-05  5.41453e-08     -5.42109 
         -25         0.48 -2.00806e-05 -4.29487e-08     -5.42108 
         -25     0.653331 -1.86853e-05   -3.192e-07     -5.42108 
         -25     0.853332 -1.90446e-05 -5.37723e-07     -5.42106 
         -25         1.08 -2.04564e-05 -8.63185e-07     -5.42105 
         -25      1.33333 -2.09095e-05 -1.24202e-06     -5.42103 
         -25      1.61333 -1.94191e-05 -1.45596e-06       -5.421 
         -25         1.92 -1.81422e-05 -1.82294e-06     -5.42096 
         -25      2.25333 -1.97116e-05 -1.55054e-06     -5.42092 
         -25      2.61333 -2.35046e-05 -1.71114e-06     -5.42086 
         -25            3 -2.79454e-05 -4.55382e-06     -5.42078 
           0            0            0            0     -5.24504 
           0     0.013333  -7.2284e-05   2.9477e-05     -5.24488 
           0     0.053333 -5.47891e-05  1.76506e-05     -5.24514 
           0         0.12 -6.82456e-05   1.1155e-05     -5.24544 
           0     0.213332 -8.21407e-05  9.38344e-06     -5.24576 
           0     0.333332 -8.87145e-05  7.86465e-06     -5.24609 
           0         0.48 -9.04999e-05  6.84308e-06     -5.24641 
           0     0.653331 -8.93964e-05  6.00277e-06     -5.24674 
           0     0.853332 -8.41134e-05  5.38261e-06     -5.24705 
           0         1.08 -7.47783e-05  4.95959e-06     -5.24735 
           0      1.33333 -6.36523e-05  4.62016e-06     -5.24764 
           0      1.61333 -5.12742e-05  4.35022e-06     -5.24792 
           0         1.92 -3.78529e-05  4.05614e-06     -5.24818 
           0      2.25333 -2.63066e-05  3.65616e-06     -5.24842 
           0      2.61333  -1.8405e-05  3.69078e-06     -5.24865 
           0            3 -1.29287e-05  5.46359e-06     -5.24886 
          20            0  -0.00011274   2.8229e-05     -5.13539 
          20     0.013333 -0.000115315  2.85139e-05     -5.13539 
          20     0.053333 -0.000122949  2.93745e-05     -5.13539 
          20         0.12 -0.000135013   3.0833e-05     -5.13539 
          20     0.213332 -0.000149393  3.29081e-05     -5.13539 
          20     0.333332 -0.000161715  3.56042e-05     -5.13538 
          20         0.48 -0.000166134  3.88262e-05     -5.13538 
          20     0.653331 -0.000158816   4.2533e-05     -5.13538 
          20     0.853332 -0.000141766   4.6329e-05     -5.13537 
          20         1.08 -0.000119996  4.97716e-05     -5.13536 
          20      1.33333 -9.60542e-05  5.23288e-05     -5.13536 
          20      1.61333 -7.22803e-05  5.34643e-05     -5.13534 
          20         1.92  -5.1121e-05  5.29668e-05     -5.13533 
          20      2.25333 -3.52842e-05  5.05875e-05     -5.13532 
          20      2.61333 -2.83889e-05  4.66443e-05      -5.1353 
          20            3 -2.47663e-05  4.36689e-05     -5.13527 
          40            0  -0.00119221  0.000460347     -5.02717 
          40     0.013333  -0.00123864  0.000472396     -5.02717 
          40     0.053333  -0.00136096  0.000509645     -5.02717 
          40         0.12  -0.00151085  0.000574928     -5.02717 
          40     0.213332  -0.00162462   0.00067107     -5.02717 
          40     0.333332  -0.00166144  0.000797577     -5.02717 
          40         0.48  -0.00163537  0.000947244     -5.02718 
          40     0.653331  -0.00158857   0.00110613      -5.0272 
          40     0.853332   -0.0015346   0.00125689     -5.02723 
          40         1.08  -0.00145166   0.00138222     -5.02728 
          40      1.33333  -0.00132568   0.00146728     -5.02734 
          40      1.61333  -0.00115856    0.0015013     -5.02741 
          40         1.92 -0.000967804   0.00148186     -5.02749 
          40      2.25333 -0.000779422   0.00141644     -5.02757 
          40      2.61333 -0.000609333   0.00132052     -5.02765 
          40            3 -0.000466011   0.00120943     -5.02772 
          60            0  -0.00167217   0.00346117     -4.91924 
          60     0.013333  -0.00197861    0.0035436     -4.91924 
          60     0.053333  -0.00279751   0.00379912     -4.91924 
          60         0.12  -0.00383856   0.00424973     -4.91924 
          60     0.213332  -0.00470769   0.00492002     -4.91925 
          60     0.333332  -0.00514716   0.00581306     -4.91928 
          60         0.48  -0.00528915    0.0068819     -4.91935 
          60     0.653331   -0.0055224   0.00802463     -4.91947 
          60     0.853332  -0.00601443   0.00911276     -4.91968 
          60         1.08  -0.00658894    0.0100205     -4.91999 
          60      1.33333  -0.00700641     0.010639     -4.92039 
          60      1.61333  -0.00711407    0.0108939     -4.92089 
          60         1.92  -0.00685453    0.0107678     -4.92146 
          60      2.25333  -0.00627027    0.0103115     -4.92206 
          60      2.61333   -0.0054856   0.00962408     -4.92265 
          60            3   -0.0046426   0.00881322     -4.92321 
          80            0            0            0     -4.81244 
          80     0.013333   0.00402973 -3.39556e-06     -4.81244 
          80     0.053333    0.0144708 -3.80596e-05     -4.81244 
          80         0.12     0.026245 -8.96085e-05     -4.81244 
          80     0.213332    0.0340014   8.2156e-06     -4.81243 
          80     0.333332    0.0374907   0.00050866     -4.81241 
          80         0.48    0.0403673     0.001521     -4.81239 
          80     0.653331    0.0423166   0.00277422     -4.81239 
          80     0.853332    0.0407424   0.00395636     -4.81243 
          80         1.08    0.0368155   0.00520442     -4.81254 
          80      1.33333    0.0290147   0.00638099     -4.81277 
          80      1.61333    0.0182541   0.00723655     -4.81315 
          80         1.92   0.00730408   0.00769526      -4.8137 
          80      2.25333  -0.00187027   0.00772916     -4.81441 
          80      2.61333  -0.00805001   0.00742912     -4.81522 
          80            3   -0.0110109   0.00689319     -4.81608 
         100            0            0            0     -4.71712 
         100     0.013333   0.00246545 -9.96233e-07     -4.71712 
         100     0.053333   0.00874996 -6.22182e-06     -4.71712 
         100         0.12    0.0154305  2.37009e-05     -4.71712 
         100     0.213332    0.0188724   0.00020042     -4.71711 
         100     0.333332    0.0186736  0.000621233      -4.7171 
         100         0.48    0.0178394   0.00128768     -4.71708 
         100     0.653331    0.0191936    0.0020912     -4.71706 
         100     0.853332    0.0209133   0.00271586     -4.71706 
         100         1.08    0.0182513   0.00278575      -4.7171 
         100      1.33333    0.0127373   0.00235472      -4.7172 
         100      1.61333   0.00751261   0.00179349      -4.7174 
         100         1.92   0.00257511    0.0012533     -4.71772 
         100      2.25333  -0.00168221  0.000754477     -4.71814 
         100      2.61333    -0.004702  0.000348949     -4.71864 
         100            3  -0.00620101   2.7521e-05     -4.71918 
         150            0            0            0     -4.48225 
         150     0.013333 -0.000440158   6.0704e-07     -4.48225 
         150     0.053333  -0.00171928  8.64717e-06     -4.48225 
         150         0.12  -0.00368966  3.63398e-05     -4.48225 
         150     0.213332  -0.00584288  8.90125e-05     -4.48225 
         150     0.333332  -0.00753694  0.000156278     -4.48225 
         150         0.48  -0.00845086  0.000215054     -4.48225 
         150     0.653331  -0.00868792  0.000245779     -4.48225 
         150     0.853332  -0.00836556  0.000250931     -4.48225 
         150         1.08  -0.00761841  0.000242812     -4.48225 
         150      1.33333  -0.00690984  0.000222926     -4.48223 
         150      1.61333  -0.00576879  0.000208799      -4.4822 
         150         1.92  -0.00359386   0.00023027     -4.48214 
         150      2.25333  -0.00133754  0.000265687     -4.48206 
         150      2.61333   0.00041115  0.000288584     -4.48195 
         150            3   0.00157425   0.00029541     -4.48182 
         200            0           -0           -0     -4.24519 
         200     0.013333  0.000115332  5.00602e-06     -4.24519 
         200     0.053333  -0.00079724  7.32677e-05     -4.24519 
         200         0.12  -0.00465791  0.000317469     -4.24519 
         200     0.213332    -0.010874  0.000804725     -4.24519 
         200     0.333332   -0.0167052   0.00149922     -4.24519 
         200         0.48   -0.0201802    0.0023187      -4.2452 
         200     0.653331   -0.0210187   0.00322207     -4.24521 
         200     0.853332   -0.0193964   0.00421846     -4.24521 
         200         1.08     -0.01592    0.0052793      -4.2452 
         200      1.33333   -0.0120963   0.00629507     -4.24515 
         200      1.61333  -0.00862241   0.00714202     -4.24504 
         200         1.92   -0.0050807   0.00774673     -4.24487 
         200      2.25333  -0.00157327   0.00805942     -4.24462 
         200      2.61333   0.00145563   0.00805126      -4.2443 
         200            3   0.00357302   0.00775079     -4.24394 
         250            0            0            0     -3.99856 
         250     0.013333  0.000342325 -4.03574e-07     -3.99856 
         250     0.053333   0.00139856 -5.64112e-06     -3.99856 
         250         0.12    0.0030029 -2.27362e-05     -3.99856 
         250     0.213332   0.00475829 -5.21673e-05     -3.99856 
         250     0.333332   0.00621443 -8.48081e-05     -3.99856 
         250         0.48    0.0071737 -0.000108743     -3.99856 
         250     0.653331   0.00768601 -0.000119019     -3.99855 
         250     0.853332   0.00776047 -0.000122444     -3.99855 
         250         1.08   0.00730475 -0.000128678     -3.99856 
         250      1.33333   0.00635664 -0.000140276     -3.99857 
         250      1.61333   0.00505654 -0.000155007     -3.99859 
         250         1.92   0.00360014 -0.000169004     -3.99862 
         250      2.25333   0.00209666 -0.000180731     -3.99867 
         250      2.61333  0.000666815 -0.000188715     -3.99874 
         250            3 -0.000519501  -0.00019353     -3.99882 
         300            0            0            0     -3.76754 
         300     0.013333  -0.00119265  3.47271e-06     -3.76753 
         300     0.053333  -0.00509929  4.91638e-05     -3.76753 
         300         0.12   -0.0116356  0.000201778     -3.76753 
         300     0.213332    -0.018786  0.000474269     -3.76753 
         300     0.333332   -0.0238824    0.0008021     -3.76754 
         300         0.48   -0.0259927   0.00110855     -3.76755 
         300     0.653331    -0.025872    0.0013769     -3.76756 
         300     0.853332   -0.0241357   0.00165049     -3.76757 
         300         1.08   -0.0209376    0.0019623     -3.76755 
         300      1.33333   -0.0170159   0.00228431     -3.76751 
         300      1.61333   -0.0130416    0.0025606     -3.76741 
         300         1.92   -0.0088212   0.00276439     -3.76724 
         300      2.25333  -0.00444554   0.00288334     -3.76698 
         300      2.61333 -0.000355618   0.00290003     -3.76665 
         300            3   0.00292709   0.00281598     -3.76624 
         350            0 -2.17382e-19  4.16272e-26     -3.52283 
         350     0.013333 -0.000627998  1.77944e-06     -3.52283 
         350     0.053333  -0.00258967   2.4625e-05     -3.52283 
         350         0.12  -0.00563828  9.70537e-05     -3.52283 
         350     0.213332  -0.00852935   0.00021462     -3.52283 
         350     0.333332  -0.00997105  0.000334354     -3.52284 
         350         0.48  -0.00987165  0.000419686     -3.52284 
         350     0.653331  -0.00896116  0.000477334     -3.52285 
         350     0.853332  -0.00760172  0.000546974     -3.52286 
         350         1.08  -0.00574851  0.000657024     -3.52285 
         350      1.33333  -0.00385746  0.000787362     -3.52283 
         350      1.61333  -0.00247437   0.00089183     -3.52278 
         350         1.92  -0.00127362  0.000955873      -3.5227 
         350      2.25333 -0.000103561  0.000982852     -3.52258 
         350      2.61333  0.000949521  0.000969683     -3.52241 
         350            3   0.00175049  0.000917709     -3.52221 
         400            0           -0           -0      -3.2855 
         400     0.013333 -0.000439192  4.37585e-06      -3.2855 
         400     0.053333  -0.00273147  6.41298e-05      -3.2855 
         400         0.12  -0.00821762  0.000278096      -3.2855 
         400     0.213332   -0.0157957  0.000702557      -3.2855 
         400     0.333332   -0.0223028   0.00129289      -3.2855 
         400         0.48    -0.025572   0.00195301     -3.28551 
         400     0.653331    -0.025705   0.00262995     -3.28552 
         400     0.853332   -0.0235614   0.00333735     -3.28553 
         400         1.08   -0.0198706   0.00408809     -3.28552 
         400      1.33333    -0.015843   0.00482833     -3.28549 
         400      1.61333   -0.0123344   0.00547362     -3.28542 
         400         1.92  -0.00884407   0.00597904     -3.28528 
         400      2.25333  -0.00514674   0.00631237     -3.28507 
         400      2.61333  -0.00148675   0.00644233     -3.28479 
         400            3   0.00170046   0.00635608     -3.28443 
         450            0            0            0     -3.03154 
         450     0.013333   0.00310933  1.04223e-06     -3.03154 
         450     0.053333     0.010728  2.05778e-05     -3.03153 
         450         0.12    0.0184766  0.000124508     -3.03153 
         450     0.213332    0.0222508  0.000427108     -3.03153 
         450     0.333332    0.0213388   0.00102178     -3.03152 
         450         0.48    0.0183204   0.00191291     -3.03151 
         450     0.653331    0.0160539   0.00303096      -3.0315 
         450     0.853332    0.0154297   0.00428128     -3.03149 
         450         1.08    0.0151997   0.00555009     -3.03149 
         450      1.33333    0.0135918   0.00671656     -3.03152 
         450      1.61333    0.0106572   0.00771687     -3.03158 
         450         1.92   0.00759651    0.0085379     -3.03169 
         450      2.25333   0.00453386   0.00913055     -3.03186 
         450      2.61333   0.00151457   0.00944283     -3.03209 
         450            3  -0.00119415   0.00944393     -3.03239 
         500            0 -4.60689e-19 -2.74066e-27     -2.79254 
         500     0.013333  -0.00116313 -3.45207e-06     -2.79254 
         500     0.053333  -0.00310075 -5.27019e-05     -2.79254 
         500         0.12  -0.00284995 -0.000243738     -2.79255 
         500     0.213332  0.000921546 -0.000668974     -2.79255 
         500     0.333332   0.00660252   -0.0013521     -2.79255 
         500         0.48     0.011486  -0.00224268     -2.79255 
         500     0.653331    0.0140561  -0.00327365     -2.79254 
         500     0.853332      0.01418  -0.00440928     -2.79254 
         500         1.08    0.0123445  -0.00563047     -2.79254 
         500      1.33333   0.00970165  -0.00687915     -2.79254 
         500      1.61333   0.00753965  -0.00805176     -2.79256 
         500         1.92   0.00579861  -0.00906341      -2.7926 
         500      2.25333   0.00398848  -0.00985356     -2.79267 
         500      2.61333   0.00207359   -0.0103613     -2.79278 
         500            3  0.000294283   -0.0105418     -2.79291 
         550            0           -0           -0     -2.55515 
         550     0.013333   0.00191025  3.45026e-06     -2.55515 
         550     0.053333   0.00581136  5.39733e-05     -2.55515 
         550         0.12   0.00770911  0.000258139     -2.55515 
         550     0.213332   0.00513261  0.000734567     -2.55514 
         550     0.333332 -0.000723198   0.00153532     -2.55514 
         550         0.48  -0.00656501   0.00261827     -2.55514 
         550     0.653331  -0.00999362    0.0039008     -2.55514 
         550     0.853332   -0.0105247   0.00531861     -2.55514 
         550         1.08  -0.00899988    0.0068189     -2.55514 
         550      1.33333  -0.00696915   0.00832176     -2.55514 
         550      1.61333  -0.00552742   0.00973088     -2.55514 
         550         1.92  -0.00445834    0.0109702     -2.55513 
         550      2.25333  -0.00332874    0.0119672      -2.5551 
         550      2.61333  -0.00208134    0.0126466     -2.55506 
         550            3 -0.000875511    0.0129484     -2.55501 
         600            0           -0           -0     -2.31209 
         600     0.013333  -0.00159673 -2.02378e-06     -2.31209 
         600     0.053333  -0.00516158 -3.13425e-05     -2.31209 
         600         0.12  -0.00815375 -0.000147953     -2.31209 
         600     0.213332  -0.00878313 -0.000416262     -2.31209 
         600     0.333332  -0.00726142 -0.000866017     -2.31209 
         600         0.48  -0.00503833   -0.0014851     -2.31209 
         600     0.653331  -0.00341274  -0.00224916     -2.31209 
         600     0.853332  -0.00308074  -0.00314606     -2.31209 
         600         1.08  -0.00409832   -0.0041599     -2.31209 
         600      1.33333  -0.00544372  -0.00522776     -2.31208 
         600      1.61333  -0.00571531  -0.00624569     -2.31208 
         600         1.92  -0.00499874  -0.00714168     -2.31208 
         600      2.25333  -0.00400352  -0.00787806     -2.31208 
         600      2.61333  -0.00296181  -0.00840865     -2.31208 
         600            3    -0.001848  -0.00869024     -2.31208 
         650            0           -0           -0     -2.06576 
         650     0.013333  -0.00113301 -1.75038e-06     -2.06576 
         650     0.053333  -0.00338062 -2.82494e-05     -2.06576 
         650         0.12  -0.00427242 -0.000140848     -2.06576 
         650     0.213332  -0.00204755 -0.000418174     -2.06576 
         650     0.333332   0.00267187 -0.000905725     -2.06576 
         650         0.48   0.00752424  -0.00158185     -2.06577 
         650     0.653331    0.0105727  -0.00238057     -2.06577 
         650     0.853332    0.0114631  -0.00323739     -2.06577 
         650         1.08    0.0109928  -0.00410374     -2.06577 
         650      1.33333     0.010156  -0.00493838     -2.06577 
         650      1.61333   0.00927341  -0.00571439     -2.06577 
         650         1.92   0.00809587  -0.00641463     -2.06577 
         650      2.25333   0.00661195  -0.00700262     -2.06577 
         650      2.61333   0.00491975   -0.0074346     -2.06578 
         650            3   0.00313988   -0.0076711     -2.06579 
         700            0           -0           -0     -1.81564 
         700     0.013333   0.00428473    1.385e-06     -1.81564 
         700     0.053333    0.0149451  2.59479e-05     -1.81564 
         700         0.12    0.0262986  0.000151952     -1.81564 
         700     0.213332    0.0325888  0.000517945     -1.81563 
         700     0.333332    0.0319766   0.00125328     -1.81562 
         700         0.48    0.0272593   0.00239135     -1.81561 
         700     0.653331    0.0226001   0.00386391      -1.8156 
         700     0.853332    0.0202196   0.00556174     -1.81559 
         700         1.08    0.0196037   0.00736686     -1.81559 
         700      1.33333    0.0186657   0.00915207      -1.8156 
         700      1.61333    0.0161416    0.0108117     -1.81565 
         700         1.92     0.012788    0.0122972     -1.81574 
         700      2.25333   0.00926468    0.0135578     -1.81588 
         700      2.61333   0.00568263     0.014515      -1.8161 
         700            3   0.00208547    0.0150895     -1.81639 
         750            0            0            0     -1.59139 
         750     0.013333  -0.00412596  1.33249e-06     -1.59139 
         750     0.053333   -0.0151506  1.47324e-05     -1.59139 
         750         0.12   -0.0290672  3.13412e-05     -1.59139 
         750     0.213332   -0.0403892 -2.83814e-05     -1.59139 
         750     0.333332   -0.0455947 -0.000288555      -1.5914 
         750         0.48   -0.0454143 -0.000826626     -1.59141 
         750     0.653331    -0.043149  -0.00162258     -1.59143 
         750     0.853332   -0.0412224    -0.002585     -1.59145 
         750         1.08   -0.0394354  -0.00358756     -1.59146 
         750      1.33333   -0.0360273  -0.00450702     -1.59144 
         750      1.61333   -0.0305156  -0.00528325     -1.59138 
         750         1.92    -0.024436  -0.00594055     -1.59125 
         750      2.25333   -0.0182725   -0.0064888     -1.59103 
         750      2.61333   -0.0119225  -0.00689646      -1.5907 
         750            3  -0.00546495  -0.00712423     -1.59025 
         800            0            0            0     -1.32306 
         800     0.013333   0.00234824 -2.21597e-06     -1.32306 
         800     0.053333   0.00911525 -2.99021e-05     -1.32306 
         800         0.12    0.0186784 -0.000112664     -1.32306 
         800     0.213332    0.0278074 -0.000230001     -1.32306 
         800     0.333332    0.0334824 -0.000305614     -1.32305 
         800         0.48    0.0351578 -0.000268209     -1.32304 
         800     0.653331    0.0345321  -0.00010749     -1.32303 
         800     0.853332    0.0332815  0.000124921     -1.32301 
         800         1.08     0.031439  0.000342343       -1.323 
         800      1.33333     0.028016   0.00046655     -1.32301 
         800      1.61333     0.023141     0.000486     -1.32306 
         800         1.92    0.0183403  0.000462209     -1.32315 
         800      2.25333     0.013733  0.000432937     -1.32332 
         800      2.61333    0.0090204  0.000399914     -1.32357 
         800            3   0.00420081  0.000355947     -1.32392 
         850            0 -3.19854e-19 -2.35668e-26     -1.09388 
         850     0.013333 -0.000945816  2.40099e-06     -1.09388 
         850     0.053333  -0.00409585  3.46044e-05     -1.09388 
         850         0.12   -0.0096359  0.000146601     -1.09388 
         850     0.213332   -0.0162464   0.00036025     -1.09388 
         850     0.333332   -0.0215881  0.000641174     -1.09388 
         850         0.48   -0.0242245  0.000928204     -1.09389 
         850     0.653331   -0.0244877   0.00118702      -1.0939 
         850     0.853332   -0.0233915   0.00143179     -1.09391 
         850         1.08   -0.0213348    0.0017058     -1.09391 
         850      1.33333   -0.0182645   0.00203869     -1.09391 
         850      1.61333   -0.0147141   0.00241053     -1.09388 
         850         1.92    -0.011623    0.0027641     -1.09382 
         850      2.25333  -0.00877364    0.0030643     -1.09372 
         850      2.61333   -0.0058325   0.00329762     -1.09356 
         850            3  -0.00279402   0.00345414     -1.09333 
         900            0           -0           -0    -0.836514 
         900     0.013333 -0.000993174 -3.15906e-06    -0.836515 
         900     0.053333  -0.00247988 -4.86692e-05    -0.836516 
         900         0.12   -0.0015174 -0.000228327    -0.836518 
         900     0.213332    0.0033618 -0.000637155     -0.83652 
         900     0.333332    0.0104923  -0.00130659    -0.836521 
         900         0.48    0.0166312  -0.00218501    -0.836521 
         900     0.653331     0.019709  -0.00318927    -0.836519 
         900     0.853332     0.019645  -0.00426499    -0.836516 
         900         1.08    0.0173982  -0.00538974    -0.836514 
         900      1.33333    0.0143208  -0.00652928    -0.836516 
         900      1.61333    0.0117031  -0.00762073    -0.836527 
         900         1.92   0.00984452  -0.00860861    -0.836553 
         900      2.25333   0.00803477  -0.00945942    -0.836601 
         900      2.61333   0.00595888    -0.010135    -0.836677 
         900            3   0.00373621   -0.0105892    -0.836784 
         950            0            0            0    -0.582396 
         950     0.013333   0.00483204  -1.4417e-07    -0.582396 
         950     0.053333    0.0174709  3.03671e-06    -0.582395 
         950         0.12    0.0325952  4.96141e-05    -0.582394 
         950     0.213332    0.0436894  0.000251507    -0.582389 
         950     0.333332    0.0470659  0.000752624     -0.58238 
         950         0.48    0.0441267   0.00163246    -0.582366 
         950     0.653331    0.0392069   0.00285838    -0.582349 
         950     0.853332    0.0356115   0.00432366    -0.582331 
         950         1.08    0.0336418   0.00589666    -0.582321 
         950      1.33333    0.0313816   0.00744571    -0.582328 
         950      1.61333    0.0273754   0.00887641    -0.582367 
         950         1.92    0.0223962     0.010175    -0.582459 
         950      2.25333    0.0173564    0.0113335    -0.582621 
         950      2.61333    0.0122905    0.0123055    -0.582873 
         950            3   0.00700545     0.013024    -0.583227 
        1000            0  1.03256e-19  4.60412e-25    -0.361777 
        1000     0.013333  0.000120032  5.69548e-06    -0.361776 
        1000     0.053333  -0.00145368  8.54224e-05    -0.361774 
        1000         0.12  -0.00829077  0.000386146    -0.361771 
        1000     0.213332     -0.02097   0.00103509    -0.361769 
        1000     0.333332   -0.0355625   0.00204403    -0.361771 
        1000         0.48   -0.0469353   0.00331031    -0.361778 
        1000     0.653331   -0.0527119   0.00471214    -0.361789 
        1000     0.853332   -0.0534859   0.00619638    -0.361804 
        1000         1.08   -0.0504521   0.00778394    -0.361816 
        1000      1.33333   -0.0444962   0.00949379    -0.361815 
        1000      1.61333    -0.037299    0.0112626    -0.361786 
        1000         1.92   -0.0309814    0.0129531    -0.361709 
        1000      2.25333   -0.0251553    0.0144674    -0.361566 
        1000      2.61333   -0.0190342    0.0157359    -0.361336 
        1000            3   -0.0124212    0.0166911    -0.361004 
