Variables = x, y, u, v, p

Zone, I=416, F=POINT
         -50            0            0            0      3.61923 
         -50     0.013333  2.87049e-05  1.09561e-08      3.61923 
         -50     0.053333  2.61383e-05  1.38036e-07      3.61923 
         -50         0.12  1.91729e-05  5.75031e-07      3.61923 
         -50     0.213332  9.62841e-06  1.47438e-06      3.61923 
         -50     0.333332  7.16019e-07  3.02571e-06      3.61923 
         -50         0.48 -4.01173e-06  4.97698e-06      3.61923 
         -50     0.653331 -3.08229e-06  6.79702e-06      3.61922 
         -50     0.853332  2.30021e-06  8.98142e-06       3.6192 
         -50         1.08  8.25627e-06   1.1645e-05      3.61918 
         -50      1.33333  1.27631e-05   1.3387e-05      3.61916 
         -50      1.61333   1.4485e-05  1.46997e-05      3.61912 
         -50         1.92   1.6454e-05  1.54862e-05      3.61907 
         -50      2.25333   1.2169e-05  1.43496e-05        3.619 
         -50      2.61333  9.10316e-06  1.50065e-05      3.61891 
         -50            3  1.58875e-05  2.06112e-05      3.61881 
         -25            0  2.71443e-20  1.16038e-24      3.48044 
         -25     0.013333  1.84069e-05 -1.46141e-10      3.48044 
         -25     0.053333  1.18373e-05  -3.0108e-08      3.48044 
         -25         0.12  6.28364e-06 -1.83429e-07      3.48044 
         -25     0.213332  5.01687e-06 -5.81083e-07      3.48044 
         -25     0.333332  6.20156e-06 -1.28311e-06      3.48044 
         -25         0.48  6.86772e-06 -2.21922e-06      3.48044 
         -25     0.653331  5.63961e-06 -3.28086e-06      3.48044 
         -25     0.853332  3.78792e-06 -4.47825e-06      3.48043 
         -25         1.08  2.94467e-06 -5.53766e-06      3.48042 
         -25      1.33333  2.79362e-06 -6.28978e-06      3.48041 
         -25      1.61333  3.75857e-06 -6.69954e-06       3.4804 
         -25         1.92  7.97902e-06 -6.51127e-06      3.48038 
         -25      2.25333  1.25464e-05 -5.92839e-06      3.48035 
         -25      2.61333  1.60586e-05 -4.57341e-06      3.48032 
         -25            3  1.82114e-05 -2.68945e-06      3.48028 
           0            0            0            0      3.36396 
           0     0.013333  4.70122e-05 -3.08294e-05      3.36442 
           0     0.053333  3.46374e-05 -1.50632e-05      3.36469 
           0         0.12  3.21398e-05 -1.04375e-05      3.36496 
           0     0.213332  3.72182e-05 -8.33538e-06      3.36523 
           0     0.333332  4.25534e-05 -7.61662e-06       3.3655 
           0         0.48  4.44622e-05  -7.5081e-06      3.36577 
           0     0.653331  4.23794e-05 -7.80887e-06      3.36603 
           0     0.853332  3.72685e-05 -8.37297e-06      3.36628 
           0         1.08  3.08242e-05 -9.01421e-06      3.36652 
           0      1.33333  2.37508e-05 -9.58086e-06      3.36674 
           0      1.61333  1.53358e-05 -9.87761e-06      3.36696 
           0         1.92   5.6842e-06 -9.96394e-06      3.36716 
           0      2.25333 -3.99212e-06 -9.95839e-06      3.36735 
           0      2.61333  -1.2543e-05 -1.01492e-05      3.36753 
           0            3 -1.51607e-05 -8.73717e-06      3.36769 
          20            0 -5.61248e-05  5.16924e-05      3.29294 
          20     0.013333 -5.58887e-05   5.1533e-05      3.29294 
          20     0.053333 -5.59679e-05  5.09546e-05      3.29294 
          20         0.12 -5.83621e-05  4.96931e-05      3.29294 
          20     0.213332 -6.45753e-05  4.74613e-05      3.29293 
          20     0.333332 -7.22811e-05  4.40963e-05      3.29293 
          20         0.48 -7.39467e-05  3.96681e-05      3.29293 
          20     0.653331 -6.42078e-05  3.41621e-05      3.29293 
          20     0.853332 -4.44053e-05  2.76663e-05      3.29293 
          20         1.08 -1.97531e-05  2.02627e-05      3.29292 
          20      1.33333  6.61762e-06  1.22657e-05      3.29292 
          20      1.61333  3.17324e-05   4.2294e-06      3.29292 
          20         1.92   5.1717e-05 -3.49298e-06      3.29291 
          20      2.25333  5.89514e-05 -1.06614e-05      3.29291 
          20      2.61333  5.54027e-05 -1.62871e-05       3.2929 
          20            3  5.17356e-05 -1.90479e-05      3.29289 
          40            0  -0.00135457  0.000229548         3.22 
          40     0.013333  -0.00133739  0.000222008         3.22 
          40     0.053333  -0.00129574   0.00019804         3.22 
          40         0.12  -0.00125422  0.000154135      3.21999 
          40     0.213332   -0.0012311  8.65568e-05      3.21999 
          40     0.333332   -0.0012003 -5.15573e-06         3.22 
          40         0.48  -0.00108144 -0.000114912      3.22001 
          40     0.653331 -0.000810315 -0.000231718      3.22003 
          40     0.853332 -0.000407776 -0.000344049      3.22007 
          40         1.08   4.6731e-05 -0.000442044      3.22013 
          40      1.33333  0.000487507 -0.000517562      3.22021 
          40      1.61333  0.000856968 -0.000564174      3.22031 
          40         1.92    0.0010979 -0.000580304      3.22042 
          40      2.25333   0.00118714  -0.00056949      3.22054 
          40      2.61333   0.00114498 -0.000540726      3.22066 
          40            3   0.00102555 -0.000502735      3.22076 
          60            0  0.000389041  -0.00118469      3.15428 
          60     0.013333  0.000380066  -0.00118732      3.15428 
          60     0.053333  0.000360427  -0.00119331      3.15428 
          60         0.12  0.000347263  -0.00119765      3.15428 
          60     0.213332  0.000345008  -0.00119508      3.15429 
          60     0.333332  0.000306191  -0.00118454      3.15429 
          60         0.48  0.000142138   -0.0011701      3.15428 
          60     0.653331 -0.000163297   -0.0011529      3.15425 
          60     0.853332 -0.000508474  -0.00112494      3.15421 
          60         1.08 -0.000798963   -0.0010761      3.15414 
          60      1.33333 -0.000997982  -0.00100144      3.15405 
          60      1.61333  -0.00108799  -0.00090167      3.15393 
          60         1.92  -0.00106756 -0.000782848      3.15379 
          60      2.25333 -0.000957434 -0.000655328      3.15364 
          60      2.61333 -0.000793302 -0.000530634       3.1535 
          60            3 -0.000609393 -0.000416012      3.15336 
          80            0            0            0       3.0866 
          80     0.013333   0.00256899  1.73891e-06       3.0866 
          80     0.053333   0.00789335  3.53025e-05      3.08661 
          80         0.12    0.0107779  0.000212484      3.08661 
          80     0.213332   0.00806926  0.000706397      3.08662 
          80     0.333332   0.00212912   0.00163492      3.08663 
          80         0.48  -0.00159196   0.00299697      3.08663 
          80     0.653331  -0.00166311    0.0046027      3.08662 
          80     0.853332  -0.00300623   0.00613783      3.08658 
          80         1.08  -0.00454518   0.00762729      3.08651 
          80      1.33333  -0.00453427   0.00903951       3.0864 
          80      1.61333   -0.0042971    0.0100945      3.08623 
          80         1.92  -0.00375979     0.010643      3.08601 
          80      2.25333  -0.00298521    0.0106396      3.08576 
          80      2.61333  -0.00214841    0.0101649       3.0855 
          80            3  -0.00141589   0.00936414      3.08524 
         100            0            0            0      3.01987 
         100     0.013333   0.00308052  5.14786e-06      3.01987 
         100     0.053333   0.00949577  8.21506e-05      3.01988 
         100         0.12    0.0134493  0.000395528      3.01988 
         100     0.213332    0.0117593   0.00110751      3.01989 
         100     0.333332   0.00659672   0.00224686      3.01989 
         100         0.48   0.00288266   0.00374655       3.0199 
         100     0.653331   0.00554333   0.00558173      3.01991 
         100     0.853332    0.0151737   0.00762609      3.01992 
         100         1.08    0.0227205    0.0094104      3.01992 
         100      1.33333    0.0218353    0.0105955      3.01992 
         100      1.61333    0.0163055    0.0113102      3.01988 
         100         1.92   0.00976831    0.0115987      3.01979 
         100      2.25333   0.00373435    0.0114038      3.01964 
         100      2.61333 -0.000921778     0.010793      3.01944 
         100            3  -0.00374974   0.00987485       3.0192 
         150            0            0            0      2.84751 
         150     0.013333  -0.00233472  -2.1972e-06      2.84751 
         150     0.053333   -0.0074757 -3.90938e-05      2.84751 
         150         0.12   -0.0111326 -0.000212321       2.8475 
         150     0.213332   -0.0104861 -0.000659817       2.8475 
         150     0.333332  -0.00679311  -0.00144424      2.84749 
         150         0.48  -0.00328142   -0.0025019      2.84748 
         150     0.653331  -0.00158972  -0.00370937      2.84747 
         150     0.853332  -0.00105155  -0.00493452      2.84747 
         150         1.08  -0.00036609  -0.00605708      2.84749 
         150      1.33333   0.00036631  -0.00700393      2.84754 
         150      1.61333  0.000538943  -0.00774417      2.84762 
         150         1.92   0.00090387  -0.00819982      2.84774 
         150      2.25333   0.00138627  -0.00830165       2.8479 
         150      2.61333   0.00168282  -0.00806838      2.84808 
         150            3   0.00168877    -0.007561      2.84828 
         200            0           -0           -0      2.69273 
         200     0.013333   0.00200507 -3.50191e-06      2.69273 
         200     0.053333   0.00767353 -4.52728e-05      2.69273 
         200         0.12    0.0151813 -0.000158454      2.69273 
         200     0.213332    0.0211781 -0.000291974      2.69273 
         200     0.333332    0.0237055 -0.000344156      2.69274 
         200         0.48    0.0237208  -0.00027431      2.69276 
         200     0.653331    0.0227805 -0.000142148      2.69278 
         200     0.853332     0.020711 -6.78148e-05      2.69279 
         200         1.08    0.0167875 -0.000127075      2.69276 
         200      1.33333    0.0121444 -0.000283147      2.69268 
         200      1.61333    0.0078385  -0.00044819       2.6925 
         200         1.92   0.00351942 -0.000596747      2.69222 
         200      2.25333 -0.000386657  -0.00072414      2.69182 
         200      2.61333  -0.00345639 -0.000805401      2.69132 
         200            3  -0.00546768 -0.000848362      2.69075 
         250            0            0            0      2.52219 
         250     0.013333   0.00186967  4.23593e-06       2.5222 
         250     0.053333   0.00544065  6.56976e-05       2.5222 
         250         0.12   0.00677594  0.000308034       2.5222 
         250     0.213332   0.00410157  0.000849676       2.5222 
         250     0.333332  -0.00063807   0.00171313      2.52221 
         250         0.48  -0.00439993   0.00283114      2.52221 
         250     0.653331  -0.00563102   0.00413169      2.52221 
         250     0.853332   -0.0044179   0.00556382       2.5222 
         250         1.08  -0.00228705   0.00703019       2.5222 
         250      1.33333  -0.00110777   0.00837649      2.52221 
         250      1.61333 -0.000795868    0.0094906      2.52222 
         250         1.92 -0.000521512    0.0103048      2.52224 
         250      2.25333 -0.000229378    0.0107411      2.52227 
         250      2.61333  5.55114e-05    0.0107664      2.52231 
         250            3  0.000315801    0.0104037      2.52235 
         300            0            0            0      2.36313 
         300     0.013333    0.0013205  9.01381e-07      2.36313 
         300     0.053333   0.00433745  1.57612e-05      2.36313 
         300         0.12    0.0069519  8.53707e-05      2.36313 
         300     0.213332   0.00746236  0.000270103      2.36314 
         300     0.333332   0.00596359   0.00061078      2.36314 
         300         0.48   0.00390575   0.00109866      2.36314 
         300     0.653331   0.00250763   0.00169036      2.36315 
         300     0.853332   0.00197813   0.00233742      2.36315 
         300         1.08   0.00184479   0.00299565      2.36314 
         300      1.33333   0.00156537   0.00361726      2.36313 
         300      1.61333   0.00100659   0.00415669       2.3631 
         300         1.92  0.000406219   0.00457852      2.36305 
         300      2.25333 -0.000165055   0.00484366      2.36298 
         300      2.61333 -0.000653649   0.00493086       2.3629 
         300            3 -0.000990963   0.00483908      2.36279 
         350            0  4.38772e-19 -4.35252e-26      2.20797 
         350     0.013333    0.0012384 -2.20558e-06      2.20797 
         350     0.053333   0.00492595 -3.03362e-05      2.20797 
         350         0.12    0.0104353 -0.000118974      2.20797 
         350     0.213332    0.0159091 -0.000263154      2.20797 
         350     0.333332    0.0194944 -0.000411766      2.20798 
         350         0.48    0.0208591 -0.000515611      2.20799 
         350     0.653331    0.0208358  -0.00056917        2.208 
         350     0.853332    0.0199321 -0.000611667        2.208 
         350         1.08    0.0178477 -0.000695742        2.208 
         350      1.33333    0.0146463 -0.000837005      2.20797 
         350      1.61333    0.0112033 -0.000994106      2.20789 
         350         1.92   0.00776349  -0.00112929      2.20776 
         350      2.25333   0.00422567  -0.00123627      2.20757 
         350      2.61333  0.000812768  -0.00130403       2.2073 
         350            3  -0.00205157   -0.0013274      2.20696 
         400            0           -0           -0      2.04262 
         400     0.013333  -0.00148389 -1.54287e-06      2.04262 
         400     0.053333   -0.0048151 -2.55372e-05      2.04262 
         400         0.12  -0.00735091 -0.000130445      2.04262 
         400     0.213332  -0.00715322 -0.000393187      2.04262 
         400     0.333332   -0.0046143 -0.000857669      2.04261 
         400         0.48  -0.00171632  -0.00150455      2.04261 
         400     0.653331 -2.03309e-05  -0.00227785      2.04261 
         400     0.853332  0.000253017  -0.00312101      2.04261 
         400         1.08 -0.000116035  -0.00397776      2.04261 
         400      1.33333 -0.000235204  -0.00478851      2.04262 
         400      1.61333  2.10192e-05  -0.00550778      2.04263 
         400         1.92  0.000294986  -0.00610123      2.04266 
         400      2.25333  0.000506349  -0.00652327      2.04271 
         400      2.61333   0.00066316  -0.00673576      2.04276 
         400            3  0.000762722  -0.00672048      2.04283 
         450            0            0            0      1.88104 
         450     0.013333  -0.00100574  1.91494e-06      1.88104 
         450     0.053333  -0.00404711  2.58857e-05      1.88104 
         450         0.12  -0.00845832  9.82355e-05      1.88104 
         450     0.213332   -0.0125473  0.000206038      1.88104 
         450     0.333332   -0.0148425  0.000298729      1.88103 
         450         0.48   -0.0154013  0.000341033      1.88102 
         450     0.653331   -0.0151557  0.000349606      1.88101 
         450     0.853332   -0.0143737   0.00038222        1.881 
         450         1.08   -0.0124913  0.000497696        1.881 
         450      1.33333  -0.00964753  0.000697591      1.88102 
         450      1.61333  -0.00698767  0.000919265      1.88108 
         450         1.92  -0.00472618   0.00111597      1.88118 
         450      2.25333  -0.00249906   0.00128089      1.88134 
         450      2.61333 -0.000305642   0.00140508      1.88155 
         450            3   0.00159647   0.00147985      1.88183 
         500            0 -1.46108e-19 -4.19086e-27       1.7208 
         500     0.013333 -0.000569471  4.39975e-06       1.7208 
         500     0.053333  -0.00333947  6.45979e-05       1.7208 
         500         0.12  -0.00962466  0.000281018       1.7208 
         500     0.213332   -0.0182486  0.000712733       1.7208 
         500     0.333332   -0.0257958   0.00131575       1.7208 
         500         0.48   -0.0297892   0.00198859      1.72079 
         500     0.653331   -0.0302511   0.00267079      1.72078 
         500     0.853332   -0.0281638   0.00337622      1.72077 
         500         1.08   -0.0242489   0.00413172      1.72078 
         500      1.33333   -0.0197242   0.00489437       1.7208 
         500      1.61333   -0.0157981   0.00557347      1.72087 
         500         1.92   -0.0120471   0.00612013      1.72099 
         500      2.25333  -0.00800778   0.00651006      1.72119 
         500      2.61333  -0.00381145   0.00671295      1.72147 
         500            3   9.1975e-05   0.00670569      1.72182 
         550            0           -0           -0      1.58072 
         550     0.013333   0.00243406 -1.77578e-06      1.58072 
         550     0.053333    0.0091103 -2.25053e-05      1.58072 
         550         0.12    0.0178987 -7.45972e-05      1.58072 
         550     0.213332      0.02543  -0.00011656      1.58073 
         550     0.333332     0.029346  -6.6432e-05      1.58073 
         550         0.48    0.0299884  0.000129824      1.58075 
         550     0.653331    0.0292777  0.000458869      1.58076 
         550     0.853332    0.0283728  0.000853743      1.58078 
         550         1.08    0.0266656   0.00121824      1.58078 
         550      1.33333    0.0231499   0.00147603      1.58075 
         550      1.61333    0.0184839   0.00163152      1.58069 
         550         1.92    0.0139443     0.001738      1.58056 
         550      2.25333   0.00937361   0.00180368      1.58035 
         550      2.61333   0.00470057   0.00181892      1.58004 
         550            3  0.000277699   0.00177691      1.57964 
         600            0           -0           -0      1.41518 
         600     0.013333  -0.00100463 -1.01071e-06      1.41518 
         600     0.053333  -0.00330732 -1.65427e-05      1.41518 
         600         0.12  -0.00519398 -8.33174e-05      1.41518 
         600     0.213332  -0.00540462  -0.00024765      1.41518 
         600     0.333332  -0.00416108  -0.00053366      1.41518 
         600         0.48  -0.00269685 -0.000927521      1.41517 
         600     0.653331  -0.00200814   -0.0013975      1.41517 
         600     0.853332  -0.00231026  -0.00191731      1.41517 
         600         1.08  -0.00313524  -0.00245853      1.41517 
         600      1.33333  -0.00355789  -0.00297293      1.41517 
         600      1.61333  -0.00309445  -0.00341403      1.41518 
         600         1.92  -0.00233815  -0.00377192      1.41519 
         600      2.25333  -0.00161672   -0.0040408      1.41521 
         600      2.61333 -0.000938691  -0.00420297      1.41525 
         600            3 -0.000272324  -0.00424041      1.41529 
         650            0           -0           -0      1.26003 
         650     0.013333   0.00070224  1.88239e-06      1.26003 
         650     0.053333   0.00186718  2.91148e-05      1.26003 
         650         0.12   0.00166504  0.000137199      1.26003 
         650     0.213332 -0.000855945  0.000384413      1.26003 
         650     0.333332  -0.00477824  0.000791333      1.26003 
         650         0.48  -0.00827106   0.00132902      1.26003 
         650     0.653331   -0.0101826    0.0019493      1.26003 
         650     0.853332    -0.010442   0.00261898      1.26003 
         650         1.08    -0.009503   0.00332154      1.26003 
         650      1.33333  -0.00803899   0.00403117      1.26003 
         650      1.61333  -0.00670412   0.00470383      1.26003 
         650         1.92  -0.00556843   0.00529991      1.26005 
         650      2.25333   -0.0043376   0.00578973      1.26008 
         650      2.61333  -0.00295678   0.00614158      1.26012 
         650            3  -0.00155867   0.00632516      1.26018 
         700            0           -0           -0       1.1047 
         700     0.013333  -0.00267555 -1.04636e-06       1.1047 
         700     0.053333  -0.00930129 -1.88238e-05       1.1047 
         700         0.12   -0.0162531  -0.00010611       1.1047 
         700     0.213332   -0.0199426 -0.000351864      1.10469 
         700     0.333332   -0.0193008 -0.000836353      1.10469 
         700         0.48   -0.0161403  -0.00157869      1.10468 
         700     0.653331   -0.0130808  -0.00253556      1.10467 
         700     0.853332   -0.0115155  -0.00363945      1.10467 
         700         1.08   -0.0111462  -0.00481815      1.10467 
         700      1.33333    -0.010706  -0.00599401      1.10468 
         700      1.61333  -0.00938117  -0.00710006       1.1047 
         700         1.92  -0.00750381  -0.00809823      1.10475 
         700      2.25333  -0.00547532   -0.0089498      1.10484 
         700      2.61333  -0.00339671  -0.00960131      1.10496 
         700            3  -0.00130509   -0.0100002      1.10512 
         750            0            0            0      0.96346 
         750     0.013333   0.00193229  -6.1903e-07      0.96346 
         750     0.053333   0.00708644 -6.83537e-06      0.96346 
         750         0.12    0.0136396 -1.47313e-05     0.963461 
         750     0.213332     0.019111    1.092e-05     0.963463 
         750     0.333332    0.0219282  0.000123438     0.963467 
         750         0.48    0.0224014  0.000354664     0.963474 
         750     0.653331    0.0219503  0.000696303     0.963483 
         750     0.853332    0.0216177   0.00111161     0.963492 
         750         1.08     0.021242   0.00154391     0.963496 
         750      1.33333    0.0198058   0.00192704      0.96349 
         750      1.61333    0.0169591   0.00222349     0.963462 
         750         1.92    0.0136845   0.00245132     0.963402 
         750      2.25333    0.0103656   0.00262715     0.963297 
         750      2.61333   0.00695334   0.00274284     0.963137 
         750            3   0.00345996   0.00278359     0.962917 
         800            0            0            0     0.804516 
         800     0.013333 -0.000393784  3.25938e-08     0.804516 
         800     0.053333  -0.00143507 -2.14088e-07     0.804516 
         800         0.12  -0.00260472 -5.45755e-06     0.804515 
         800     0.213332  -0.00333065 -2.78905e-05     0.804515 
         800     0.333332  -0.00340939  -7.9858e-05     0.804514 
         800         0.48  -0.00312557 -0.000163428     0.804512 
         800     0.653331  -0.00290619 -0.000270615     0.804509 
         800     0.853332   -0.0029619 -0.000390497     0.804506 
         800         1.08    -0.003159  -0.00050912     0.804504 
         800      1.33333  -0.00307284 -0.000604976     0.804504 
         800      1.61333  -0.00246993 -0.000661768     0.804507 
         800         1.92   -0.0017619 -0.000689098     0.804518 
         800      2.25333  -0.00116876 -0.000700911     0.804538 
         800      2.61333 -0.000648331 -0.000698948      0.80457 
         800            3  -0.00013022 -0.000679461     0.804615 
         850            0  1.30832e-19  6.89554e-27     0.656046 
         850     0.013333  0.000322476  1.66673e-07     0.656046 
         850     0.053333   0.00107132  2.84614e-06     0.656046 
         850         0.12   0.00182905  1.51239e-05     0.656046 
         850     0.213332   0.00219647  4.75074e-05     0.656046 
         850     0.333332   0.00209291  0.000107867     0.656047 
         850         0.48   0.00175524  0.000196378     0.656048 
         850     0.653331   0.00147684  0.000307596     0.656048 
         850     0.853332   0.00141251  0.000435845     0.656049 
         850         1.08   0.00154566  0.000575574      0.65605 
         850      1.33333   0.00167961  0.000716324      0.65605 
         850      1.61333   0.00157939  0.000843843     0.656048 
         850         1.92   0.00128959  0.000951902     0.656044 
         850      2.25333  0.000983832   0.00104237     0.656037 
         850      2.61333  0.000700674   0.00111225     0.656026 
         850            3  0.000407726    0.0011558      0.65601 
         900            0           -0           -0     0.505758 
         900     0.013333 -9.15764e-05  1.96078e-08     0.505758 
         900     0.053333 -0.000370695  1.68425e-07     0.505758 
         900         0.12 -0.000717461 -5.36432e-08     0.505758 
         900     0.213332 -0.000998913 -2.63011e-06     0.505758 
         900     0.333332   -0.0011399 -1.01159e-05     0.505758 
         900         0.48  -0.00116301  -2.3769e-05     0.505758 
         900     0.653331  -0.00114284 -4.30513e-05     0.505757 
         900     0.853332  -0.00113753 -6.65419e-05     0.505757 
         900         1.08  -0.00115369 -9.22213e-05     0.505756 
         900      1.33333  -0.00113669 -0.000116576     0.505756 
         900      1.61333  -0.00102054 -0.000135424     0.505757 
         900         1.92 -0.000831186 -0.000147847     0.505759 
         900      2.25333 -0.000637378 -0.000156149     0.505764 
         900      2.61333 -0.000452088 -0.000160936     0.505771 
         900            3 -0.000260774 -0.000161592     0.505781 
         950            0            0            0     0.357009 
         950     0.013333  2.03598e-05 -1.23158e-08     0.357009 
         950     0.053333  4.08208e-05 -1.68991e-07     0.357009 
         950         0.12  7.25816e-05 -6.64037e-07     0.357009 
         950     0.213332  0.000105831 -1.48939e-06     0.357009 
         950     0.333332  0.000129064 -2.41318e-06     0.357009 
         950         0.48   0.00013958 -3.21763e-06     0.357009 
         950     0.653331  0.000142675 -3.86898e-06     0.357009 
         950     0.853332  0.000144259  -4.4933e-06     0.357009 
         950         1.08  0.000144948 -5.33341e-06      0.35701 
         950      1.33333  0.000137981 -6.78266e-06      0.35701 
         950      1.61333  0.000116678 -9.37108e-06     0.357009 
         950         1.92  8.84847e-05 -1.27155e-05     0.357009 
         950      2.25333  6.45181e-05 -1.61468e-05     0.357009 
         950      2.61333  4.50633e-05  -1.9316e-05     0.357007 
         950            3  2.59111e-05  -2.2032e-05     0.357006 
        1000            0  1.77897e-20  9.78781e-28     0.207954 
        1000     0.013333  1.25439e-05  9.77431e-10     0.207954 
        1000     0.053333  9.32211e-06  1.29461e-08     0.207954 
        1000         0.12  5.27091e-06  4.76757e-08     0.207954 
        1000     0.213332  2.16652e-06  9.58887e-08     0.207954 
        1000     0.333332  5.34686e-07  1.29762e-07     0.207954 
        1000         0.48  2.63422e-07  1.28922e-07     0.207954 
        1000     0.653331  5.45851e-07  9.46597e-08     0.207954 
        1000     0.853332  6.79908e-07  4.45944e-08     0.207954 
        1000         1.08  5.87574e-07  8.70442e-10     0.207954 
        1000      1.33333  1.01895e-06  1.31792e-08     0.207954 
        1000      1.61333  2.92931e-06  1.41911e-07     0.207954 
        1000         1.92  5.72775e-06  3.27771e-07     0.207954 
        1000      2.25333  7.90312e-06  5.86079e-07     0.207954 
        1000      2.61333  9.47666e-06   8.2924e-07     0.207954 
        1000            3  1.10821e-05  1.00148e-06     0.207953 
