Variables = x, y, u, v, p

Zone, I=416, F=POINT
         -50            0            0            0     -27.6383 
         -50     0.013333  0.000177043   1.6622e-08     -27.6383 
         -50     0.053333  0.000176538  9.66339e-08     -27.6383 
         -50         0.12  0.000185919  2.39245e-07     -27.6383 
         -50     0.213332  0.000189328   5.3438e-07     -27.6383 
         -50     0.333332   0.00018769  1.32838e-06     -27.6382 
         -50         0.48  0.000183858  3.08689e-06     -27.6382 
         -50     0.653331   0.00017968  4.28172e-06     -27.6381 
         -50     0.853332   0.00017467  5.68789e-06     -27.6379 
         -50         1.08  0.000171675  7.23757e-06     -27.6377 
         -50      1.33333  0.000171116  8.62924e-06     -27.6375 
         -50      1.61333  0.000169668  9.98289e-06     -27.6371 
         -50         1.92  0.000163779  1.06364e-05     -27.6366 
         -50      2.25333  0.000156172  1.16897e-05      -27.636 
         -50      2.61333  0.000156403  1.58065e-05     -27.6352 
         -50            3  0.000165041  2.22085e-05     -27.6342 
         -25            0           -0           -0     -26.5433 
         -25     0.013333  0.000128839 -3.89705e-09     -26.5433 
         -25     0.053333  0.000129505 -1.11723e-07     -26.5433 
         -25         0.12  0.000143989 -5.45691e-07     -26.5433 
         -25     0.213332  0.000160145 -1.33697e-06     -26.5433 
         -25     0.333332  0.000172402 -2.27841e-06     -26.5433 
         -25         0.48   0.00017816 -3.13885e-06     -26.5433 
         -25     0.653331  0.000178236 -3.68014e-06     -26.5432 
         -25     0.853332   0.00017311 -4.23691e-06     -26.5432 
         -25         1.08  0.000164496 -4.56313e-06     -26.5431 
         -25      1.33333  0.000153829 -4.48524e-06      -26.543 
         -25      1.61333  0.000141038 -4.16119e-06     -26.5429 
         -25         1.92   0.00012957 -3.17679e-06     -26.5427 
         -25      2.25333  0.000122216 -1.92399e-06     -26.5424 
         -25      2.61333  0.000118884 -1.55987e-07     -26.5421 
         -25            3  0.000118857  2.78892e-06     -26.5418 
           0            0            0            0     -25.6488 
           0     0.013333  0.000377917 -0.000203888     -25.6492 
           0     0.053333  0.000207436 -0.000107196     -25.6507 
           0         0.12  0.000156995 -6.74555e-05     -25.6524 
           0     0.213332  0.000135143 -5.19562e-05     -25.6541 
           0     0.333332  0.000126977 -4.20169e-05     -25.6559 
           0         0.48    0.0001217 -3.46244e-05     -25.6576 
           0     0.653331  0.000116898 -2.91183e-05     -25.6593 
           0     0.853332  0.000112297  -2.4913e-05      -25.661 
           0         1.08  0.000108385 -2.16849e-05     -25.6626 
           0      1.33333  0.000106049 -1.91929e-05     -25.6641 
           0      1.61333  0.000103406 -1.72365e-05     -25.6655 
           0         1.92  9.98562e-05 -1.55105e-05     -25.6669 
           0      2.25333   0.00010044 -1.35854e-05     -25.6682 
           0      2.61333  0.000107344 -1.08838e-05     -25.6693 
           0            3  0.000115517 -8.16513e-06     -25.6704 
          20            0 -0.000224209  0.000177185     -25.1078 
          20     0.013333 -0.000217974   0.00017759     -25.1078 
          20     0.053333 -0.000199757  0.000178446     -25.1078 
          20         0.12 -0.000172105  0.000178618     -25.1077 
          20     0.213332 -0.000142556  0.000176119     -25.1076 
          20     0.333332 -0.000125007  0.000168326     -25.1075 
          20         0.48 -0.000128917   0.00015317     -25.1074 
          20     0.653331 -0.000137102  0.000131129     -25.1072 
          20     0.853332  -0.00011195  0.000105326     -25.1069 
          20         1.08 -4.63384e-05   7.8766e-05     -25.1067 
          20      1.33333  3.81842e-05  5.28028e-05     -25.1063 
          20      1.61333  0.000128373  2.87511e-05     -25.1059 
          20         1.92  0.000208026  8.05002e-06     -25.1054 
          20      2.25333  0.000260317 -8.42269e-06     -25.1049 
          20      2.61333  0.000275691 -2.08687e-05     -25.1043 
          20            3  0.000268551 -2.72951e-05     -25.1036 
          40            0           -0           -0     -24.5368 
          40     0.013333 -4.49953e-05  1.47764e-07     -24.5368 
          40     0.053333 -0.000419394  1.75345e-06     -24.5368 
          40         0.12 -0.000860622  5.03601e-06     -24.5368 
          40     0.213332  -0.00116413  5.10784e-06     -24.5368 
          40     0.333332  -0.00125345 -5.05759e-06     -24.5368 
          40         0.48  -0.00121795 -2.74695e-05     -24.5368 
          40     0.653331  -0.00114594 -5.76983e-05     -24.5368 
          40     0.853332  -0.00105438 -9.14457e-05     -24.5368 
          40         1.08 -0.000901291 -0.000126601     -24.5367 
          40      1.33333 -0.000633756 -0.000157666     -24.5367 
          40      1.61333  -0.00031182 -0.000181074     -24.5366 
          40         1.92 -1.27735e-06  -0.00019438     -24.5366 
          40      2.25333  0.000243968 -0.000196831     -24.5365 
          40      2.61333  0.000394647 -0.000191559     -24.5364 
          40            3  0.000455533 -0.000179768     -24.5362 
          60            0           -0           -0     -23.9961 
          60     0.013333 -6.08507e-05  2.32002e-07     -23.9961 
          60     0.053333 -0.000485791  2.93473e-06     -23.9961 
          60         0.12  -0.00102983  9.83402e-06     -23.9961 
          60     0.213332    -0.001456   1.6494e-05     -23.9961 
          60     0.333332  -0.00164105  1.50065e-05     -23.9961 
          60         0.48  -0.00167161  2.08243e-06     -23.9961 
          60     0.653331  -0.00164713 -1.69613e-05     -23.9961 
          60     0.853332  -0.00151024 -3.01323e-05     -23.9961 
          60         1.08  -0.00120382 -3.07795e-05      -23.996 
          60      1.33333 -0.000834779  -2.3548e-05      -23.996 
          60      1.61333 -0.000463901 -1.64717e-05      -23.996 
          60         1.92 -6.55468e-05   -1.007e-05     -23.9959 
          60      2.25333  0.000247073 -3.94025e-06     -23.9959 
          60      2.61333  0.000446966  4.05718e-08     -23.9958 
          60            3  0.000556916  1.93824e-06     -23.9957 
          80            0           -0           -0     -23.4739 
          80     0.013333  3.80286e-05  1.90604e-07     -23.4739 
          80     0.053333 -0.000133458   2.6441e-06     -23.4739 
          80         0.12 -0.000416581  1.05965e-05     -23.4739 
          80     0.213332 -0.000726204  2.44545e-05     -23.4739 
          80     0.333332 -0.000954423  4.11119e-05     -23.4739 
          80         0.48  -0.00107241  5.73268e-05     -23.4739 
          80     0.653331  -0.00109089  7.33691e-05     -23.4739 
          80     0.853332 -0.000969817  9.40301e-05     -23.4739 
          80         1.08 -0.000699213  0.000122152     -23.4739 
          80      1.33333 -0.000427384   0.00015181     -23.4739 
          80      1.61333 -0.000222906  0.000174765     -23.4739 
          80         1.92 -9.26791e-06  0.000189397     -23.4738 
          80      2.25333  0.000159388  0.000195035     -23.4738 
          80      2.61333  0.000274617    0.0001921     -23.4738 
          80            3   0.00035175  0.000183501     -23.4737 
         100            0           -0           -0     -22.9627 
         100     0.013333  0.000193442  1.00262e-07     -22.9627 
         100     0.053333  0.000430276  1.72748e-06     -22.9627 
         100         0.12  0.000617141  9.18164e-06     -22.9627 
         100     0.213332  0.000615355  2.84268e-05     -22.9627 
         100     0.333332  0.000461734  6.29491e-05     -22.9627 
         100         0.48  0.000295199  0.000111439     -22.9627 
         100     0.653331  0.000212099  0.000169645     -22.9627 
         100     0.853332   0.00020358  0.000232105     -22.9627 
         100         1.08  0.000199313  0.000292881     -22.9627 
         100      1.33333  0.000159674  0.000346436     -22.9627 
         100      1.61333  0.000105564  0.000388974     -22.9627 
         100         1.92  6.72771e-05  0.000415509     -22.9627 
         100      2.25333  3.41288e-05  0.000423629     -22.9627 
         100      2.61333  1.04647e-05  0.000414671     -22.9627 
         100            3 -3.68289e-07  0.000392044     -22.9627 
         150            0  9.35302e-20 -7.58127e-27     -21.7112 
         150     0.013333  9.32703e-05 -1.57763e-07     -21.7112 
         150     0.053333  0.000156445 -2.35088e-06     -21.7112 
         150         0.12  0.000333644 -1.03537e-05     -21.7112 
         150     0.213332  0.000580626 -2.63337e-05     -21.7112 
         150     0.333332  0.000784263 -4.83241e-05     -21.7112 
         150         0.48  0.000872362 -7.24207e-05     -21.7112 
         150     0.653331  0.000852083 -9.64528e-05     -21.7112 
         150     0.853332  0.000763013 -0.000119654     -21.7112 
         150         1.08  0.000654642 -0.000139997     -21.7112 
         150      1.33333  0.000545934 -0.000155725     -21.7112 
         150      1.61333  0.000418143 -0.000166527     -21.7112 
         150         1.92  0.000271976 -0.000171146     -21.7112 
         150      2.25333  0.000141466 -0.000169023     -21.7112 
         150      2.61333   3.5838e-05 -0.000160496     -21.7113 
         150            3 -4.20075e-05 -0.000146693     -21.7113 
         200            0           -0           -0     -20.4754 
         200     0.013333   0.00016616  1.12249e-07     -20.4754 
         200     0.053333   0.00033657  1.87644e-06     -20.4754 
         200         0.12  0.000443011   9.5472e-06     -20.4754 
         200     0.213332  0.000390467  2.81029e-05     -20.4754 
         200     0.333332  0.000245916  5.90632e-05     -20.4754 
         200         0.48  0.000136746  9.95945e-05     -20.4754 
         200     0.653331  0.000123721  0.000145631     -20.4754 
         200     0.853332  0.000171593  0.000192832     -20.4754 
         200         1.08   0.00018882  0.000235389     -20.4754 
         200      1.33333  0.000146577  0.000269132     -20.4754 
         200      1.61333  0.000101728   0.00029409     -20.4754 
         200         1.92  7.12345e-05  0.000308685     -20.4754 
         200      2.25333  4.77684e-05  0.000310958     -20.4754 
         200      2.61333  3.28903e-05  0.000301579     -20.4754 
         200            3   2.8086e-05  0.000282174     -20.4754 
         250            0           -0           -0     -19.2437 
         250     0.013333  0.000145855  8.22258e-08     -19.2437 
         250     0.053333  0.000281233   1.2905e-06     -19.2437 
         250         0.12  0.000391181  6.19797e-06     -19.2437 
         250     0.213332  0.000398723  1.77467e-05     -19.2437 
         250     0.333332  0.000318876   3.7497e-05     -19.2437 
         250         0.48  0.000217621   6.5037e-05     -19.2437 
         250     0.653331  0.000151457  9.90402e-05     -19.2437 
         250     0.853332  0.000142453  0.000138246     -19.2437 
         250         1.08  0.000172811  0.000180658     -19.2437 
         250      1.33333  0.000190071  0.000222264     -19.2437 
         250      1.61333  0.000171478  0.000258712     -19.2437 
         250         1.92  0.000146272  0.000286822     -19.2437 
         250      2.25333  0.000118337  0.000304459     -19.2437 
         250      2.61333  9.26285e-05  0.000310482     -19.2437 
         250            3  7.33984e-05  0.000304879     -19.2437 
         300            0            0            0      -18.012 
         300     0.013333  0.000147975 -1.71899e-07      -18.012 
         300     0.053333  0.000352691 -2.40426e-06      -18.012 
         300         0.12  0.000687005 -9.67799e-06      -18.012 
         300     0.213332   0.00103492  -2.2174e-05      -18.012 
         300     0.333332   0.00126846 -3.63916e-05      -18.012 
         300         0.48   0.00135498 -4.87443e-05      -18.012 
         300     0.653331   0.00134008 -5.89853e-05      -18.012 
         300     0.853332   0.00125027 -6.98771e-05      -18.012 
         300         1.08   0.00108463  -8.3645e-05      -18.012 
         300      1.33333  0.000881136 -9.90487e-05      -18.012 
         300      1.61333  0.000681073 -0.000112804      -18.012 
         300         1.92  0.000468772 -0.000123339      -18.012 
         300      2.25333  0.000260366 -0.000130135      -18.012 
         300      2.61333  7.10914e-05 -0.000132392      -18.012 
         300            3 -8.58303e-05 -0.000130051     -18.0121 
         350            0            0            0     -16.7799 
         350     0.013333  6.97341e-05 -1.64427e-07     -16.7799 
         350     0.053333  7.97556e-05 -2.45185e-06     -16.7799 
         350         0.12  0.000211108 -1.09477e-05     -16.7799 
         350     0.213332  0.000463648 -2.88143e-05     -16.7799 
         350     0.333332  0.000739543 -5.57566e-05     -16.7799 
         350         0.48  0.000937184 -8.88181e-05     -16.7799 
         350     0.653331    0.0010243 -0.000125392     -16.7799 
         350     0.853332   0.00100846  -0.00016491     -16.7799 
         350         1.08  0.000903459 -0.000207389     -16.7799 
         350      1.33333  0.000755392 -0.000250447     -16.7799 
         350      1.61333  0.000614548  -0.00028948     -16.7799 
         350         1.92  0.000466377 -0.000321024     -16.7799 
         350      2.25333   0.00031544 -0.000342723     -16.7799 
         350      2.61333  0.000169914 -0.000352869     -16.7799 
         350            3  3.84329e-05 -0.000350868     -16.7799 
         400            0  1.67023e-19  7.26468e-27     -15.5472 
         400     0.013333  5.88781e-05  1.60912e-07     -15.5472 
         400     0.053333 -5.03449e-05  2.33734e-06     -15.5472 
         400         0.12 -0.000277757  1.00387e-05     -15.5472 
         400     0.213332 -0.000585621  2.52213e-05     -15.5472 
         400     0.333332 -0.000863451  4.64823e-05     -15.5472 
         400         0.48  -0.00103564  7.07887e-05     -15.5472 
         400     0.653331  -0.00109816  9.64988e-05     -15.5472 
         400     0.853332  -0.00106649  0.000124318     -15.5472 
         400         1.08 -0.000945787  0.000155445     -15.5472 
         400      1.33333 -0.000770273  0.000188652     -15.5472 
         400      1.61333 -0.000590969  0.000220298     -15.5472 
         400         1.92 -0.000405969  0.000247365     -15.5472 
         400      2.25333 -0.000216721   0.00026787     -15.5472 
         400      2.61333 -3.21568e-05  0.000280226     -15.5472 
         400            3  0.000133603  0.000283437     -15.5471 
         450            0            0            0      -14.313 
         450     0.013333   3.7613e-05   4.1411e-09      -14.313 
         450     0.053333  -7.9908e-05 -1.29486e-08      -14.313 
         450         0.12 -0.000200341 -5.94272e-07      -14.313 
         450     0.213332 -0.000255546 -3.41013e-06      -14.313 
         450     0.333332 -0.000213587 -1.06378e-05      -14.313 
         450         0.48 -0.000109678 -2.32352e-05      -14.313 
         450     0.653331 -1.80532e-06 -4.01318e-05      -14.313 
         450     0.853332  8.08847e-05 -5.93001e-05      -14.313 
         450         1.08  0.000135582 -7.94021e-05      -14.313 
         450      1.33333   0.00015944 -0.000100298      -14.313 
         450      1.61333  0.000159373 -0.000121587      -14.313 
         450         1.92  0.000155547 -0.000141498      -14.313 
         450      2.25333  0.000152039 -0.000158291      -14.313 
         450      2.61333  0.000147686 -0.000170586      -14.313 
         450            3   0.00014124 -0.000177484      -14.313 
         500            0            0            0      -13.078 
         500     0.013333  0.000238828  2.05905e-07      -13.078 
         500     0.053333  0.000571967  3.31218e-06      -13.078 
         500         0.12  0.000800976  1.63685e-05      -13.078 
         500     0.213332  0.000723046  4.79064e-05      -13.078 
         500     0.333332  0.000404167  0.000102116      -13.078 
         500         0.48  7.38308e-05  0.000176182      -13.078 
         500     0.653331 -9.63478e-05  0.000263928      -13.078 
         500     0.853332 -8.29487e-05  0.000359926      -13.078 
         500         1.08   2.2801e-05  0.000458642      -13.078 
         500      1.33333  9.22509e-05  0.000553135      -13.078 
         500      1.61333  8.66964e-05  0.000637681      -13.078 
         500         1.92  7.06751e-05  0.000709315      -13.078 
         500      2.25333  5.97269e-05  0.000763489      -13.078 
         500      2.61333  5.19929e-05  0.000796071      -13.078 
         500            3  4.70399e-05  0.000804299      -13.078 
         550            0           -0           -0     -11.8406 
         550     0.013333  0.000189636 -3.98209e-07     -11.8406 
         550     0.053333  0.000573528 -5.74818e-06     -11.8406 
         550         0.12   0.00129345  -2.4363e-05     -11.8406 
         550     0.213332   0.00216178 -5.97845e-05     -11.8406 
         550     0.333332   0.00284325 -0.000106239     -11.8406 
         550         0.48   0.00314939 -0.000154152     -11.8406 
         550     0.653331   0.00313778 -0.000199152     -11.8406 
         550     0.853332   0.00292394 -0.000244417     -11.8406 
         550         1.08   0.00255032 -0.000295135     -11.8406 
         550      1.33333   0.00208842 -0.000350212     -11.8406 
         550      1.61333   0.00166514 -0.000401794     -11.8406 
         550         1.92   0.00127352 -0.000443922     -11.8406 
         550      2.25333  0.000869253 -0.000474888     -11.8407 
         550      2.61333  0.000455756 -0.000492684     -11.8407 
         550            3  6.66417e-05 -0.000495503     -11.8407 
         600            0           -0           -0     -10.6034 
         600     0.013333 -0.000185377  1.85602e-07     -10.6034 
         600     0.053333 -0.000927087  2.34437e-06     -10.6034 
         600         0.12  -0.00189504  7.68342e-06     -10.6034 
         600     0.213332  -0.00271922  1.15206e-05     -10.6034 
         600     0.333332  -0.00313421  4.67014e-06     -10.6034 
         600         0.48  -0.00317814  -1.8979e-05     -10.6034 
         600     0.653331  -0.00307164 -5.78661e-05     -10.6034 
         600     0.853332  -0.00295345 -0.000104338     -10.6034 
         600         1.08  -0.00276436  -0.00014781     -10.6034 
         600      1.33333   -0.0023954 -0.000180221     -10.6034 
         600      1.61333  -0.00190888 -0.000202175     -10.6034 
         600         1.92  -0.00143494 -0.000219068     -10.6033 
         600      2.25333 -0.000961911 -0.000231495     -10.6033 
         600      2.61333 -0.000481688 -0.000238068     -10.6033 
         600            3  -2.2596e-05 -0.000237702     -10.6033 
         650            0            0            0     -9.36068 
         650     0.013333  0.000229687  9.76871e-08     -9.36068 
         650     0.053333  0.000573744  1.66694e-06     -9.36068 
         650         0.12  0.000901446  8.80124e-06     -9.36068 
         650     0.213332   0.00102053  2.72742e-05     -9.36068 
         650     0.333332  0.000925269  6.07672e-05     -9.36068 
         650         0.48  0.000759502  0.000108369     -9.36068 
         650     0.653331  0.000665114  0.000166523     -9.36068 
         650     0.853332  0.000691158  0.000231838     -9.36068 
         650         1.08   0.00078356  0.000300124     -9.36068 
         650      1.33333  0.000809627  0.000364386     -9.36068 
         650      1.61333  0.000701335  0.000418735     -9.36068 
         650         1.92  0.000554984  0.000462683     -9.36068 
         650      2.25333  0.000414502  0.000496449     -9.36069 
         650      2.61333  0.000279018  0.000517921     -9.36069 
         650            3  0.000145436  0.000524705      -9.3607 
         700            0  9.95876e-20   5.8614e-27     -8.11746 
         700     0.013333  0.000112462 -1.41143e-07     -8.11746 
         700     0.053333  0.000225227 -2.04219e-06     -8.11746 
         700         0.12  0.000453896 -8.66987e-06     -8.11746 
         700     0.213332  0.000732295 -2.12449e-05     -8.11746 
         700     0.333332  0.000939394 -3.75248e-05     -8.11746 
         700         0.48   0.00100757 -5.39269e-05     -8.11746 
         700     0.653331  0.000964703 -6.91315e-05     -8.11746 
         700     0.853332   0.00085701 -8.50398e-05     -8.11746 
         700         1.08  0.000693362 -0.000104416     -8.11746 
         700      1.33333  0.000501969 -0.000126818     -8.11746 
         700      1.61333  0.000359139 -0.000147804     -8.11746 
         700         1.92  0.000273513 -0.000164154     -8.11746 
         700      2.25333   0.00019658 -0.000175816     -8.11747 
         700      2.61333  0.000113643 -0.000182779     -8.11748 
         700            3  3.49769e-05  -0.00018456     -8.11749 
         750            0           -0           -0     -6.87392 
         750     0.013333 -6.29857e-05  2.12828e-07     -6.87392 
         750     0.053333 -0.000509188  3.00345e-06     -6.87392 
         750         0.12  -0.00119335  1.22593e-05     -6.87392 
         750     0.213332  -0.00192099  2.84598e-05     -6.87392 
         750     0.333332  -0.00244049  4.66795e-05     -6.87392 
         750         0.48  -0.00264515  6.04133e-05     -6.87392 
         750     0.653331  -0.00261591  6.69234e-05     -6.87392 
         750     0.853332  -0.00247584  6.86827e-05     -6.87392 
         750         1.08  -0.00226001  7.09053e-05     -6.87392 
         750      1.33333  -0.00195452  7.70636e-05     -6.87392 
         750      1.61333   -0.0016048  8.57862e-05     -6.87392 
         750         1.92  -0.00127216  9.29323e-05     -6.87391 
         750      2.25333 -0.000934448  9.76652e-05      -6.8739 
         750      2.61333 -0.000579677  9.97734e-05     -6.87388 
         750            3 -0.000222462  9.91178e-05     -6.87386 
         800            0            0            0     -5.62667 
         800     0.013333  4.46302e-05 -2.84803e-07     -5.62667 
         800     0.053333  3.28648e-05 -4.29355e-06     -5.62667 
         800         0.12  0.000251566 -1.95308e-05     -5.62667 
         800     0.213332  0.000748555 -5.26723e-05     -5.62667 
         800     0.333332   0.00135138 -0.000104592     -5.62667 
         800         0.48   0.00182222 -0.000170359     -5.62667 
         800     0.653331   0.00204907 -0.000244132     -5.62667 
         800     0.853332   0.00205127 -0.000323359     -5.62667 
         800         1.08   0.00188056 -0.000408342     -5.62667 
         800      1.33333   0.00160148 -0.000498065     -5.62667 
         800      1.61333    0.0013155 -0.000587326     -5.62667 
         800         1.92   0.00108007 -0.000669612     -5.62668 
         800      2.25333  0.000851738 -0.000740293     -5.62668 
         800      2.61333  0.000608862 -0.000795771      -5.6267 
         800            3  0.000362506 -0.000832502     -5.62671 
         850            0           -0           -0     -4.37892 
         850     0.013333  0.000342158  7.40785e-08     -4.37892 
         850     0.053333  0.000988707  1.39351e-06     -4.37892 
         850         0.12   0.00170005  8.21812e-06     -4.37892 
         850     0.213332   0.00212365  2.82828e-05     -4.37892 
         850     0.333332   0.00212772  6.91998e-05     -4.37892 
         850         0.48   0.00185649  0.000133489     -4.37892 
         850     0.653331   0.00155896  0.000217713     -4.37892 
         850     0.853332   0.00138778   0.00031573     -4.37892 
         850         1.08    0.0013378  0.000421069     -4.37892 
         850      1.33333   0.00129732  0.000526917     -4.37892 
         850      1.61333   0.00116771  0.000627042     -4.37892 
         850         1.92  0.000972278  0.000718185     -4.37893 
         850      2.25333  0.000758604  0.000797626     -4.37893 
         850      2.61333  0.000541507  0.000861567     -4.37895 
         850            3  0.000322256  0.000905842     -4.37896 
         900            0            0            0     -3.13105 
         900     0.013333 -6.39616e-05  2.87249e-07     -3.13105 
         900     0.053333 -0.000543052   4.1531e-06     -3.13105 
         900         0.12  -0.00135205  1.76875e-05     -3.13105 
         900     0.213332   -0.0023181  4.37954e-05     -3.13105 
         900     0.333332  -0.00313218   7.8601e-05     -3.13105 
         900         0.48   -0.0035884  0.000114427     -3.13105 
         900     0.653331  -0.00370639  0.000146049     -3.13106 
         900     0.853332   -0.0036175  0.000173875     -3.13106 
         900         1.08  -0.00339408  0.000202441     -3.13106 
         900      1.33333  -0.00303492  0.000235926     -3.13106 
         900      1.61333  -0.00257994  0.000273689     -3.13106 
         900         1.92  -0.00212139  0.000310935     -3.13105 
         900      2.25333  -0.00165978  0.000343551     -3.13104 
         900      2.61333  -0.00117621  0.000369665     -3.13102 
         900            3 -0.000677112  0.000388182     -3.13099 
         950            0            0            0     -1.87946 
         950     0.013333 -0.000215766 -8.05494e-08     -1.87946 
         950     0.053333 -0.000971427 -1.47815e-06     -1.87946 
         950         0.12  -0.00181059 -8.59284e-06     -1.87946 
         950     0.213332  -0.00234586 -2.94501e-05     -1.87946 
         950     0.333332  -0.00240573 -7.23432e-05     -1.87946 
         950         0.48    -0.002122 -0.000140793     -1.87946 
         950     0.653331  -0.00176202  -0.00023211     -1.87946 
         950     0.853332  -0.00151401 -0.000340403     -1.87946 
         950         1.08  -0.00141054 -0.000459505     -1.87946 
         950      1.33333  -0.00136515 -0.000583083     -1.87946 
         950      1.61333   -0.0012622 -0.000704145     -1.87946 
         950         1.92  -0.00106521 -0.000817092     -1.87946 
         950      2.25333 -0.000828204 -0.000918016     -1.87945 
         950      2.61333 -0.000581497  -0.00100279     -1.87944 
         950            3 -0.000326444  -0.00106679     -1.87943 
        1000            0            0            0    -0.625179 
        1000     0.013333  3.73978e-05 -3.93876e-07    -0.625179 
        1000     0.053333  6.11861e-05 -5.99946e-06    -0.625179 
        1000         0.12  0.000469908 -2.74939e-05     -0.62518 
        1000     0.213332   0.00135039 -7.47462e-05     -0.62518 
        1000     0.333332   0.00242388   -0.0001495     -0.62518 
        1000         0.48   0.00327475 -0.000244532     -0.62518 
        1000     0.653331   0.00368582 -0.000350344    -0.625179 
        1000     0.853332     0.003693 -0.000461975    -0.625178 
        1000         1.08   0.00341847 -0.000579232    -0.625178 
        1000      1.33333    0.0029858 -0.000701282    -0.625179 
        1000      1.61333   0.00253209 -0.000822881    -0.625181 
        1000         1.92   0.00213487 -0.000936837    -0.625187 
        1000      2.25333   0.00174508  -0.00103799    -0.625197 
        1000      2.61333   0.00132718  -0.00112163    -0.625214 
        1000            3  0.000885274  -0.00118292    -0.625237 
