Variables = x, y, u, v, p

Zone, I=416, F=POINT
         -50            0            0            0     -54.4836 
         -50     0.013333 -0.000312452 -6.97433e-08     -54.4836 
         -50     0.053333 -0.000294702 -3.01764e-07     -54.4836 
         -50         0.12 -0.000304702 -7.70568e-07     -54.4836 
         -50     0.213332 -0.000320963 -1.46455e-06     -54.4836 
         -50     0.333332 -0.000337698 -2.53265e-06     -54.4835 
         -50         0.48  -0.00035245 -4.84665e-06     -54.4834 
         -50     0.653331 -0.000363452  -6.7437e-06     -54.4832 
         -50     0.853332 -0.000365196 -9.01493e-06      -54.483 
         -50         1.08 -0.000354715 -1.13045e-05     -54.4826 
         -50      1.33333 -0.000334561 -1.26949e-05      -54.482 
         -50      1.61333 -0.000309254  -1.4309e-05     -54.4813 
         -50         1.92 -0.000286385 -1.59669e-05     -54.4804 
         -50      2.25333 -0.000267323 -1.64532e-05     -54.4792 
         -50      2.61333 -0.000256962 -1.81142e-05     -54.4776 
         -50            3 -0.000257971  -2.3036e-05     -54.4757 
         -25            0 -2.60488e-19 -1.11508e-23      -52.295 
         -25     0.013333 -0.000225257 -1.42381e-08      -52.295 
         -25     0.053333 -0.000204652  6.19105e-08      -52.295 
         -25         0.12  -0.00020586  4.37251e-07      -52.295 
         -25     0.213332 -0.000212979  1.18542e-06      -52.295 
         -25     0.333332 -0.000218239  2.22987e-06      -52.295 
         -25         0.48 -0.000218598  3.41696e-06     -52.2949 
         -25     0.653331 -0.000214291  4.67126e-06     -52.2949 
         -25     0.853332 -0.000206665  6.11908e-06     -52.2948 
         -25         1.08 -0.000200109   7.5398e-06     -52.2946 
         -25      1.33333 -0.000197689  8.41797e-06     -52.2944 
         -25      1.61333 -0.000199588  8.72957e-06     -52.2941 
         -25         1.92 -0.000201942   8.2386e-06     -52.2938 
         -25      2.25333 -0.000200824  8.24366e-06     -52.2933 
         -25      2.61333 -0.000196124  8.27491e-06     -52.2927 
         -25            3 -0.000192173  6.08818e-06      -52.292 
           0            0 -3.34292e-15  2.15039e-15     -50.4605 
           0     0.013333 -0.000720146  0.000452535     -50.4634 
           0     0.053333 -0.000395214  0.000233817     -50.4675 
           0         0.12 -0.000269493  0.000157212     -50.4721 
           0     0.213332 -0.000211373  0.000122209     -50.4771 
           0     0.333332 -0.000186563  0.000100629     -50.4824 
           0         0.48 -0.000172826  8.44586e-05     -50.4878 
           0     0.653331 -0.000163534  7.22189e-05     -50.4933 
           0     0.853332 -0.000156883  6.25461e-05     -50.4987 
           0         1.08 -0.000152797  5.46866e-05      -50.504 
           0      1.33333 -0.000151394  4.81948e-05     -50.5093 
           0      1.61333 -0.000153546  4.26791e-05     -50.5144 
           0         1.92 -0.000159525  3.78779e-05     -50.5193 
           0      2.25333 -0.000167686  3.38393e-05     -50.5241 
           0      2.61333 -0.000169848  3.11318e-05     -50.5286 
           0            3 -0.000168704  2.55809e-05     -50.5328 
          20            0 -2.21167e-19 -2.13047e-23     -49.4355 
          20     0.013333  -0.00019972 -1.33618e-07     -49.4355 
          20     0.053333 -0.000191578 -1.50139e-06     -49.4355 
          20         0.12 -0.000149735 -6.50487e-06     -49.4355 
          20     0.213332 -7.42153e-05 -1.71788e-05     -49.4355 
          20     0.333332  -1.3311e-05 -3.33848e-05     -49.4355 
          20         0.48  3.40381e-05 -5.19737e-05     -49.4354 
          20     0.653331  9.02755e-05 -6.93493e-05     -49.4353 
          20     0.853332  9.75062e-05 -8.71473e-05     -49.4351 
          20         1.08  5.22165e-05 -0.000105374     -49.4348 
          20      1.33333 -2.93646e-06 -0.000120506     -49.4344 
          20      1.61333 -5.69253e-05 -0.000130237      -49.434 
          20         1.92 -0.000107537 -0.000133404     -49.4333 
          20      2.25333  -0.00014807  -0.00013002     -49.4325 
          20      2.61333 -0.000172799 -0.000121174     -49.4316 
          20            3 -0.000182633 -0.000110086     -49.4305 
          40            0           -0           -0     -48.2769 
          40     0.013333 -0.000152031 -7.22184e-08     -48.2769 
          40     0.053333 -9.36222e-05 -9.10966e-07     -48.2769 
          40         0.12 -2.52156e-05 -3.38731e-06     -48.2769 
          40     0.213332  2.96691e-05 -7.08671e-06     -48.2769 
          40     0.333332   5.0257e-05 -1.07093e-05     -48.2769 
          40         0.48  4.57341e-05 -1.39257e-05     -48.2769 
          40     0.653331  2.55859e-05 -1.79634e-05     -48.2769 
          40     0.853332 -1.15361e-05 -2.40728e-05     -48.2769 
          40         1.08 -5.65502e-05 -3.13772e-05     -48.2768 
          40      1.33333 -9.87868e-05  -3.8202e-05     -48.2768 
          40      1.61333  -0.00013366 -4.31619e-05     -48.2767 
          40         1.92  -0.00015867 -4.53164e-05     -48.2766 
          40      2.25333 -0.000175666 -4.53076e-05     -48.2765 
          40      2.61333 -0.000184154 -4.28085e-05     -48.2764 
          40            3 -0.000182039 -3.78376e-05     -48.2762 
          60            0           -0           -0     -47.1932 
          60     0.013333  -0.00012372  9.05986e-09     -47.1932 
          60     0.053333 -3.03999e-05  2.88949e-07     -47.1932 
          60         0.12  3.75051e-05  1.99944e-06     -47.1932 
          60     0.213332  4.72317e-05  7.03724e-06     -47.1932 
          60     0.333332  1.51494e-05  1.64138e-05     -47.1932 
          60         0.48  -1.2891e-05   2.9395e-05     -47.1932 
          60     0.653331 -1.46341e-05   4.4196e-05     -47.1932 
          60     0.853332 -1.20429e-05   5.8128e-05     -47.1932 
          60         1.08 -3.79817e-05  6.87708e-05     -47.1931 
          60      1.33333 -7.79315e-05  7.58644e-05     -47.1931 
          60      1.61333 -0.000110266  8.02489e-05     -47.1931 
          60         1.92 -0.000139203  8.14688e-05      -47.193 
          60      2.25333 -0.000162868  7.87568e-05      -47.193 
          60      2.61333 -0.000176918  7.33881e-05     -47.1929 
          60            3 -0.000180607  6.58253e-05     -47.1928 
          80            0           -0           -0     -46.1449 
          80     0.013333 -0.000121281  5.05222e-08     -46.1449 
          80     0.053333 -3.94985e-05  8.47617e-07     -46.1449 
          80         0.12  3.15421e-06   4.1931e-06     -46.1449 
          80     0.213332 -1.44457e-05  1.19921e-05     -46.1449 
          80     0.333332 -6.25469e-05  2.46975e-05     -46.1449 
          80         0.48  -9.4571e-05  4.13327e-05     -46.1449 
          80     0.653331 -8.94721e-05  6.05778e-05     -46.1449 
          80     0.853332 -6.64366e-05  8.03555e-05     -46.1449 
          80         1.08 -6.78198e-05  9.76514e-05     -46.1448 
          80      1.33333 -9.23537e-05  0.000110806     -46.1448 
          80      1.61333 -0.000112959  0.000119866     -46.1448 
          80         1.92 -0.000129459  0.000123939     -46.1448 
          80      2.25333 -0.000142684  0.000122507     -46.1447 
          80      2.61333 -0.000151413  0.000116121     -46.1447 
          80            3 -0.000153537  0.000106712     -46.1446 
         100            0 -1.67786e-19 -5.73083e-25     -45.1182 
         100     0.013333   -0.0001332  3.76606e-08     -45.1182 
         100     0.053333 -8.25863e-05  5.95215e-07     -45.1182 
         100         0.12 -5.92501e-05  2.75536e-06     -45.1182 
         100     0.213332 -6.71817e-05  7.42488e-06     -45.1182 
         100     0.333332 -8.85898e-05   1.4644e-05     -45.1182 
         100         0.48 -0.000101737  2.39664e-05     -45.1182 
         100     0.653331 -9.58552e-05  3.51014e-05     -45.1182 
         100     0.853332 -7.66404e-05  4.73652e-05     -45.1182 
         100         1.08 -6.97516e-05  5.88722e-05     -45.1181 
         100      1.33333 -8.22022e-05  6.79928e-05     -45.1181 
         100      1.61333 -9.65838e-05  7.44721e-05     -45.1181 
         100         1.92 -0.000112086  7.78117e-05     -45.1181 
         100      2.25333 -0.000128153  7.75139e-05     -45.1181 
         100      2.61333 -0.000142046  7.41002e-05      -45.118 
         100            3 -0.000148284  6.94903e-05      -45.118 
         150            0           -0           -0     -42.6014 
         150     0.013333 -0.000151354 -4.23067e-08     -42.6014 
         150     0.053333 -0.000135565  -6.0992e-07     -42.6014 
         150         0.12 -0.000108523 -2.62338e-06     -42.6014 
         150     0.213332 -6.20217e-05 -6.65907e-06     -42.6014 
         150     0.333332 -1.20473e-05 -1.25776e-05     -42.6014 
         150         0.48  2.58373e-05 -1.99534e-05     -42.6014 
         150     0.653331  4.24535e-05 -2.86778e-05     -42.6014 
         150     0.853332  3.07583e-05 -3.90095e-05     -42.6014 
         150         1.08 -3.85695e-06 -5.05406e-05     -42.6014 
         150      1.33333 -3.95849e-05 -6.17623e-05     -42.6014 
         150      1.61333 -6.93749e-05  -7.1165e-05     -42.6014 
         150         1.92 -9.95526e-05 -7.80297e-05     -42.6014 
         150      2.25333 -0.000129646 -8.16328e-05     -42.6014 
         150      2.61333 -0.000157522  -8.1917e-05     -42.6014 
         150            3 -0.000179575 -7.93211e-05     -42.6014 
         200            0            0            0      -40.117 
         200     0.013333 -0.000201352  1.05789e-08      -40.117 
         200     0.053333  -0.00032504  3.79305e-08      -40.117 
         200         0.12 -0.000473886 -5.98959e-07      -40.117 
         200     0.213332  -0.00056422  -3.8327e-06      -40.117 
         200     0.333332 -0.000574097 -1.16371e-05      -40.117 
         200         0.48  -0.00054272 -2.43735e-05      -40.117 
         200     0.653331 -0.000513434 -4.07151e-05      -40.117 
         200     0.853332 -0.000489039 -5.83188e-05      -40.117 
         200         1.08 -0.000444743 -7.48555e-05      -40.117 
         200      1.33333 -0.000376854 -8.89758e-05      -40.117 
         200      1.61333 -0.000303067 -0.000100515      -40.117 
         200         1.92 -0.000227783 -0.000108757     -40.1169 
         200      2.25333 -0.000154913 -0.000112689     -40.1169 
         200      2.61333 -9.27948e-05 -0.000112188     -40.1169 
         200            3 -4.79842e-05 -0.000107316     -40.1169 
         250            0           -0           -0     -37.6437 
         250     0.013333 -0.000138021 -7.18929e-08     -37.6437 
         250     0.053333 -8.44099e-05 -1.04175e-06     -37.6437 
         250         0.12  2.04987e-06  -4.4155e-06     -37.6437 
         250     0.213332  0.000103332 -1.07504e-05     -37.6437 
         250     0.333332  0.000171477 -1.88617e-05     -37.6437 
         250         0.48  0.000185367 -2.71327e-05     -37.6437 
         250     0.653331  0.000156862 -3.51398e-05     -37.6437 
         250     0.853332  0.000102317 -4.33683e-05     -37.6437 
         250         1.08  4.11623e-05 -5.14265e-05     -37.6437 
         250      1.33333 -5.35705e-06 -5.79067e-05     -37.6437 
         250      1.61333 -4.25629e-05 -6.20814e-05     -37.6437 
         250         1.92 -8.30476e-05 -6.40112e-05     -37.6437 
         250      2.25333  -0.00012381 -6.35466e-05     -37.6437 
         250      2.61333 -0.000159169 -6.06089e-05     -37.6437 
         250            3  -0.00018402 -5.55184e-05     -37.6437 
         300            0            0            0     -35.1752 
         300     0.013333 -0.000104976 -9.70693e-08     -35.1752 
         300     0.053333  3.82447e-05 -1.33994e-06     -35.1752 
         300         0.12  0.000239948 -5.28559e-06     -35.1752 
         300     0.213332  0.000439674 -1.17976e-05     -35.1752 
         300     0.333332  0.000567498  -1.8767e-05     -35.1752 
         300         0.48  0.000612175 -2.42427e-05     -35.1752 
         300     0.653331  0.000604383  -2.8232e-05     -35.1752 
         300     0.853332  0.000557299 -3.26192e-05     -35.1752 
         300         1.08  0.000460597 -3.92248e-05     -35.1752 
         300      1.33333  0.000333757 -4.75457e-05     -35.1752 
         300      1.61333  0.000211915 -5.52108e-05     -35.1752 
         300         1.92  9.03211e-05 -6.11106e-05     -35.1752 
         300      2.25333 -3.24174e-05 -6.49678e-05     -35.1752 
         300      2.61333 -0.000145276 -6.63681e-05     -35.1752 
         300            3 -0.000234844 -6.54029e-05     -35.1752 
         350            0           -0           -0     -32.7093 
         350     0.013333   -0.0001475  8.98289e-08     -32.7093 
         350     0.053333 -0.000165389  1.36633e-06     -32.7093 
         350         0.12 -0.000273955  6.24619e-06     -32.7093 
         350     0.213332 -0.000460563   1.6738e-05     -32.7093 
         350     0.333332 -0.000652116  3.25739e-05     -32.7093 
         350         0.48 -0.000775873  5.14509e-05     -32.7093 
         350     0.653331 -0.000813995  7.11281e-05     -32.7093 
         350     0.853332 -0.000787959  9.05489e-05     -32.7093 
         350         1.08 -0.000727909  0.000108971     -32.7093 
         350      1.33333 -0.000654694  0.000125434     -32.7093 
         350      1.61333 -0.000567506  0.000139323     -32.7093 
         350         1.92  -0.00046389  0.000149996     -32.7093 
         350      2.25333 -0.000349289   0.00015642     -32.7093 
         350      2.61333 -0.000233814  0.000157815     -32.7093 
         350            3 -0.000130763  0.000154043     -32.7093 
         400            0           -0           -0     -30.2441 
         400     0.013333 -0.000109151 -7.01631e-08     -30.2441 
         400     0.053333  2.03198e-05 -9.83306e-07     -30.2441 
         400         0.12  0.000205833 -4.00135e-06     -30.2441 
         400     0.213332  0.000408058 -9.40461e-06     -30.2441 
         400     0.333332  0.000570092 -1.60707e-05     -30.2441 
         400         0.48  0.000667579 -2.25287e-05     -30.2441 
         400     0.653331  0.000711753 -2.81504e-05     -30.2441 
         400     0.853332  0.000714794  -3.3557e-05     -30.2441 
         400         1.08  0.000666109 -4.02521e-05     -30.2441 
         400      1.33333  0.000558441 -4.92775e-05     -30.2441 
         400      1.61333  0.000420362 -5.96704e-05     -30.2441 
         400         1.92  0.000277391 -6.95408e-05     -30.2441 
         400      2.25333  0.000126941 -7.79988e-05     -30.2441 
         400      2.61333 -2.40453e-05  -8.4296e-05     -30.2441 
         400            3 -0.000158015 -8.79568e-05     -30.2441 
         450            0            0            0     -27.7802 
         450     0.013333 -0.000124625 -4.25034e-08     -27.7802 
         450     0.053333 -4.05457e-05  -6.2662e-07     -27.7802 
         450         0.12  7.89488e-05 -2.71974e-06     -27.7802 
         450     0.213332  0.000210736 -6.75685e-06     -27.7802 
         450     0.333332  0.000304355 -1.18372e-05     -27.7802 
         450         0.48  0.000330383 -1.62496e-05     -27.7802 
         450     0.653331  0.000301094 -1.88007e-05     -27.7802 
         450     0.853332  0.000248661 -1.92456e-05     -27.7802 
         450         1.08  0.000198925 -1.76279e-05     -27.7802 
         450      1.33333  0.000158757 -1.40852e-05     -27.7802 
         450      1.61333  0.000115324 -9.23657e-06     -27.7802 
         450         1.92  5.98137e-05 -3.88752e-06     -27.7802 
         450      2.25333 -3.74725e-06  1.78954e-06     -27.7802 
         450      2.61333 -6.95805e-05  7.41351e-06     -27.7802 
         450            3 -0.000131377   1.2582e-05     -27.7802 
         500            0           -0           -0     -25.3176 
         500     0.013333 -0.000282496  1.19696e-07     -25.3176 
         500     0.053333  -0.00065131  1.58215e-06     -25.3176 
         500         0.12  -0.00117061  5.71033e-06     -25.3176 
         500     0.213332  -0.00163981  1.07015e-05     -25.3176 
         500     0.333332  -0.00190001  1.16805e-05     -25.3176 
         500         0.48  -0.00194523  4.59185e-06     -25.3176 
         500     0.653331  -0.00187935 -1.06894e-05     -25.3176 
         500     0.853332  -0.00177947  -3.0733e-05     -25.3176 
         500         1.08  -0.00163598 -5.07525e-05     -25.3176 
         500      1.33333  -0.00142404 -6.77842e-05     -25.3176 
         500      1.61333  -0.00117574 -8.22019e-05     -25.3176 
         500         1.92 -0.000921113 -9.51879e-05     -25.3176 
         500      2.25333 -0.000653689  -0.00010596     -25.3176 
         500      2.61333 -0.000380749 -0.000113646     -25.3176 
         500            3 -0.000127122  -0.00011766     -25.3176 
         550            0            0            0     -22.8545 
         550     0.013333 -5.55219e-05 -2.58581e-08     -22.8545 
         550     0.053333  0.000200356 -2.65229e-07     -22.8545 
         550         0.12  0.000505821 -4.10094e-07     -22.8545 
         550     0.213332  0.000755797  1.28378e-06     -22.8545 
         550     0.333332  0.000887524  7.21712e-06     -22.8545 
         550         0.48  0.000920547  1.87162e-05     -22.8545 
         550     0.653331   0.00091521  3.54363e-05     -22.8545 
         550     0.853332  0.000910473  5.58261e-05     -22.8545 
         550         1.08  0.000890325    7.713e-05     -22.8545 
         550      1.33333  0.000806248   9.5914e-05     -22.8545 
         550      1.61333  0.000653801  0.000110347     -22.8545 
         550         1.92  0.000483154  0.000121189     -22.8545 
         550      2.25333  0.000304805  0.000128673     -22.8545 
         550      2.61333  0.000120554  0.000132258     -22.8545 
         550            3 -5.79288e-05  0.000131484     -22.8545 
         600            0           -0           -0     -20.3934 
         600     0.013333 -0.000150805  1.96487e-08     -20.3934 
         600     0.053333 -0.000153915  2.88826e-07     -20.3934 
         600         0.12 -0.000185466  1.26189e-06     -20.3934 
         600     0.213332 -0.000229871  3.22601e-06     -20.3934 
         600     0.333332 -0.000268338  6.00789e-06     -20.3934 
         600         0.48 -0.000287406  9.12972e-06     -20.3934 
         600     0.653331 -0.000286662  1.22471e-05     -20.3934 
         600     0.853332 -0.000272557  1.53057e-05     -20.3934 
         600         1.08 -0.000252785  1.83107e-05     -20.3934 
         600      1.33333 -0.000233495  2.11403e-05     -20.3934 
         600      1.61333 -0.000214292  2.38494e-05     -20.3934 
         600         1.92 -0.000192997  2.63714e-05     -20.3934 
         600      2.25333 -0.000170684  2.86207e-05     -20.3934 
         600      2.61333 -0.000148313  3.02832e-05     -20.3934 
         600            3 -0.000127324   3.1104e-05     -20.3934 
         650            0            0            0     -17.9328 
         650     0.013333 -0.000126226 -3.88157e-08     -17.9328 
         650     0.053333 -4.83426e-05 -5.51051e-07     -17.9328 
         650         0.12  5.87131e-05 -2.27765e-06     -17.9328 
         650     0.213332  0.000176719 -5.41394e-06     -17.9328 
         650     0.333332  0.000269485 -9.26054e-06     -17.9328 
         650         0.48  0.000319085 -1.28378e-05     -17.9328 
         650     0.653331  0.000333868 -1.57358e-05     -17.9328 
         650     0.853332  0.000327017  -1.8385e-05     -17.9328 
         650         1.08  0.000297643 -2.16819e-05     -17.9328 
         650      1.33333  0.000244012 -2.60351e-05     -17.9328 
         650      1.61333  0.000181321  -3.0811e-05     -17.9328 
         650         1.92    0.0001211  -3.4968e-05     -17.9328 
         650      2.25333  5.82104e-05  -3.8447e-05     -17.9328 
         650      2.61333 -9.03662e-06 -4.09466e-05     -17.9328 
         650            3 -7.65947e-05 -4.21817e-05     -17.9328 
         700            0           -0           -0     -15.4733 
         700     0.013333 -0.000123845 -4.76588e-08     -15.4733 
         700     0.053333 -3.46774e-05 -7.06623e-07     -15.4733 
         700         0.12  0.000100979 -3.11283e-06     -15.4733 
         700     0.213332  0.000264771 -7.96035e-06     -15.4733 
         700     0.333332  0.000401975 -1.46066e-05     -15.4733 
         700         0.48  0.000469577 -2.14043e-05     -15.4733 
         700     0.653331  0.000466952 -2.70152e-05     -15.4733 
         700     0.853332  0.000420969 -3.11755e-05     -15.4733 
         700         1.08  0.000358633 -3.40481e-05     -15.4733 
         700      1.33333  0.000299934 -3.54681e-05     -15.4733 
         700      1.61333   0.00024878 -3.53046e-05     -15.4733 
         700         1.92  0.000189701 -3.39113e-05     -15.4733 
         700      2.25333  0.000119316 -3.18906e-05     -15.4734 
         700      2.61333  4.13939e-05 -2.91537e-05     -15.4734 
         700            3  -3.8104e-05 -2.56615e-05     -15.4734 
         750            0            0            0     -13.0154 
         750     0.013333 -0.000108379   1.1428e-07     -13.0154 
         750     0.053333  -3.1661e-05  1.74883e-06     -13.0154 
         750         0.12 -4.44182e-05  8.12197e-06     -13.0154 
         750     0.213332 -0.000187136  2.24121e-05     -13.0154 
         750     0.333332  -0.00040321  4.55267e-05     -13.0154 
         750         0.48 -0.000591732  7.57555e-05     -13.0154 
         750     0.653331 -0.000692114  0.000110699     -13.0154 
         750     0.853332 -0.000698107  0.000149102     -13.0154 
         750         1.08  -0.00062864  0.000190551     -13.0154 
         750      1.33333  -0.00052442  0.000233595     -13.0154 
         750      1.61333 -0.000437586  0.000275161     -13.0154 
         750         1.92 -0.000378543  0.000312559     -13.0154 
         750      2.25333 -0.000321624  0.000344498     -13.0154 
         750      2.61333 -0.000257113  0.000369018     -13.0154 
         750            3 -0.000190697  0.000384176     -13.0154 
         800            0           -0           -0     -10.5581 
         800     0.013333 -0.000222724  -4.6095e-08     -10.5581 
         800     0.053333   -0.0003919 -7.76534e-07     -10.5581 
         800         0.12 -0.000568431 -4.07855e-06     -10.5581 
         800     0.213332 -0.000642067 -1.27426e-05     -10.5581 
         800     0.333332 -0.000592129 -2.89354e-05     -10.5581 
         800         0.48 -0.000482049 -5.27984e-05     -10.5581 
         800     0.653331 -0.000390246 -8.27525e-05     -10.5581 
         800     0.853332 -0.000353772 -0.000116851     -10.5581 
         800         1.08 -0.000363155 -0.000153329     -10.5581 
         800      1.33333 -0.000378723 -0.000190059     -10.5581 
         800      1.61333 -0.000363252  -0.00022457     -10.5581 
         800         1.92 -0.000319871 -0.000255482     -10.5581 
         800      2.25333  -0.00027164 -0.000281703     -10.5581 
         800      2.61333 -0.000224882 -0.000302069     -10.5581 
         800            3 -0.000176527 -0.000315119     -10.5581 
         850            0           -0           -0     -8.10113 
         850     0.013333 -5.02341e-05 -5.20917e-08     -8.10113 
         850     0.053333  0.000228944 -6.67645e-07     -8.10113 
         850         0.12  0.000585044 -2.23691e-06     -8.10113 
         850     0.213332   0.00089791 -3.42231e-06     -8.10113 
         850     0.333332   0.00106568 -1.23477e-06     -8.10113 
         850         0.48   0.00108274  6.81085e-06     -8.10113 
         850     0.653331   0.00102141  2.08401e-05     -8.10113 
         850     0.853332  0.000948997  3.87929e-05     -8.10113 
         850         1.08  0.000874577  5.76926e-05     -8.10113 
         850      1.33333  0.000771116  7.50711e-05     -8.10113 
         850      1.61333  0.000633651  9.01129e-05     -8.10113 
         850         1.92   0.00048924  0.000103501     -8.10113 
         850      2.25333  0.000343567  0.000115319     -8.10114 
         850      2.61333  0.000192059  0.000125105     -8.10115 
         850            3  3.55001e-05  0.000132052     -8.10116 
         900            0           -0           -0     -5.64596 
         900     0.013333 -0.000193208  1.60831e-07     -5.64596 
         900     0.053333 -0.000353196  2.35872e-06     -5.64596 
         900         0.12 -0.000689622  1.02754e-05     -5.64596 
         900     0.213332  -0.00113303  2.61695e-05     -5.64596 
         900     0.333332  -0.00152747  4.84975e-05     -5.64596 
         900         0.48  -0.00174919   7.3148e-05     -5.64596 
         900     0.653331  -0.00179104  9.70336e-05     -5.64596 
         900     0.853332  -0.00171317  0.000120167     -5.64596 
         900         1.08  -0.00155792  0.000144571     -5.64596 
         900      1.33333  -0.00134877  0.000171241     -5.64596 
         900      1.61333  -0.00113284  0.000198342     -5.64596 
         900         1.92 -0.000949643  0.000222752     -5.64596 
         900      2.25333  -0.00077414  0.000243202     -5.64595 
         900      2.61333 -0.000586262  0.000258785     -5.64594 
         900            3 -0.000389105  0.000268574     -5.64593 
         950            0           -0           -0     -3.19061 
         950     0.013333 -0.000319093 -1.17627e-07     -3.19061 
         950     0.053333  -0.00071713 -1.92677e-06     -3.19061 
         950         0.12  -0.00111019 -9.87932e-06     -3.19061 
         950     0.213332  -0.00125376 -3.03475e-05     -3.19061 
         950     0.333332  -0.00109693 -6.82923e-05     -3.19061 
         950         0.48 -0.000784424 -0.000124234     -3.19061 
         950     0.653331 -0.000506829  -0.00019482     -3.19061 
         950     0.853332  -0.00036855 -0.000275862     -3.19062 
         950         1.08 -0.000367704 -0.000363762     -3.19062 
         950      1.33333 -0.000424216  -0.00045426     -3.19061 
         950      1.61333 -0.000439758 -0.000541928     -3.19061 
         950         1.92 -0.000389277 -0.000622824     -3.19061 
         950      2.25333 -0.000322903 -0.000694586     -3.19061 
         950      2.61333 -0.000262433 -0.000754346     -3.19061 
         950            3 -0.000202904 -0.000798428      -3.1906 
        1000            0           -0           -0    -0.735676 
        1000     0.013333 -0.000145059 -1.74804e-07    -0.735677 
        1000     0.053333 -7.18198e-05 -2.67738e-06    -0.735677 
        1000         0.12  0.000148929 -1.20401e-05    -0.735677 
        1000     0.213332  0.000547449 -3.19911e-05    -0.735677 
        1000     0.333332   0.00102118 -6.26298e-05    -0.735677 
        1000         0.48   0.00142104 -0.000100774    -0.735676 
        1000     0.653331   0.00166123 -0.000142629    -0.735676 
        1000     0.853332   0.00174223 -0.000186115    -0.735675 
        1000         1.08   0.00169414 -0.000231648    -0.735675 
        1000      1.33333   0.00153368 -0.000280454    -0.735674 
        1000      1.61333   0.00129094 -0.000332082    -0.735675 
        1000         1.92   0.00103385 -0.000383202    -0.735678 
        1000      2.25333   0.00078229 -0.000429551    -0.735683 
        1000      2.61333  0.000525134 -0.000468663    -0.735692 
        1000            3  0.000252608 -0.000498406    -0.735704 
