Variables = x, y, u, v, p

Zone, I=416, F=POINT
         -50            0            0            0     -51.0962 
         -50     0.013333   -0.0003105  -7.1893e-08     -51.0962 
         -50     0.053333 -0.000302403 -3.44881e-07     -51.0962 
         -50         0.12 -0.000310429 -9.93875e-07     -51.0962 
         -50     0.213332 -0.000321405 -2.23416e-06     -51.0962 
         -50     0.333332 -0.000332369 -4.18068e-06     -51.0961 
         -50         0.48  -0.00034294 -6.61697e-06      -51.096 
         -50     0.653331 -0.000352865  -9.7507e-06     -51.0959 
         -50     0.853332 -0.000355939 -1.29937e-05     -51.0956 
         -50         1.08 -0.000345775 -1.60968e-05     -51.0953 
         -50      1.33333 -0.000325054 -1.90171e-05     -51.0948 
         -50      1.61333 -0.000298794 -2.12036e-05     -51.0941 
         -50         1.92 -0.000270716 -2.22087e-05     -51.0932 
         -50      2.25333  -0.00025434 -2.41656e-05      -51.092 
         -50      2.61333 -0.000251823 -2.72594e-05     -51.0906 
         -50            3 -0.000254513 -2.97486e-05     -51.0888 
         -25            0 -2.55107e-19  -1.1361e-23     -49.0324 
         -25     0.013333 -0.000222815 -1.51108e-08     -49.0324 
         -25     0.053333 -0.000206476  2.80867e-08     -49.0324 
         -25         0.12 -0.000202364  2.83766e-07     -49.0324 
         -25     0.213332 -0.000202159  7.95523e-07     -49.0324 
         -25     0.333332 -0.000201246  1.50562e-06     -49.0324 
         -25         0.48 -0.000196997  2.47917e-06     -49.0324 
         -25     0.653331  -0.00018891  3.81155e-06     -49.0323 
         -25     0.853332 -0.000178697  5.44403e-06     -49.0322 
         -25         1.08 -0.000171922  7.04146e-06     -49.0321 
         -25      1.33333 -0.000171966  8.20182e-06     -49.0319 
         -25      1.61333 -0.000178812  8.99956e-06     -49.0316 
         -25         1.92 -0.000188525  8.53234e-06     -49.0313 
         -25      2.25333 -0.000193064  1.00029e-05     -49.0309 
         -25      2.61333 -0.000187327  1.29218e-05     -49.0303 
         -25            3 -0.000178159  1.19953e-05     -49.0297 
           0            0 -3.16452e-15  2.06227e-15     -47.3032 
           0     0.013333 -0.000707815  0.000451925     -47.3063 
           0     0.053333 -0.000427936  0.000240312     -47.3102 
           0         0.12 -0.000296476  0.000167014     -47.3146 
           0     0.213332 -0.000211025  0.000130595     -47.3193 
           0     0.333332 -0.000154037  0.000106576     -47.3243 
           0         0.48 -0.000116073  8.68935e-05     -47.3294 
           0     0.653331  -9.4949e-05  7.04024e-05     -47.3346 
           0     0.853332 -8.85367e-05  5.60146e-05     -47.3397 
           0         1.08 -9.27266e-05  4.32928e-05     -47.3448 
           0      1.33333 -0.000102058  3.22749e-05     -47.3497 
           0      1.61333 -0.000116013   2.3074e-05     -47.3546 
           0         1.92 -0.000133399  1.58833e-05     -47.3592 
           0      2.25333 -0.000150776  1.07503e-05     -47.3637 
           0      2.61333 -0.000163957  6.81293e-06     -47.3679 
           0            3 -0.000172844  2.50809e-06     -47.3719 
          20            0 -2.25173e-19 -2.17937e-23     -46.3384 
          20     0.013333 -0.000224466 -6.69132e-10     -46.3384 
          20     0.053333 -0.000317956  3.87703e-07     -46.3384 
          20         0.12 -0.000442762  1.48312e-06     -46.3384 
          20     0.213332 -0.000534134   2.4921e-06     -46.3384 
          20     0.333332 -0.000560809  2.31888e-06     -46.3384 
          20         0.48  -0.00054322  1.81892e-07     -46.3383 
          20     0.653331 -0.000531954  -6.0198e-06     -46.3382 
          20     0.853332 -0.000517262 -1.61045e-05      -46.338 
          20         1.08 -0.000460461 -2.61046e-05     -46.3377 
          20      1.33333 -0.000372598 -3.41473e-05     -46.3374 
          20      1.61333 -0.000272461 -3.99206e-05     -46.3369 
          20         1.92 -0.000174705  -4.3189e-05     -46.3364 
          20      2.25333  -9.7001e-05 -4.39988e-05     -46.3356 
          20      2.61333 -4.92568e-05 -4.24976e-05     -46.3347 
          20            3 -3.23707e-05 -4.02203e-05     -46.3337 
          40            0           -0           -0     -45.2468 
          40     0.013333 -0.000202159 -3.81514e-08     -45.2468 
          40     0.053333 -0.000276127 -6.37804e-07     -45.2468 
          40         0.12 -0.000333436 -3.51226e-06     -45.2468 
          40     0.213332  -0.00032939 -1.08564e-05     -45.2468 
          40     0.333332 -0.000292117 -2.33326e-05     -45.2468 
          40         0.48 -0.000272459 -3.97716e-05     -45.2468 
          40     0.653331 -0.000286863 -5.83758e-05     -45.2468 
          40     0.853332 -0.000304654 -7.64756e-05     -45.2468 
          40         1.08 -0.000287792 -9.13704e-05     -45.2468 
          40      1.33333 -0.000240957 -0.000101665     -45.2467 
          40      1.61333 -0.000190505 -0.000107254     -45.2467 
          40         1.92 -0.000145101 -0.000107458     -45.2466 
          40      2.25333 -0.000107554 -0.000102491     -45.2465 
          40      2.61333 -8.23517e-05 -9.38009e-05     -45.2463 
          40            3 -7.21518e-05 -8.27235e-05     -45.2462 
          60            0           -0           -0     -44.2257 
          60     0.013333 -0.000184102 -8.50322e-08     -44.2257 
          60     0.053333 -0.000221777 -1.28092e-06     -44.2257 
          60         0.12 -0.000221602 -5.92598e-06     -44.2257 
          60     0.213332 -0.000158265 -1.60563e-05     -44.2257 
          60     0.333332  -7.3038e-05   -3.173e-05     -44.2257 
          60         0.48 -1.75001e-05 -5.15987e-05     -44.2257 
          60     0.653331 -1.68555e-05 -7.45598e-05     -44.2257 
          60     0.853332 -6.24468e-05 -9.93468e-05     -44.2256 
          60         1.08 -0.000107956 -0.000122933     -44.2256 
          60      1.33333 -0.000124183 -0.000141999     -44.2256 
          60      1.61333 -0.000132116 -0.000155196     -44.2256 
          60         1.92 -0.000142749 -0.000161446     -44.2255 
          60      2.25333   -0.0001509 -0.000159971     -44.2255 
          60      2.61333 -0.000152903 -0.000151536     -44.2254 
          60            3 -0.000150218 -0.000138324     -44.2253 
          80            0           -0           -0     -43.2379 
          80     0.013333 -0.000178049 -3.88685e-08     -43.2379 
          80     0.053333  -0.00022557  -5.8087e-07     -43.2379 
          80         0.12 -0.000272968 -2.69468e-06     -43.2379 
          80     0.213332 -0.000292902 -7.38748e-06     -43.2379 
          80     0.333332 -0.000291491 -1.49955e-05     -43.2379 
          80         0.48 -0.000289066 -2.54621e-05     -43.2379 
          80     0.653331 -0.000303168 -3.86993e-05     -43.2379 
          80     0.853332 -0.000327522 -5.36823e-05     -43.2379 
          80         1.08   -0.0003256 -6.78016e-05     -43.2379 
          80      1.33333 -0.000288738 -7.89137e-05     -43.2379 
          80      1.61333   -0.0002452  -8.6806e-05     -43.2379 
          80         1.92 -0.000203114  -9.0937e-05     -43.2378 
          80      2.25333 -0.000161671 -9.07344e-05     -43.2378 
          80      2.61333  -0.00012736 -8.66897e-05     -43.2378 
          80            3   -0.0001072 -7.96311e-05     -43.2377 
         100            0 -1.60648e-19  -5.9217e-25     -42.2704 
         100     0.013333 -0.000121476   4.2646e-09     -42.2704 
         100     0.053333 -4.54599e-05  1.67536e-07     -42.2704 
         100         0.12  1.26627e-05  1.33182e-06     -42.2704 
         100     0.213332  1.55743e-05  5.16671e-06     -42.2704 
         100     0.333332 -3.05582e-05  1.29482e-05     -42.2704 
         100         0.48 -8.50058e-05  2.43456e-05     -42.2704 
         100     0.653331 -0.000121065  3.77826e-05     -42.2704 
         100     0.853332 -0.000142509  5.14595e-05     -42.2704 
         100         1.08 -0.000157974  6.44261e-05     -42.2704 
         100      1.33333 -0.000167268  7.61898e-05     -42.2704 
         100      1.61333 -0.000173829  8.58175e-05     -42.2704 
         100         1.92 -0.000175748  9.22481e-05     -42.2704 
         100      2.25333 -0.000174533  9.46729e-05     -42.2703 
         100      2.61333 -0.000172557  9.32182e-05     -42.2703 
         100            3 -0.000169987  8.86899e-05     -42.2703 
         150            0           -0           -0     -39.8994 
         150     0.013333 -0.000142972  4.94384e-08     -39.8994 
         150     0.053333 -0.000133374  7.07188e-07     -39.8994 
         150         0.12 -0.000150445  2.94671e-06     -39.8994 
         150     0.213332 -0.000184174  7.18519e-06     -39.8994 
         150     0.333332  -0.00021507  1.30667e-05     -39.8994 
         150         0.48 -0.000232314  2.02204e-05     -39.8994 
         150     0.653331 -0.000232268  2.88507e-05     -39.8994 
         150     0.853332 -0.000209398  3.94631e-05     -39.8994 
         150         1.08 -0.000171612  5.15942e-05     -39.8994 
         150      1.33333 -0.000144058  6.34446e-05     -39.8994 
         150      1.61333 -0.000131636  7.32893e-05     -39.8994 
         150         1.92 -0.000123134  8.03712e-05     -39.8994 
         150      2.25333 -0.000116029  8.40983e-05     -39.8994 
         150      2.61333 -0.000109447  8.42435e-05     -39.8994 
         150            3 -0.000105728  8.08338e-05     -39.8993 
         200            0            0            0     -37.5595 
         200     0.013333 -0.000139933   6.3289e-10     -37.5595 
         200     0.053333 -0.000117729  4.18596e-08     -37.5595 
         200         0.12 -0.000107779  3.70225e-07     -37.5595 
         200     0.213332 -0.000114178  1.44553e-06     -37.5595 
         200     0.333332 -0.000129838  3.49521e-06     -37.5595 
         200         0.48 -0.000140621  6.19119e-06     -37.5595 
         200     0.653331 -0.000142072  8.87557e-06     -37.5595 
         200     0.853332 -0.000142341  1.08257e-05     -37.5595 
         200         1.08 -0.000149326  1.16263e-05     -37.5595 
         200      1.33333 -0.000156081  1.15906e-05     -37.5595 
         200      1.61333 -0.000156507  1.12552e-05     -37.5595 
         200         1.92 -0.000155411  1.05964e-05     -37.5595 
         200      2.25333 -0.000154388  9.57034e-06     -37.5595 
         200      2.61333 -0.000154758  8.16409e-06     -37.5595 
         200            3 -0.000157113  6.42367e-06     -37.5595 
         250            0           -0           -0      -35.232 
         250     0.013333 -0.000132253  3.14666e-08      -35.232 
         250     0.053333 -9.70408e-05  4.78003e-07      -35.232 
         250         0.12 -8.25569e-05  2.18305e-06      -35.232 
         250     0.213332 -9.56949e-05  5.89229e-06      -35.232 
         250     0.333332 -0.000123517  1.17415e-05      -35.232 
         250         0.48  -0.00014718   1.9392e-05      -35.232 
         250     0.653331 -0.000156129  2.85465e-05      -35.232 
         250     0.853332 -0.000147328  3.90516e-05      -35.232 
         250         1.08 -0.000128268  5.03663e-05      -35.232 
         250      1.33333 -0.000115366  6.12599e-05      -35.232 
         250      1.61333 -0.000113066  7.05689e-05      -35.232 
         250         1.92 -0.000113087  7.76978e-05      -35.232 
         250      2.25333 -0.000115072  8.19493e-05      -35.232 
         250      2.61333 -0.000120408  8.29948e-05      -35.232 
         250            3 -0.000126984  8.10922e-05      -35.232 
         300            0            0            0     -32.9103 
         300     0.013333 -0.000145402  1.52766e-08     -32.9103 
         300     0.053333 -0.000141448  2.30348e-07     -32.9103 
         300         0.12  -0.00015823  1.04344e-06     -32.9103 
         300     0.213332 -0.000191027  2.78937e-06     -32.9103 
         300     0.333332 -0.000227352  5.46144e-06     -32.9103 
         300         0.48  -0.00025457  8.72754e-06     -32.9103 
         300     0.653331  -0.00026883  1.22294e-05     -32.9103 
         300     0.853332 -0.000270871  1.58381e-05     -32.9103 
         300         1.08 -0.000261193  1.95801e-05     -32.9103 
         300      1.33333 -0.000242663  2.33242e-05     -32.9103 
         300      1.61333 -0.000220358  2.66773e-05     -32.9103 
         300         1.92 -0.000195807  2.93994e-05     -32.9103 
         300      2.25333 -0.000169787   3.1104e-05     -32.9103 
         300      2.61333 -0.000144412  3.17007e-05     -32.9103 
         300            3 -0.000121784  3.12832e-05     -32.9103 
         350            0           -0           -0     -30.5922 
         350     0.013333 -0.000134088 -3.93572e-08     -30.5922 
         350     0.053333 -8.65148e-05 -5.58014e-07     -30.5922 
         350         0.12 -1.77306e-05 -2.30151e-06     -30.5922 
         350     0.213332  5.74767e-05 -5.46511e-06     -30.5922 
         350     0.333332  0.000113039 -9.41277e-06     -30.5922 
         350         0.48  0.000139278  -1.3389e-05     -30.5922 
         350     0.653331  0.000142171 -1.72933e-05     -30.5922 
         350     0.853332  0.000126053 -2.16524e-05     -30.5922 
         350         1.08  9.11997e-05 -2.68546e-05     -30.5922 
         350      1.33333  4.70895e-05 -3.25335e-05     -30.5922 
         350      1.61333  5.49132e-06 -3.78646e-05     -30.5922 
         350         1.92 -3.51764e-05 -4.22448e-05     -30.5922 
         350      2.25333 -7.67582e-05 -4.54958e-05     -30.5922 
         350      2.61333 -0.000117585  -4.7286e-05     -30.5922 
         350            3 -0.000153463 -4.74542e-05     -30.5922 
         400            0           -0           -0     -28.2768 
         400     0.013333 -0.000144901 -1.31599e-07     -28.2768 
         400     0.053333 -9.50035e-05 -1.97795e-06     -28.2768 
         400         0.12  5.30585e-05 -8.90553e-06     -28.2768 
         400     0.213332  0.000294777 -2.35144e-05     -28.2768 
         400     0.333332  0.000534003 -4.52367e-05     -28.2768 
         400         0.48  0.000678681  -7.0957e-05     -28.2768 
         400     0.653331  0.000710212 -9.79079e-05     -28.2768 
         400     0.853332   0.00065892 -0.000125113     -28.2768 
         400         1.08  0.000561961 -0.000152082     -28.2768 
         400      1.33333  0.000453533 -0.000177364     -28.2768 
         400      1.61333  0.000346786 -0.000199191     -28.2768 
         400         1.92  0.000231009 -0.000216294     -28.2768 
         400      2.25333  0.000105412 -0.000227347     -28.2768 
         400      2.61333  -2.1638e-05 -0.000231231     -28.2769 
         400            3 -0.000137521 -0.000227555     -28.2769 
         450            0            0            0     -25.9645 
         450     0.013333  -0.00027035   1.1673e-07     -25.9645 
         450     0.053333  -0.00061292   1.5308e-06     -25.9645 
         450         0.12  -0.00108853  5.46285e-06     -25.9645 
         450     0.213332  -0.00151683  1.01311e-05     -25.9645 
         450     0.333332  -0.00176023  1.10837e-05     -25.9645 
         450         0.48  -0.00182144  4.94177e-06     -25.9645 
         450     0.653331  -0.00179263 -8.01442e-06     -25.9645 
         450     0.853332  -0.00172924 -2.42756e-05     -25.9645 
         450         1.08  -0.00160371 -3.89917e-05     -25.9645 
         450      1.33333  -0.00138926 -4.92089e-05     -25.9645 
         450      1.61333  -0.00113249 -5.59429e-05     -25.9645 
         450         1.92  -0.00087185  -6.1187e-05     -25.9645 
         450      2.25333 -0.000600063 -6.45619e-05     -25.9645 
         450      2.61333 -0.000325147 -6.57441e-05     -25.9645 
         450            3 -7.42714e-05 -6.46237e-05     -25.9645 
         500            0           -0           -0     -23.6532 
         500     0.013333 -0.000133547   3.5357e-08     -23.6532 
         500     0.053333 -0.000102743  5.25251e-07     -23.6532 
         500         0.12 -9.17497e-05   2.3079e-06     -23.6532 
         500     0.213332  -9.8755e-05  5.87855e-06     -23.6532 
         500     0.333332 -0.000103737  1.08735e-05     -23.6532 
         500         0.48 -9.23162e-05  1.65998e-05     -23.6532 
         500     0.653331 -6.65155e-05  2.29629e-05     -23.6532 
         500     0.853332 -2.89152e-05  3.05329e-05     -23.6532 
         500         1.08  1.64503e-05  3.94548e-05     -23.6532 
         500      1.33333  4.38574e-05  4.82533e-05     -23.6532 
         500      1.61333  3.21358e-05  5.49132e-05     -23.6532 
         500         1.92  5.06147e-06  5.91383e-05     -23.6532 
         500      2.25333 -2.39197e-05  6.12876e-05     -23.6532 
         500      2.61333 -5.38862e-05  6.12475e-05     -23.6532 
         500            3 -8.47361e-05   5.8884e-05     -23.6532 
         550            0            0            0     -21.3448 
         550     0.013333 -0.000129107  5.10342e-08     -21.3448 
         550     0.053333 -9.31683e-05  7.82225e-07     -21.3448 
         550         0.12 -9.42922e-05   3.6126e-06     -21.3448 
         550     0.213332 -0.000141194  9.79695e-06     -21.3448 
         550     0.333332 -0.000202281  1.93484e-05     -21.3448 
         550         0.48 -0.000237502  3.11822e-05     -21.3448 
         550     0.653331 -0.000232409  4.43554e-05     -21.3448 
         550     0.853332 -0.000193097  5.86315e-05     -21.3448 
         550         1.08 -0.000138545  7.35572e-05     -21.3448 
         550      1.33333 -0.000101516  8.75717e-05     -21.3448 
         550      1.61333  -9.6391e-05  9.91914e-05     -21.3448 
         550         1.92 -9.94605e-05   0.00010814     -21.3448 
         550      2.25333 -0.000101043  0.000114518     -21.3448 
         550      2.61333 -0.000101867  0.000117709     -21.3448 
         550            3 -0.000103847   0.00011719     -21.3448 
         600            0           -0           -0     -19.0384 
         600     0.013333 -5.42486e-05 -8.97869e-08     -19.0384 
         600     0.053333   0.00021538 -1.22079e-06     -19.0384 
         600         0.12  0.000584923 -4.64925e-06     -19.0384 
         600     0.213332  0.000930915 -9.59605e-06     -19.0384 
         600     0.333332   0.00113343 -1.28385e-05     -19.0384 
         600         0.48   0.00117072 -1.11596e-05     -19.0384 
         600     0.653331   0.00111007 -3.84201e-06     -19.0384 
         600     0.853332   0.00101847  7.22785e-06     -19.0384 
         600         1.08  0.000906453  1.90451e-05     -19.0384 
         600      1.33333  0.000760905  2.96155e-05     -19.0384 
         600      1.61333  0.000597193  3.90868e-05     -19.0384 
         600         1.92    0.0004341  4.83162e-05     -19.0384 
         600      2.25333  0.000263551  5.70092e-05     -19.0384 
         600      2.61333  8.58568e-05  6.43929e-05     -19.0384 
         600            3 -8.57546e-05  6.98774e-05     -19.0384 
         650            0            0            0     -16.7359 
         650     0.013333 -0.000217881  1.86094e-07     -16.7359 
         650     0.053333 -0.000454943  2.69693e-06     -16.7359 
         650         0.12 -0.000888368  1.15265e-05     -16.7359 
         650     0.213332  -0.00141672  2.86611e-05     -16.7359 
         650     0.333332   -0.0018605  5.17318e-05     -16.7359 
         650         0.48  -0.00210235  7.59753e-05     -16.7359 
         650     0.653331  -0.00215549   9.8249e-05     -16.7359 
         650     0.853332  -0.00208843  0.000118797     -16.7359 
         650         1.08  -0.00193734  0.000139892     -16.7359 
         650      1.33333  -0.00171499  0.000162823     -16.7359 
         650      1.61333  -0.00145641  0.000186255     -16.7359 
         650         1.92   -0.0011945  0.000207425     -16.7359 
         650      2.25333 -0.000918745  0.000224692     -16.7359 
         650      2.61333 -0.000626249  0.000236835     -16.7359 
         650            3 -0.000334136  0.000242773     -16.7359 
         700            0           -0           -0     -14.4347 
         700     0.013333 -0.000191251 -2.25546e-07     -14.4347 
         700     0.053333 -0.000232096 -3.41575e-06     -14.4347 
         700         0.12 -0.000114873 -1.56328e-05     -14.4347 
         700     0.213332  0.000223569  -4.2427e-05     -14.4347 
         700     0.333332   0.00065964 -8.47638e-05     -14.4347 
         700         0.48   0.00101008 -0.000138913     -14.4347 
         700     0.653331   0.00118144  -0.00020037     -14.4347 
         700     0.853332   0.00117913 -0.000267099     -14.4347 
         700         1.08   0.00104167 -0.000338814     -14.4347 
         700      1.33333  0.000834272 -0.000413429     -14.4347 
         700      1.61333  0.000641508 -0.000485824     -14.4347 
         700         1.92   0.00048721 -0.000551142     -14.4347 
         700      2.25333  0.000333213 -0.000606088     -14.4347 
         700      2.61333  0.000165767 -0.000647411     -14.4347 
         700            3 -2.52065e-06  -0.00067188     -14.4347 
         750            0            0            0     -12.1377 
         750     0.013333 -5.45098e-06   9.5112e-08     -12.1377 
         750     0.053333  0.000337049  1.56541e-06     -12.1377 
         750         0.12  0.000663995  8.00178e-06     -12.1377 
         750     0.213332  0.000800657  2.44174e-05     -12.1377 
         750     0.333332  0.000718142   5.4519e-05     -12.1377 
         750         0.48  0.000527674  9.85436e-05     -12.1377 
         750     0.653331  0.000362372  0.000154026     -12.1377 
         750     0.853332  0.000290868  0.000218069     -12.1377 
         750         1.08  0.000306769  0.000287948     -12.1377 
         750      1.33333  0.000343473   0.00035977     -12.1377 
         750      1.61333   0.00032597  0.000428389     -12.1377 
         750         1.92  0.000251456  0.000490134     -12.1377 
         750      2.25333   0.00016084  0.000542911     -12.1377 
         750      2.61333  6.90172e-05  0.000583815     -12.1377 
         750            3 -2.59689e-05  0.000609715     -12.1377 
         800            0           -0           -0     -9.84395 
         800     0.013333 -0.000225275  1.00248e-07     -9.84395 
         800     0.053333 -0.000458473  1.42487e-06     -9.84395 
         800         0.12 -0.000832804  5.90153e-06     -9.84395 
         800     0.213332  -0.00124627  1.40424e-05     -9.84395 
         800     0.333332  -0.00156931  2.38615e-05     -9.84395 
         800         0.48  -0.00173223  3.22373e-05     -9.84395 
         800     0.653331  -0.00175922  3.72068e-05     -9.84395 
         800     0.853332  -0.00171286  3.89465e-05     -9.84395 
         800         1.08  -0.00162686  3.92329e-05     -9.84395 
         800      1.33333   -0.0014955  4.01057e-05     -9.84395 
         800      1.61333  -0.00131596  4.25567e-05     -9.84395 
         800         1.92  -0.00111324  4.58125e-05     -9.84394 
         800      2.25333 -0.000898337  4.87982e-05     -9.84394 
         800      2.61333 -0.000670521  5.10998e-05     -9.84393 
         800            3 -0.000433663  5.25116e-05     -9.84391 
         850            0           -0           -0      -7.5512 
         850     0.013333 -0.000302542 -7.48568e-08      -7.5512 
         850     0.053333 -0.000677875 -1.29157e-06      -7.5512 
         850         0.12  -0.00106811 -7.00298e-06      -7.5512 
         850     0.213332  -0.00125168 -2.26384e-05      -7.5512 
         850     0.333332  -0.00116188 -5.31127e-05      -7.5512 
         850         0.48 -0.000910746 -9.96992e-05      -7.5512 
         850     0.653331 -0.000667029 -0.000159711      -7.5512 
         850     0.853332 -0.000526349 -0.000228867      -7.5512 
         850         1.08 -0.000483002 -0.000303093      -7.5512 
         850      1.33333 -0.000473355 -0.000378622      -7.5512 
         850      1.61333 -0.000441714 -0.000451882      -7.5512 
         850         1.92 -0.000380652 -0.000520284     -7.55119 
         850      2.25333 -0.000310665 -0.000581048     -7.55119 
         850      2.61333 -0.000240239 -0.000631066     -7.55118 
         850            3 -0.000169436 -0.000666913     -7.55117 
         900            0           -0           -0     -5.25945 
         900     0.013333 -1.06556e-05 -2.30215e-07     -5.25945 
         900     0.053333  0.000422717 -3.30588e-06     -5.25945 
         900         0.12   0.00112179 -1.39119e-05     -5.25945 
         900     0.213332   0.00192254 -3.38239e-05     -5.25945 
         900     0.333332   0.00256603 -5.91862e-05     -5.25945 
         900         0.48   0.00289787  -8.3448e-05     -5.25945 
         900     0.653331   0.00295522 -0.000102778     -5.25945 
         900     0.853332   0.00285464 -0.000118391     -5.25945 
         900         1.08   0.00265069 -0.000134743     -5.25944 
         900      1.33333   0.00234151  -0.00015528     -5.25945 
         900      1.61333   0.00196702 -0.000179091     -5.25945 
         900         1.92    0.0016019 -0.000202375     -5.25945 
         900      2.25333    0.0012377 -0.000222172     -5.25946 
         900      2.61333  0.000852086 -0.000237832     -5.25948 
         900            3  0.000446253 -0.000248772      -5.2595 
         950            0           -0           -0     -2.97192 
         950     0.013333 -2.61569e-06  1.94175e-07     -2.97192 
         950     0.053333  0.000314916  3.05062e-06     -2.97192 
         950         0.12  0.000529843  1.46832e-05     -2.97192 
         950     0.213332  0.000459723  4.21828e-05     -2.97192 
         950     0.333332  0.000145566  8.91858e-05     -2.97192 
         950         0.48 -0.000211912  0.000153824     -2.97192 
         950     0.653331 -0.000439703  0.000231392     -2.97192 
         950     0.853332 -0.000480701  0.000318315     -2.97192 
         950         1.08 -0.000363181   0.00041263     -2.97192 
         950      1.33333 -0.000179992  0.000510784     -2.97192 
         950      1.61333 -5.76647e-05  0.000606101     -2.97192 
         950         1.92 -4.16909e-05  0.000692643     -2.97192 
         950      2.25333 -5.75985e-05  0.000768287     -2.97192 
         950      2.61333 -6.67028e-05  0.000830006     -2.97192 
         950            3 -7.43628e-05  0.000873906     -2.97192 
        1000            0           -0           -0    -0.686393 
        1000     0.013333 -0.000306101   1.6553e-08    -0.686393 
        1000     0.053333 -0.000728768  4.69873e-08    -0.686393 
        1000         0.12  -0.00127124 -1.11783e-06    -0.686393 
        1000     0.213332  -0.00170988 -7.29187e-06    -0.686393 
        1000     0.333332  -0.00189369 -2.35309e-05    -0.686393 
        1000         0.48  -0.00184328 -5.27101e-05    -0.686394 
        1000     0.653331  -0.00170264 -9.35661e-05    -0.686394 
        1000     0.853332  -0.00159769 -0.000142122    -0.686395 
        1000         1.08  -0.00154387 -0.000193425    -0.686395 
        1000      1.33333  -0.00146071 -0.000242182    -0.686395 
        1000      1.61333  -0.00128397 -0.000284638    -0.686393 
        1000         1.92   -0.0010589 -0.000320921    -0.686388 
        1000      2.25333 -0.000840166 -0.000352804    -0.686381 
        1000      2.61333 -0.000628873 -0.000379421    -0.686369 
        1000            3 -0.000408716 -0.000398699    -0.686353 
