Variables = x, y, u, v, p

Zone, I=2080, F=POINT
         -50            0            0            0      123.565 
         -50      0.00048 -2.16311e-06  4.20297e-09      123.565 
         -50     0.001922 -7.91696e-06  1.50675e-08      123.565 
         -50     0.004326 -1.53263e-05  2.80169e-08      123.565 
         -50      0.00769  -2.2047e-05  3.74703e-08      123.565 
         -50     0.012017 -2.62912e-05  3.89184e-08      123.565 
         -50     0.017304 -2.75164e-05  3.01754e-08      123.565 
         -50     0.023553 -2.65501e-05  1.12104e-08      123.565 
         -50     0.030763 -2.49676e-05 -1.73776e-08      123.565 
         -50     0.038936 -2.39771e-05 -5.61682e-08      123.565 
         -50     0.048069  -2.3438e-05 -1.07291e-07      123.565 
         -50     0.058163 -2.19342e-05 -1.72625e-07      123.565 
         -50     0.069219 -1.87646e-05 -2.52388e-07      123.565 
         -50     0.081236 -1.79324e-05 -3.55066e-07      123.565 
         -50     0.094215 -1.53269e-05 -4.79501e-07      123.565 
         -50     0.108155 -1.27093e-05 -6.24922e-07      123.565 
         -50     0.123056 -1.04249e-05 -7.96429e-07      123.565 
         -50     0.138918 -7.75473e-06 -9.94713e-07      123.565 
         -50     0.155744 -4.65654e-06 -1.21993e-06      123.565 
         -50     0.173529 -1.48025e-06 -1.47172e-06      123.565 
         -50     0.192276  1.48651e-06 -1.74912e-06      123.565 
         -50     0.211984  4.37828e-06 -2.04906e-06      123.565 
         -50     0.232655  7.52764e-06 -2.36295e-06      123.565 
         -50     0.254285  1.01974e-05 -2.66933e-06      123.564 
         -50     0.276877  1.29782e-05 -2.97365e-06      123.564 
         -50     0.300431  1.55317e-05 -3.24507e-06      123.564 
         -50     0.324946  1.78747e-05 -3.45127e-06      123.564 
         -50     0.350424  2.00171e-05 -3.60016e-06      123.564 
         -50     0.376861  2.19603e-05 -3.73156e-06      123.564 
         -50      0.40426  2.36985e-05 -3.90316e-06      123.564 
         -50     0.432621  2.52191e-05 -4.17228e-06      123.564 
         -50     0.461945  2.65042e-05 -4.57627e-06      123.564 
         -50     0.492228  2.75331e-05 -5.11611e-06      123.564 
         -50     0.523472  2.82843e-05 -5.75036e-06      123.564 
         -50     0.555678  2.87357e-05 -6.40875e-06      123.564 
         -50     0.588845  2.88619e-05 -7.03872e-06      123.564 
         -50     0.622976  2.86401e-05 -7.56894e-06      123.564 
         -50     0.658066  2.80974e-05 -7.93979e-06      123.564 
         -50     0.694117  2.72428e-05 -8.30581e-06      123.564 
         -50      0.73113  2.60911e-05 -8.67379e-06      123.564 
         -50     0.769107  2.46619e-05 -9.04966e-06      123.563 
         -50     0.808042  2.29788e-05   -9.438e-06      123.563 
         -50     0.847939  2.10682e-05 -9.84203e-06      123.563 
         -50     0.888797  1.89579e-05 -1.02631e-05      123.563 
         -50      0.93062  1.66756e-05 -1.07008e-05      123.563 
         -50       0.9734  1.42479e-05 -1.11522e-05      123.563 
         -50      1.01714  1.16979e-05 -1.16127e-05      123.563 
         -50      1.06185  9.04489e-06 -1.20755e-05      123.562 
         -50      1.10751  6.30312e-06 -1.25321e-05      123.562 
         -50      1.15414  3.48156e-06 -1.29728e-05      123.562 
         -50      1.20173  5.85651e-07 -1.33872e-05      123.562 
         -50      1.25028 -2.38183e-06 -1.37655e-05      123.561 
         -50      1.29979 -5.41608e-06 -1.41001e-05      123.561 
         -50      1.35026 -8.50456e-06 -1.43867e-05      123.561 
         -50       1.4017  -1.1617e-05 -1.46273e-05      123.561 
         -50      1.45409 -1.46943e-05  -1.4833e-05       123.56 
         -50      1.50745 -1.76102e-05 -1.50223e-05       123.56 
         -50      1.56176 -1.97649e-05 -1.50263e-05       123.56 
         -50      1.61705 -2.26168e-05 -1.51077e-05      123.559 
         -50      1.67329 -2.59426e-05 -1.52311e-05      123.559 
         -50      1.73049 -2.95412e-05 -1.53654e-05      123.559 
         -50      1.78865 -3.32345e-05 -1.54838e-05      123.558 
         -50      1.84778 -3.68696e-05 -1.55644e-05      123.558 
         -50      1.90786 -4.03188e-05 -1.55906e-05      123.557 
         -50      1.96891 -4.34818e-05 -1.55513e-05      123.557 
         -50      2.03092 -4.62847e-05 -1.54412e-05      123.556 
         -50      2.09389 -4.86799e-05 -1.52603e-05      123.556 
         -50      2.15782 -5.06442e-05 -1.50146e-05      123.555 
         -50      2.22272 -5.21786e-05 -1.47151e-05      123.555 
         -50      2.28857 -5.33046e-05 -1.43779e-05      123.554 
         -50      2.35539 -5.40624e-05 -1.40235e-05      123.553 
         -50      2.42317 -5.45068e-05 -1.36758e-05      123.553 
         -50      2.49191 -5.47039e-05  -1.3362e-05      123.552 
         -50      2.56161 -5.47267e-05 -1.31106e-05      123.551 
         -50      2.63226 -5.46504e-05 -1.29508e-05      123.551 
         -50      2.70389 -5.45479e-05 -1.29104e-05       123.55 
         -50      2.77648 -5.44846e-05 -1.30148e-05      123.549 
         -50      2.85002 -5.45142e-05 -1.32845e-05      123.548 
         -50      2.92453 -5.46734e-05  -1.3733e-05      123.547 
         -50            3 -5.49786e-05 -1.43649e-05      123.547 
         -25            0 -1.54865e-20  1.52147e-23      118.622 
         -25      0.00048 -1.55967e-06  1.52337e-09      118.622 
         -25     0.001922 -5.70761e-06  5.47249e-09      118.622 
         -25     0.004326 -1.10471e-05  1.02314e-08      118.622 
         -25      0.00769 -1.58882e-05  1.38751e-08      118.622 
         -25     0.012017  -1.8948e-05   1.4949e-08      118.622 
         -25     0.017304  -1.9851e-05  1.29401e-08      118.622 
         -25     0.023553 -1.92216e-05  8.21801e-09      118.622 
         -25     0.030763 -1.82342e-05  1.46345e-09      118.622 
         -25     0.038936 -1.78019e-05 -7.00778e-09      118.622 
         -25     0.048069 -1.78549e-05 -1.73939e-08      118.622 
         -25     0.058163 -1.73816e-05  -2.9732e-08      118.622 
         -25     0.069219 -1.58714e-05 -4.33668e-08      118.622 
         -25     0.081236 -1.62648e-05 -6.06385e-08      118.622 
         -25     0.094215 -1.55655e-05 -8.03039e-08      118.622 
         -25     0.108155 -1.50483e-05 -1.01058e-07      118.622 
         -25     0.123056 -1.49596e-05 -1.23721e-07      118.622 
         -25     0.138918 -1.47545e-05 -1.47695e-07      118.622 
         -25     0.155744 -1.43794e-05 -1.72407e-07      118.622 
         -25     0.173529 -1.40635e-05 -1.97395e-07      118.622 
         -25     0.192276 -1.39888e-05 -2.22404e-07      118.622 
         -25     0.211984 -1.40258e-05 -2.47372e-07      118.622 
         -25     0.232655    -1.39e-05 -2.72318e-07      118.622 
         -25     0.254285 -1.41184e-05 -2.96915e-07      118.622 
         -25     0.276877 -1.42227e-05 -3.22031e-07      118.622 
         -25     0.300431 -1.44414e-05 -3.50183e-07      118.622 
         -25     0.324946 -1.47347e-05 -3.82806e-07      118.622 
         -25     0.350424 -1.50779e-05 -4.20609e-07      118.622 
         -25     0.376861 -1.54602e-05 -4.63315e-07      118.622 
         -25      0.40426 -1.58815e-05 -5.09512e-07      118.622 
         -25     0.432621 -1.63474e-05 -5.56598e-07      118.622 
         -25     0.461945 -1.68634e-05 -6.00977e-07      118.622 
         -25     0.492228   -1.743e-05 -6.38581e-07      118.622 
         -25     0.523472 -1.80397e-05  -6.6589e-07      118.622 
         -25     0.555678 -1.86808e-05 -6.81595e-07      118.622 
         -25     0.588845 -1.93511e-05 -6.89162e-07      118.622 
         -25     0.622976 -2.00549e-05 -7.08677e-07      118.622 
         -25     0.658066 -2.07502e-05 -7.63462e-07      118.622 
         -25     0.694117 -2.14365e-05 -8.36845e-07      118.622 
         -25      0.73113 -2.20933e-05 -9.19797e-07      118.622 
         -25     0.769107 -2.27022e-05 -1.00547e-06      118.622 
         -25     0.808042 -2.32474e-05 -1.08914e-06      118.622 
         -25     0.847939 -2.37165e-05 -1.16812e-06      118.621 
         -25     0.888797 -2.41001e-05 -1.24141e-06      118.621 
         -25      0.93062  -2.4393e-05 -1.30936e-06      118.621 
         -25       0.9734 -2.45934e-05 -1.37314e-06      118.621 
         -25      1.01714 -2.47035e-05 -1.43424e-06      118.621 
         -25      1.06185 -2.47293e-05 -1.49394e-06      118.621 
         -25      1.10751 -2.46801e-05 -1.55283e-06      118.621 
         -25      1.15414 -2.45684e-05  -1.6105e-06      118.621 
         -25      1.20173 -2.44089e-05 -1.66556e-06      118.621 
         -25      1.25028 -2.42184e-05 -1.71603e-06      118.621 
         -25      1.29979 -2.40144e-05 -1.76033e-06      118.621 
         -25      1.35026 -2.38144e-05 -1.79911e-06      118.621 
         -25       1.4017  -2.3635e-05 -1.83809e-06      118.621 
         -25      1.45409 -2.34907e-05  -1.8923e-06       118.62 
         -25      1.50745 -2.34036e-05 -1.99305e-06       118.62 
         -25      1.56176 -2.37372e-05 -2.12534e-06       118.62 
         -25      1.61705 -2.38911e-05 -2.17222e-06       118.62 
         -25      1.67329 -2.39912e-05 -2.17707e-06       118.62 
         -25      1.73049  -2.4138e-05 -2.17423e-06       118.62 
         -25      1.78865 -2.44071e-05 -2.18895e-06       118.62 
         -25      1.84778 -2.48485e-05 -2.23746e-06      118.619 
         -25      1.90786 -2.54881e-05  -2.3273e-06      118.619 
         -25      1.96891 -2.63289e-05 -2.45791e-06      118.619 
         -25      2.03092 -2.73534e-05 -2.62141e-06      118.619 
         -25      2.09389 -2.85258e-05 -2.80364e-06      118.619 
         -25      2.15782 -2.97956e-05 -2.98527e-06      118.619 
         -25      2.22272 -3.11015e-05 -3.14338e-06      118.618 
         -25      2.28857 -3.23754e-05 -3.25292e-06      118.618 
         -25      2.35539 -3.35472e-05 -3.28842e-06      118.618 
         -25      2.42317 -3.45493e-05 -3.22582e-06      118.618 
         -25      2.49191 -3.53217e-05 -3.04426e-06      118.617 
         -25      2.56161 -3.58169e-05 -2.72787e-06      118.617 
         -25      2.63226 -3.60038e-05 -2.26739e-06      118.617 
         -25      2.70389 -3.58721e-05 -1.66157e-06      118.617 
         -25      2.77648 -3.54348e-05 -9.18541e-07      118.616 
         -25      2.85002 -3.47297e-05 -5.61075e-08      118.616 
         -25      2.92453   -3.382e-05  8.97946e-07      118.616 
         -25            3 -3.27913e-05  1.90667e-06      118.615 
           0            0 -1.20844e-15  6.39387e-16      114.498 
           0      0.00048 -3.86771e-05  2.02897e-05      114.498 
           0     0.001922 -0.000133132  6.79043e-05      114.499 
           0     0.004326 -0.000230339  0.000111029        114.5 
           0      0.00769 -0.000276383   0.00011959      114.501 
           0     0.012017 -0.000248577  8.57814e-05      114.502 
           0     0.017304 -0.000169821  3.15123e-05      114.504 
           0     0.023553 -9.37722e-05 -4.92178e-06      114.505 
           0     0.030763 -6.55745e-05  1.74378e-06      114.507 
           0     0.038936 -8.32033e-05     3.75e-05      114.509 
           0     0.048069 -9.71667e-05  5.42142e-05       114.51 
           0     0.058163 -7.13343e-05  2.26868e-05      114.512 
           0     0.069219  -5.7447e-05 -3.07601e-06      114.514 
           0     0.081236 -7.21751e-05  3.06457e-05      114.516 
           0     0.094215 -6.21444e-05  2.01831e-05      114.518 
           0     0.108155 -6.59798e-05  1.69801e-05       114.52 
           0     0.123056  -6.3181e-05  1.52687e-05      114.522 
           0     0.138918 -6.03752e-05  1.49156e-05      114.524 
           0     0.155744 -5.99664e-05  1.52548e-05      114.526 
           0     0.173529  -6.1014e-05  1.54169e-05      114.528 
           0     0.192276  -6.1354e-05  1.48302e-05       114.53 
           0     0.211984 -6.01364e-05  1.37332e-05      114.532 
           0     0.232655 -5.89341e-05  1.33793e-05      114.534 
           0     0.254285  -5.8649e-05  1.40861e-05      114.537 
           0     0.276877 -5.79731e-05   1.3506e-05      114.539 
           0     0.300431 -5.71658e-05  1.32722e-05      114.541 
           0     0.324946 -5.62784e-05  1.31876e-05      114.543 
           0     0.350424 -5.52918e-05  1.31094e-05      114.545 
           0     0.376861 -5.42866e-05  1.30411e-05      114.548 
           0      0.40426 -5.32241e-05   1.2987e-05       114.55 
           0     0.432621 -5.21142e-05  1.29518e-05      114.552 
           0     0.461945 -5.09427e-05  1.29329e-05      114.554 
           0     0.492228 -4.96971e-05  1.29364e-05      114.556 
           0     0.523472 -4.83641e-05  1.29606e-05      114.559 
           0     0.555678 -4.69315e-05  1.30065e-05      114.561 
           0     0.588845 -4.53893e-05  1.30718e-05      114.563 
           0     0.622976 -4.37343e-05    1.316e-05      114.565 
           0     0.658066 -4.19669e-05  1.32688e-05      114.567 
           0     0.694117 -4.00942e-05  1.33939e-05       114.57 
           0      0.73113 -3.81358e-05  1.35418e-05      114.572 
           0     0.769107 -3.61202e-05   1.3702e-05      114.574 
           0     0.808042 -3.40796e-05  1.38809e-05      114.576 
           0     0.847939 -3.20497e-05  1.40671e-05      114.578 
           0     0.888797 -3.00793e-05  1.42682e-05      114.581 
           0      0.93062 -2.82127e-05  1.44744e-05      114.583 
           0       0.9734 -2.64809e-05  1.46829e-05      114.585 
           0      1.01714 -2.49226e-05  1.48879e-05      114.587 
           0      1.06185 -2.35597e-05   1.5094e-05      114.589 
           0      1.10751 -2.23974e-05  1.52979e-05      114.591 
           0      1.15414  -2.1427e-05  1.54897e-05      114.594 
           0      1.20173 -2.06294e-05  1.56643e-05      114.596 
           0      1.25028 -1.99813e-05  1.58465e-05      114.598 
           0      1.29979 -1.94402e-05  1.60039e-05        114.6 
           0      1.35026 -1.89794e-05  1.61693e-05      114.602 
           0       1.4017 -1.85539e-05  1.63161e-05      114.604 
           0      1.45409 -1.81265e-05  1.64388e-05      114.606 
           0      1.50745   -1.767e-05  1.65517e-05      114.608 
           0      1.56176 -1.71621e-05  1.66671e-05       114.61 
           0      1.61705 -1.65799e-05  1.67808e-05      114.612 
           0      1.67329 -1.58956e-05  1.68695e-05      114.614 
           0      1.73049 -1.50724e-05  1.69063e-05      114.616 
           0      1.78865 -1.40982e-05  1.69554e-05      114.618 
           0      1.84778 -1.30021e-05  1.70629e-05       114.62 
           0      1.90786 -1.17872e-05  1.70426e-05      114.622 
           0      1.96891 -1.04922e-05  1.70563e-05      114.624 
           0      2.03092 -9.20846e-06  1.70491e-05      114.626 
           0      2.09389  -8.0155e-06  1.69812e-05      114.628 
           0      2.15782 -6.97788e-06   1.6856e-05       114.63 
           0      2.22272 -6.14735e-06  1.66918e-05      114.632 
           0      2.28857 -5.56531e-06  1.65002e-05      114.634 
           0      2.35539 -5.26307e-06  1.62745e-05      114.635 
           0      2.42317 -5.26049e-06  1.59926e-05      114.637 
           0      2.49191 -5.56195e-06  1.56398e-05      114.639 
           0      2.56161 -6.14883e-06  1.52561e-05      114.641 
           0      2.63226 -6.98208e-06  1.48761e-05      114.643 
           0      2.70389 -8.02969e-06   1.4419e-05      114.644 
           0      2.77648 -9.27401e-06  1.39298e-05      114.646 
           0      2.85002 -1.06923e-05  1.33801e-05      114.648 
           0      2.92453 -1.20146e-05  1.28868e-05      114.649 
           0            3 -1.34626e-05  1.23538e-05      114.651 
          20            0 -1.16424e-20  2.74492e-23      112.159 
          20      0.00048  -1.1714e-06  2.83122e-09      112.159 
          20     0.001922 -4.27495e-06  1.11984e-08      112.159 
          20     0.004326 -8.24084e-06  2.51427e-08      112.159 
          20      0.00769 -1.18077e-05  4.60191e-08      112.159 
          20     0.012017 -1.40914e-05  7.77922e-08      112.159 
          20     0.017304 -1.49861e-05  1.27632e-07      112.159 
          20     0.023553 -1.52249e-05  2.05617e-07      112.159 
          20     0.030763 -1.59898e-05  3.23312e-07      112.159 
          20     0.038936 -1.82256e-05  4.92271e-07      112.159 
          20     0.048069 -2.20294e-05  7.23197e-07      112.159 
          20     0.058163 -2.66787e-05  1.02694e-06      112.159 
          20     0.069219 -3.18141e-05  1.41502e-06      112.159 
          20     0.081236 -3.98467e-05   1.8925e-06      112.159 
          20     0.094215 -4.82341e-05  2.46929e-06      112.159 
          20     0.108155 -5.78875e-05  3.15467e-06      112.159 
          20     0.123056 -6.88189e-05  3.95148e-06      112.159 
          20     0.138918 -8.03448e-05  4.86368e-06      112.159 
          20     0.155744 -9.21551e-05  5.89407e-06      112.159 
          20     0.173529 -0.000104153  7.04322e-06      112.159 
          20     0.192276 -0.000116216  8.31024e-06      112.159 
          20     0.211984 -0.000127987    9.692e-06      112.159 
          20     0.232655 -0.000139024  1.11845e-05      112.159 
          20     0.254285 -0.000149579  1.27846e-05      112.159 
          20     0.276877 -0.000159211  1.44835e-05      112.159 
          20     0.300431 -0.000168032  1.62708e-05      112.159 
          20     0.324946 -0.000176111  1.81363e-05      112.159 
          20     0.350424 -0.000183579  2.00665e-05      112.159 
          20     0.376861 -0.000190602  2.20433e-05      112.159 
          20      0.40426 -0.000197421  2.40484e-05      112.159 
          20     0.432621 -0.000204238  2.60627e-05      112.159 
          20     0.461945 -0.000211209  2.80677e-05      112.159 
          20     0.492228 -0.000218414  3.00471e-05      112.159 
          20     0.523472 -0.000225824  3.19894e-05      112.159 
          20     0.555678 -0.000233281  3.38897e-05      112.159 
          20     0.588845 -0.000240489  3.57506e-05      112.159 
          20     0.622976 -0.000247032  3.75827e-05      112.159 
          20     0.658066 -0.000252431  3.94023e-05      112.159 
          20     0.694117 -0.000256255   4.1228e-05      112.159 
          20      0.73113  -0.00025831  4.30716e-05      112.159 
          20     0.769107 -0.000258433  4.49496e-05      112.158 
          20     0.808042  -0.00025657  4.68604e-05      112.158 
          20     0.847939 -0.000252869  4.88004e-05      112.158 
          20     0.888797 -0.000247541  5.07615e-05      112.158 
          20      0.93062 -0.000240844  5.27306e-05      112.158 
          20       0.9734 -0.000233059  5.46905e-05      112.158 
          20      1.01714 -0.000224453  5.66233e-05      112.158 
          20      1.06185 -0.000215253  5.85156e-05      112.158 
          20      1.10751 -0.000205647  6.03489e-05      112.158 
          20      1.15414 -0.000195768  6.21087e-05      112.157 
          20      1.20173 -0.000185704  6.37859e-05      112.157 
          20      1.25028 -0.000175541  6.53697e-05      112.157 
          20      1.29979 -0.000165304   6.6851e-05      112.157 
          20      1.35026 -0.000155031  6.82205e-05      112.157 
          20       1.4017 -0.000144749  6.94713e-05      112.157 
          20      1.45409 -0.000134478   7.0597e-05      112.156 
          20      1.50745 -0.000124235  7.15914e-05      112.156 
          20      1.56176 -0.000114046   7.2448e-05      112.156 
          20      1.61705 -0.000103953  7.31621e-05      112.156 
          20      1.67329  -9.4012e-05  7.37312e-05      112.156 
          20      1.73049 -8.42549e-05  7.41506e-05      112.155 
          20      1.78865 -7.47668e-05  7.44134e-05      112.155 
          20      1.84778 -6.55728e-05  7.45314e-05      112.155 
          20      1.90786 -5.67531e-05  7.44984e-05      112.154 
          20      1.96891 -4.83473e-05  7.43157e-05      112.154 
          20      2.03092 -4.03985e-05  7.39869e-05      112.154 
          20      2.09389 -3.29502e-05   7.3518e-05      112.154 
          20      2.15782 -2.60523e-05  7.29186e-05      112.153 
          20      2.22272 -1.97265e-05  7.21953e-05      112.153 
          20      2.28857 -1.39898e-05  7.13483e-05      112.153 
          20      2.35539 -8.86796e-06   7.0381e-05      112.152 
          20      2.42317 -4.37235e-06  6.92991e-05      112.152 
          20      2.49191 -4.81958e-07  6.81133e-05      112.151 
          20      2.56161  2.82362e-06  6.68285e-05      112.151 
          20      2.63226  5.53682e-06  6.54494e-05      112.151 
          20      2.70389   7.7638e-06  6.40041e-05       112.15 
          20      2.77648  9.53802e-06  6.25145e-05       112.15 
          20      2.85002  1.09747e-05  6.09964e-05      112.149 
          20      2.92453  1.22079e-05  5.95387e-05      112.149 
          20            3  1.33599e-05  5.82058e-05      112.148 
          40            0           -0           -0      109.551 
          40      0.00048  3.35476e-07   4.1608e-10      109.551 
          40     0.001922  1.69053e-06  2.22369e-09      109.551 
          40     0.004326  4.94781e-06  7.19015e-09      109.551 
          40      0.00769   1.1104e-05  1.85286e-08      109.551 
          40     0.012017  2.07791e-05  4.12264e-08      109.551 
          40     0.017304  3.38262e-05   8.2257e-08      109.551 
          40     0.023553  4.93102e-05  1.50746e-07      109.551 
          40     0.030763  6.58386e-05   2.5787e-07      109.551 
          40     0.038936  8.21939e-05  4.16765e-07      109.551 
          40     0.048069   9.7864e-05  6.42238e-07      109.551 
          40     0.058163  0.000113039  9.50849e-07      109.551 
          40     0.069219  0.000127561  1.36062e-06      109.551 
          40     0.081236   0.00013882  1.88965e-06      109.551 
          40     0.094215  0.000148637  2.55709e-06      109.551 
          40     0.108155  0.000155786  3.38144e-06      109.551 
          40     0.123056  0.000159917  4.37985e-06      109.551 
          40     0.138918  0.000161368  5.56775e-06      109.551 
          40     0.155744  0.000160234  6.95825e-06      109.551 
          40     0.173529  0.000156517  8.56088e-06      109.551 
          40     0.192276  0.000150347  1.03827e-05      109.551 
          40     0.211984  0.000142164  1.24272e-05      109.551 
          40     0.232655  0.000132569  1.46947e-05      109.551 
          40     0.254285  0.000121637  1.71803e-05      109.551 
          40     0.276877   0.00011016  1.98812e-05      109.551 
          40     0.300431  9.84209e-05  2.27888e-05      109.551 
          40     0.324946  8.68706e-05  2.58912e-05      109.551 
          40     0.350424  7.59114e-05  2.91774e-05      109.551 
          40     0.376861   6.5888e-05  3.26357e-05      109.551 
          40      0.40426  5.70717e-05  3.62551e-05      109.551 
          40     0.432621  4.96598e-05  4.00234e-05      109.551 
          40     0.461945  4.37748e-05   4.3927e-05      109.551 
          40     0.492228  3.94687e-05  4.79502e-05      109.551 
          40     0.523472  3.67255e-05  5.20773e-05      109.551 
          40     0.555678  3.54641e-05  5.62934e-05      109.551 
          40     0.588845  3.55279e-05  6.05891e-05      109.551 
          40     0.622976  3.66729e-05  6.49613e-05      109.551 
          40     0.658066  3.87096e-05  6.93579e-05      109.551 
          40     0.694117   4.1332e-05  7.37658e-05      109.551 
          40      0.73113   4.4223e-05  7.81809e-05      109.551 
          40     0.769107  4.71033e-05   8.2595e-05      109.551 
          40     0.808042  4.97359e-05  8.69952e-05      109.551 
          40     0.847939  5.19319e-05  9.13672e-05      109.551 
          40     0.888797  5.35502e-05   9.5694e-05      109.551 
          40      0.93062  5.44981e-05  9.99585e-05      109.551 
          40       0.9734   5.4728e-05  0.000104143      109.551 
          40      1.01714  5.42331e-05  0.000108234      109.551 
          40      1.06185  5.30406e-05  0.000112217      109.551 
          40      1.10751  5.12035e-05  0.000116085      109.551 
          40      1.15414  4.87921e-05  0.000119832      109.551 
          40      1.20173  4.58861e-05  0.000123454      109.551 
          40      1.25028   4.2566e-05  0.000126949      109.551 
          40      1.29979  3.89099e-05  0.000130308       109.55 
          40      1.35026  3.49926e-05  0.000133513       109.55 
          40       1.4017  3.08947e-05  0.000136522       109.55 
          40      1.45409  2.67166e-05  0.000139263       109.55 
          40      1.50745   2.2593e-05  0.000141615       109.55 
          40      1.56176  1.78382e-05  0.000143968       109.55 
          40      1.61705  1.32891e-05  0.000146117       109.55 
          40      1.67329  8.86672e-06  0.000148026       109.55 
          40      1.73049  4.51026e-06  0.000149666       109.55 
          40      1.78865  1.79387e-07  0.000151016       109.55 
          40      1.84778 -4.14663e-06  0.000152064       109.55 
          40      1.90786  -8.4683e-06  0.000152802       109.55 
          40      1.96891 -1.27692e-05  0.000153233       109.55 
          40      2.03092 -1.70158e-05  0.000153366       109.55 
          40      2.09389 -2.11609e-05  0.000153215       109.55 
          40      2.15782  -2.5144e-05    0.0001528       109.55 
          40      2.22272 -2.88976e-05  0.000152148       109.55 
          40      2.28857 -3.23478e-05  0.000151287       109.55 
          40      2.35539   -3.542e-05  0.000150248       109.55 
          40      2.42317 -3.80418e-05  0.000149063       109.55 
          40      2.49191 -4.01477e-05  0.000147766       109.55 
          40      2.56161 -4.16836e-05  0.000146386       109.55 
          40      2.63226 -4.26111e-05  0.000144951       109.55 
          40      2.70389  -4.2911e-05  0.000143483      109.549 
          40      2.77648 -4.25875e-05     0.000142      109.549 
          40      2.85002 -4.16706e-05  0.000140511      109.549 
          40      2.92453  -4.0218e-05  0.000139017      109.549 
          40            3 -3.83162e-05  0.000137512      109.549 
          60            0           -0           -0      107.109 
          60      0.00048 -2.64968e-07  3.13913e-10      107.109 
          60     0.001922 -7.29195e-07  2.58393e-09      107.109 
          60     0.004326   -5.495e-07  1.08079e-08      107.109 
          60      0.00769  1.22855e-06  3.16588e-08      107.109 
          60     0.012017  5.19479e-06  7.45021e-08      107.109 
          60     0.017304  1.12205e-05  1.51186e-07      107.109 
          60     0.023553  1.84337e-05  2.75856e-07      107.109 
          60     0.030763  2.55574e-05  4.64413e-07      107.109 
          60     0.038936  3.15183e-05  7.34073e-07      107.109 
          60     0.048069  3.59695e-05  1.10252e-06      107.109 
          60     0.058163  3.92736e-05  1.58759e-06      107.109 
          60     0.069219  4.14905e-05  2.20657e-06      107.109 
          60     0.081236  4.03753e-05  2.97484e-06      107.109 
          60     0.094215  3.79566e-05  3.90622e-06      107.109 
          60     0.108155  3.33476e-05  5.01157e-06      107.109 
          60     0.123056   2.6506e-05  6.29849e-06      107.109 
          60     0.138918  1.80274e-05   7.7711e-06      107.109 
          60     0.155744  8.24158e-06  9.43008e-06      107.109 
          60     0.173529 -2.65482e-06  1.12718e-05      107.109 
          60     0.192276 -1.44005e-05  1.32903e-05      107.109 
          60     0.211984 -2.65019e-05  1.54765e-05      107.109 
          60     0.232655 -3.83738e-05  1.78199e-05      107.109 
          60     0.254285 -4.99996e-05  2.03068e-05      107.109 
          60     0.276877 -6.07254e-05  2.29267e-05      107.109 
          60     0.300431 -7.04264e-05   2.5667e-05      107.109 
          60     0.324946  -7.8852e-05  2.85153e-05      107.109 
          60     0.350424 -8.57996e-05  3.14624e-05      107.109 
          60     0.376861  -9.1114e-05  3.45008e-05      107.109 
          60      0.40426 -9.46869e-05  3.76265e-05      107.109 
          60     0.432621 -9.64471e-05  4.08368e-05      107.109 
          60     0.461945 -9.63515e-05  4.41302e-05      107.109 
          60     0.492228  -9.4377e-05  4.75048e-05      107.109 
          60     0.523472 -9.05168e-05  5.09592e-05      107.109 
          60     0.555678   -8.479e-05  5.44925e-05      107.109 
          60     0.588845 -7.72733e-05  5.81059e-05      107.109 
          60     0.622976 -6.82293e-05   6.1797e-05      107.109 
          60     0.658066 -5.76479e-05  6.55405e-05      107.109 
          60     0.694117 -4.57659e-05  6.93294e-05      107.109 
          60      0.73113 -3.31148e-05  7.31447e-05      107.109 
          60     0.769107 -2.02204e-05  7.69625e-05      107.109 
          60     0.808042 -7.58893e-06  8.07544e-05      107.109 
          60     0.847939  4.31667e-06    8.449e-05      107.109 
          60     0.888797  1.50895e-05  8.81378e-05      107.109 
          60      0.93062  2.43987e-05  9.16671e-05      107.109 
          60       0.9734  3.20013e-05  9.50491e-05      107.109 
          60      1.01714  3.77605e-05  9.82605e-05      107.109 
          60      1.06185  4.16506e-05  0.000101284      107.109 
          60      1.10751  4.37622e-05  0.000104109      107.109 
          60      1.15414   4.4298e-05  0.000106734      107.109 
          60      1.20173  4.35589e-05  0.000109164      107.109 
          60      1.25028  4.19194e-05   0.00011141      107.109 
          60      1.29979  3.97858e-05  0.000113484      107.109 