Variables = x, y, u, v, p

Zone, I=416, F=POINT
         -50            0            0            0      -14.462 
         -50     0.013333 -7.11731e-05 -1.75986e-08      -14.462 
         -50     0.053333 -5.67847e-05 -4.12482e-08      -14.462 
         -50         0.12 -5.07949e-05 -6.33131e-08      -14.462 
         -50     0.213332 -4.40305e-05 -1.78499e-07     -14.4619 
         -50     0.333332 -3.53748e-05 -5.24156e-07     -14.4619 
         -50         0.48  -2.6567e-05 -5.66181e-07     -14.4619 
         -50     0.653331 -2.02159e-05 -1.55662e-06     -14.4619 
         -50     0.853332 -1.82024e-05 -1.75154e-06     -14.4618 
         -50         1.08  -1.8828e-05 -2.22293e-06     -14.4617 
         -50      1.33333 -1.92989e-05 -3.40256e-06     -14.4615 
         -50      1.61333 -1.99041e-05 -3.59162e-06     -14.4613 
         -50         1.92 -2.68393e-05 -4.76889e-06     -14.4611 
         -50      2.25333 -3.32864e-05 -3.84408e-06     -14.4607 
         -50      2.61333 -3.34628e-05 -1.64646e-06     -14.4603 
         -50            3 -3.16866e-05 -1.64119e-06     -14.4598 
         -25            0 -6.74973e-20  -3.7625e-24     -13.8747 
         -25     0.013333 -4.67329e-05 -1.13348e-08     -13.8747 
         -25     0.053333  -2.3011e-05 -7.42641e-08     -13.8747 
         -25         0.12 -5.88109e-06 -1.33071e-07     -13.8747 
         -25     0.213332  2.19034e-06  9.29782e-08     -13.8747 
         -25     0.333332  1.69489e-06  8.72844e-07     -13.8747 
         -25         0.48 -1.17263e-06  2.17712e-06     -13.8747 
         -25     0.653331  -3.8985e-06  3.69434e-06     -13.8747 
         -25     0.853332 -8.43266e-06  5.09197e-06     -13.8747 
         -25         1.08 -1.44522e-05  6.21734e-06     -13.8746 
         -25      1.33333 -2.00206e-05  7.16116e-06     -13.8746 
         -25      1.61333 -2.40987e-05  7.95418e-06     -13.8745 
         -25         1.92 -2.63266e-05  7.76776e-06     -13.8744 
         -25      2.25333 -3.17706e-05  8.21591e-06     -13.8743 
         -25      2.61333 -3.18012e-05  1.08271e-05     -13.8741 
         -25            3 -2.18234e-05  1.42118e-05     -13.8739 
           0            0 -7.80843e-16  5.11559e-16     -13.3859 
           0     0.013333 -0.000161805  0.000107851     -13.3869 
           0     0.053333 -0.000129613  5.15842e-05     -13.3879 
           0         0.12 -0.000143157  3.64675e-05     -13.3891 
           0     0.213332  -0.00015406  3.03443e-05     -13.3904 
           0     0.333332 -0.000152243  2.77229e-05     -13.3918 
           0         0.48 -0.000142893  2.56684e-05     -13.3932 
           0     0.653331  -0.00013159  2.41352e-05     -13.3946 
           0     0.853332 -0.000116309  2.31788e-05      -13.396 
           0         1.08 -9.71322e-05  2.26958e-05     -13.3973 
           0      1.33333 -7.73053e-05  2.23262e-05     -13.3987 
           0      1.61333 -5.71118e-05  2.18529e-05        -13.4 
           0         1.92 -3.69434e-05  2.13012e-05     -13.4012 
           0      2.25333 -1.63972e-05  2.09977e-05     -13.4024 
           0      2.61333  1.85413e-06  2.08757e-05     -13.4036 
           0            3  1.10724e-05  2.04028e-05     -13.4046 
          20            0 -5.13861e-20 -6.65927e-24       -13.11 
          20     0.013333 -2.98919e-05  9.02019e-08       -13.11 
          20     0.053333 -1.55033e-05  1.49083e-06       -13.11 
          20         0.12 -6.14785e-05  6.84358e-06       -13.11 
          20     0.213332 -0.000149024  1.83304e-05       -13.11 
          20     0.333332 -0.000223225  3.58587e-05       -13.11 
          20         0.48 -0.000283269  5.62313e-05       -13.11 
          20     0.653331 -0.000347437  7.58816e-05     -13.1099 
          20     0.853332   -0.0003503  9.63712e-05     -13.1099 
          20         1.08 -0.000289763  0.000117533     -13.1098 
          20      1.33333 -0.000216352  0.000135302     -13.1097 
          20      1.61333 -0.000144577  0.000146752     -13.1096 
          20         1.92  -7.6868e-05  0.000150468     -13.1094 
          20      2.25333 -1.83074e-05  0.000146421     -13.1092 
          20      2.61333  2.12056e-05  0.000136094      -13.109 
          20            3  4.19172e-05  0.000123604     -13.1087 
          40            0           -0           -0     -12.8014 
          40     0.013333 -2.07476e-05    1.068e-07     -12.8014 
          40     0.053333   3.7731e-06   1.6001e-06     -12.8014 
          40         0.12 -3.18477e-05  7.05493e-06     -12.8014 
          40     0.213332 -0.000122481  1.81765e-05     -12.8014 
          40     0.333332 -0.000214225  3.44607e-05     -12.8014 
          40         0.48 -0.000263558  5.44574e-05     -12.8014 
          40     0.653331 -0.000260275  7.75345e-05     -12.8014 
          40     0.853332 -0.000215616  0.000103395     -12.8014 
          40         1.08 -0.000157453   0.00012986     -12.8014 
          40      1.33333 -0.000109744  0.000153003     -12.8013 
          40      1.61333 -7.20746e-05  0.000169439     -12.8013 
          40         1.92 -3.74306e-05  0.000177017     -12.8013 
          40      2.25333 -8.86088e-06  0.000175931     -12.8013 
          40      2.61333  1.15983e-05  0.000167355     -12.8012 
          40            3  2.25858e-05  0.000153099     -12.8012 
          60            0           -0           -0     -12.5123 
          60     0.013333 -1.71606e-05  1.01813e-07     -12.5123 
          60     0.053333  1.29972e-05  1.54625e-06     -12.5123 
          60         0.12 -1.54976e-05  6.94907e-06     -12.5123 
          60     0.213332 -0.000100721  1.81408e-05     -12.5123 
          60     0.333332 -0.000185876  3.44892e-05     -12.5123 
          60         0.48 -0.000222358  5.41419e-05     -12.5123 
          60     0.653331 -0.000198583  7.60156e-05     -12.5123 
          60     0.853332 -0.000134637  9.89839e-05     -12.5123 
          60         1.08 -7.92161e-05  0.000120218     -12.5123 
          60      1.33333  -5.4042e-05  0.000137015     -12.5123 
          60      1.61333 -3.88096e-05  0.000148288     -12.5123 
          60         1.92 -2.42408e-05  0.000152637     -12.5123 
          60      2.25333 -9.78737e-06  0.000150401     -12.5123 
          60      2.61333  3.35416e-06  0.000141682     -12.5123 
          60            3  9.67783e-06  0.000126571     -12.5122 
          80            0           -0           -0     -12.2327 
          80     0.013333 -3.00846e-05  1.10843e-07     -12.2327 
          80     0.053333  -3.4766e-05  1.61783e-06     -12.2327 
          80         0.12  -9.8797e-05  6.90991e-06     -12.2327 
          80     0.213332 -0.000201006  1.71027e-05     -12.2327 
          80     0.333332 -0.000285819  3.10288e-05     -12.2327 
          80         0.48 -0.000320261  4.71368e-05     -12.2327 
          80     0.653331 -0.000297385  6.53355e-05     -12.2327 
          80     0.853332 -0.000224571  8.56876e-05     -12.2327 
          80         1.08 -0.000150804  0.000105345     -12.2327 
          80      1.33333 -0.000110612  0.000120879     -12.2327 
          80      1.61333 -7.58337e-05  0.000131418     -12.2327 
          80         1.92 -3.70887e-05  0.000136386     -12.2327 
          80      2.25333 -6.26542e-06  0.000135078     -12.2327 
          80      2.61333  1.02394e-05  0.000127887     -12.2327 
          80            3  1.42376e-05  0.000116294     -12.2326 
         100            0 -4.84125e-20 -1.85605e-25     -11.9588 
         100     0.013333 -4.17753e-05  6.49436e-08     -11.9588 
         100     0.053333 -6.53987e-05  9.06408e-07     -11.9588 
         100         0.12  -0.00012203  3.62033e-06     -11.9588 
         100     0.213332 -0.000183187  8.26891e-06     -11.9588 
         100     0.333332 -0.000219032  1.38021e-05     -11.9588 
         100         0.48 -0.000225366  1.94934e-05     -11.9588 
         100     0.653331 -0.000208264  2.58384e-05     -11.9588 
         100     0.853332 -0.000165901  3.38251e-05     -11.9588 
         100         1.08  -0.00011468  4.26757e-05     -11.9588 
         100      1.33333 -7.95985e-05  5.03327e-05     -11.9588 
         100      1.61333 -5.02223e-05  5.58653e-05     -11.9588 
         100         1.92 -2.22031e-05  5.89577e-05     -11.9588 
         100      2.25333  2.03259e-07  5.93673e-05     -11.9588 
         100      2.61333  1.49968e-05  5.71107e-05     -11.9588 
         100            3  2.26486e-05  5.31713e-05     -11.9588 
         150            0           -0           -0     -11.2875 
         150     0.013333 -5.77909e-05  4.49431e-09     -11.2875 
         150     0.053333 -0.000110971  1.83132e-08     -11.2875 
         150         0.12 -0.000173492 -2.51025e-07     -11.2875 
         150     0.213332 -0.000206908 -1.70611e-06     -11.2875 
         150     0.333332 -0.000200312 -5.38372e-06     -11.2875 
         150         0.48  -0.00017211 -1.15873e-05     -11.2875 
         150     0.653331 -0.000144873 -1.97554e-05     -11.2875 
         150     0.853332 -0.000125595  -2.8991e-05     -11.2875 
         150         1.08 -0.000109791 -3.85675e-05     -11.2875 
         150      1.33333  -9.1193e-05 -4.76652e-05     -11.2875 
         150      1.61333 -6.87239e-05 -5.54767e-05     -11.2875 
         150         1.92 -4.61745e-05 -6.13712e-05     -11.2875 
         150      2.25333 -2.30626e-05 -6.45267e-05     -11.2875 
         150      2.61333 -2.46859e-06 -6.50533e-05     -11.2875 
         150            3  7.81464e-06 -6.37754e-05     -11.2875 
         200            0            0            0      -10.625 
         200     0.013333 -7.44971e-05 -4.93439e-08      -10.625 
         200     0.053333 -0.000157411 -8.02273e-07      -10.625 
         200         0.12 -0.000223623 -3.98461e-06      -10.625 
         200     0.213332 -0.000224618 -1.16099e-05      -10.625 
         200     0.333332 -0.000176321 -2.45355e-05      -10.625 
         200         0.48 -0.000125901 -4.21173e-05      -10.625 
         200     0.653331 -0.000105732 -6.32042e-05      -10.625 
         200     0.853332 -0.000116337 -8.64604e-05      -10.625 
         200         1.08 -0.000127866 -0.000109648      -10.625 
         200      1.33333 -0.000114998  -0.00013012      -10.625 
         200      1.61333  -8.9941e-05 -0.000146521      -10.625 
         200         1.92 -6.56169e-05 -0.000157949      -10.625 
         200      2.25333 -4.14793e-05 -0.000163065      -10.625 
         200      2.61333 -2.03098e-05 -0.000161677      -10.625 
         200            3 -6.86212e-06 -0.000154436      -10.625 
         250            0           -0           -0     -9.96605 
         250     0.013333 -6.75046e-05 -5.58498e-10     -9.96605 
         250     0.053333 -0.000144572 -8.36757e-08     -9.96605 
         250         0.12 -0.000229656 -8.51657e-07     -9.96605 
         250     0.213332 -0.000273425  -3.6373e-06     -9.96605 
         250     0.333332 -0.000268361 -9.60864e-06     -9.96605 
         250         0.48  -0.00024386 -1.87385e-05     -9.96605 
         250     0.653331 -0.000226862 -2.99131e-05     -9.96605 
         250     0.853332 -0.000215902 -4.15564e-05     -9.96605 
         250         1.08 -0.000193891 -5.22742e-05     -9.96605 
         250      1.33333 -0.000158538 -6.13833e-05     -9.96604 
         250      1.61333 -0.000120659 -6.87966e-05     -9.96604 
         250         1.92 -8.32686e-05 -7.41679e-05     -9.96604 
         250      2.25333 -4.69313e-05 -7.67554e-05     -9.96604 
         250      2.61333 -1.42714e-05 -7.64259e-05     -9.96603 
         250            3  1.03699e-05  -7.3377e-05     -9.96603 
         300            0            0            0     -9.30872 
         300     0.013333 -6.53533e-05 -3.68946e-08     -9.30872 
         300     0.053333 -0.000130142 -5.94677e-07     -9.30872 
         300         0.12  -0.00018822  -2.9169e-06     -9.30872 
         300     0.213332 -0.000203058 -8.37998e-06     -9.30872 
         300     0.333332 -0.000184614 -1.74737e-05     -9.30872 
         300         0.48 -0.000164422 -2.97141e-05     -9.30872 
         300     0.653331 -0.000164776 -4.44714e-05     -9.30872 
         300     0.853332 -0.000186953 -6.10562e-05     -9.30872 
         300         1.08 -0.000205696 -7.78254e-05     -9.30872 
         300      1.33333 -0.000192874  -9.2547e-05     -9.30872 
         300      1.61333 -0.000158946 -0.000104288     -9.30872 
         300         1.92 -0.000123286 -0.000112919     -9.30872 
         300      2.25333 -8.67713e-05 -0.000117677     -9.30872 
         300      2.61333 -5.03291e-05 -0.000118106     -9.30871 
         300            3 -1.86275e-05 -0.000114307     -9.30871 
         350            0           -0           -0     -8.65235 
         350     0.013333 -1.12984e-06  -7.3175e-08     -8.65235 
         350     0.053333  0.000106507 -1.01547e-06     -8.65235 
         350         0.12  0.000264201 -4.02722e-06     -8.65235 
         350     0.213332  0.000420778 -8.99905e-06     -8.65235 
         350     0.333332  0.000518319 -1.42111e-05     -8.65235 
         350         0.48    0.0005469 -1.80501e-05     -8.65235 
         350     0.653331  0.000532471 -2.05622e-05     -8.65235 
         350     0.853332  0.000488793 -2.32595e-05     -8.65235 
         350         1.08  0.000412521 -2.74154e-05     -8.65235 
         350      1.33333  0.000320617 -3.24701e-05     -8.65235 
         350      1.61333  0.000235988 -3.68224e-05     -8.65235 
         350         1.92  0.000151343  -3.9888e-05     -8.65236 
         350      2.25333  6.28065e-05 -4.17296e-05     -8.65236 
         350      2.61333  -2.2273e-05 -4.20769e-05     -8.65237 
         350            3 -9.18464e-05 -4.08619e-05     -8.65238 
         400            0           -0           -0     -7.99712 
         400     0.013333 -2.98483e-05 -6.59293e-08     -7.99712 
         400     0.053333  3.81157e-06 -9.60209e-07     -7.99712 
         400         0.12  7.71393e-05 -4.13153e-06     -7.99712 
         400     0.213332  0.000179658 -1.03723e-05     -7.99712 
         400     0.333332  0.000268916 -1.90555e-05     -7.99712 
         400         0.48  0.000316578 -2.89115e-05     -7.99712 
         400     0.653331  0.000323775  -3.9334e-05     -7.99712 
         400     0.853332  0.000298354   -5.072e-05     -7.99712 
         400         1.08  0.000243875  -6.3514e-05     -7.99712 
         400      1.33333  0.000179104 -7.68337e-05     -7.99712 
         400      1.61333   0.00012688 -8.88001e-05     -7.99712 
         400         1.92  7.99715e-05 -9.83571e-05     -7.99712 
         400      2.25333  3.12313e-05 -0.000104981     -7.99713 
         400      2.61333 -1.72351e-05 -0.000108145     -7.99713 
         400            3 -5.96854e-05 -0.000107597     -7.99714 
         450            0            0            0     -7.34271 
         450     0.013333 -5.90939e-05  3.34152e-08     -7.34271 
         450     0.053333 -0.000127969   4.6672e-07     -7.34271 
         450         0.12 -0.000238343   1.8711e-06     -7.34271 
         450     0.213332 -0.000351642  4.22728e-06     -7.34271 
         450     0.333332 -0.000428992  6.66057e-06     -7.34271 
         450         0.48 -0.000457475   8.1077e-06     -7.34271 
         450     0.653331 -0.000451805  8.13691e-06     -7.34271 
         450     0.853332 -0.000429827  7.07735e-06     -7.34271 
         450         1.08 -0.000396831  5.57534e-06     -7.34271 
         450      1.33333 -0.000350709  4.13529e-06     -7.34271 
         450      1.61333 -0.000292923  3.01767e-06     -7.34271 
         450         1.92 -0.000228803  1.79783e-06     -7.34271 
         450      2.25333 -0.000159608  9.05913e-07     -7.34271 
         450      2.61333 -8.86143e-05  5.52715e-08      -7.3427 
         450            3 -2.30871e-05 -9.55477e-07      -7.3427 
         500            0           -0           -0     -6.68857 
         500     0.013333  -1.3984e-05 -6.63218e-09     -6.68857 
         500     0.053333   4.4931e-05 -6.66559e-08     -6.68857 
         500         0.12   0.00011266 -1.00233e-07     -6.68857 
         500     0.213332  0.000169438  2.92814e-07     -6.68857 
         500     0.333332  0.000204662  1.56884e-06     -6.68857 
         500         0.48  0.000224557  3.86737e-06     -6.68857 
         500     0.653331  0.000240351  7.01446e-06     -6.68857 
         500     0.853332  0.000255049  1.05702e-05     -6.68857 
         500         1.08  0.000256158  1.36565e-05     -6.68857 
         500      1.33333  0.000229039  1.53232e-05     -6.68857 
         500      1.61333  0.000182544  1.55452e-05     -6.68857 
         500         1.92  0.000134446  1.50966e-05     -6.68857 
         500      2.25333  8.47788e-05  1.40489e-05     -6.68857 
         500      2.61333     3.39e-05  1.25308e-05     -6.68857 
         500            3 -1.34221e-05  1.06633e-05     -6.68858 
         550            0            0            0     -6.03529 
         550     0.013333  3.14535e-05 -3.26305e-09     -6.03529 
         550     0.053333  0.000204205  5.14888e-08     -6.03529 
         550         0.12  0.000393264  9.05552e-07     -6.03529 
         550     0.213332  0.000509779  4.55684e-06     -6.03529 
         550     0.333332  0.000515549  1.33326e-05     -6.03529 
         550         0.48  0.000449589  2.81186e-05     -6.03529 
         550     0.653331  0.000377464  4.78247e-05     -6.03529 
         550     0.853332  0.000330699  7.02869e-05     -6.03529 
         550         1.08  0.000294274  9.31325e-05     -6.03529 
         550      1.33333    0.0002439  0.000114645     -6.03529 
         550      1.61333  0.000183474  0.000134348     -6.03529 
         550         1.92  0.000124672  0.000151909     -6.03529 
         550      2.25333  6.48902e-05  0.000166489     -6.03529 
         550      2.61333  4.05451e-06  0.000176698      -6.0353 
         550            3 -5.24799e-05  0.000181562     -6.03531 
         600            0           -0           -0     -5.38313 
         600     0.013333 -0.000128509 -3.33261e-08     -5.38313 
         600     0.053333 -0.000355433 -6.22561e-07     -5.38313 
         600         0.12 -0.000596997 -3.62341e-06     -5.38313 
         600     0.213332 -0.000723104 -1.22397e-05     -5.38313 
         600     0.333332 -0.000699419 -2.93129e-05     -5.38313 
         600         0.48  -0.00059343 -5.53907e-05     -5.38313 
         600     0.653331 -0.000496077 -8.88083e-05     -5.38313 
         600     0.853332 -0.000450945  -0.00012712     -5.38313 
         600         1.08 -0.000441267 -0.000167612     -5.38313 
         600      1.33333 -0.000417386 -0.000207155     -5.38313 
         600      1.61333 -0.000354634 -0.000243189     -5.38313 
         600         1.92 -0.000276871 -0.000274599     -5.38313 
         600      2.25333 -0.000196998 -0.000300166     -5.38312 
         600      2.61333 -0.000117171 -0.000318087     -5.38312 
         600            3 -4.04308e-05 -0.000326764     -5.38311 
         650            0            0            0     -4.73102 
         650     0.013333   7.2916e-05 -2.73627e-08     -4.73102 
         650     0.053333  0.000364009 -2.89351e-07     -4.73102 
         650         0.12  0.000724503 -4.90514e-07     -4.73102 
         650     0.213332   0.00101946  1.33009e-06     -4.73102 
         650     0.333332   0.00115902  8.24616e-06     -4.73102 
         650         0.48   0.00115585  2.24008e-05     -4.73102 
         650     0.653331   0.00108828  4.37692e-05     -4.73102 
         650     0.853332   0.00102161  7.05951e-05     -4.73102 
         650         1.08  0.000963591  0.000100199     -4.73102 
         650      1.33333  0.000879919  0.000129587     -4.73102 
         650      1.61333  0.000750983   0.00015661     -4.73102 
         650         1.92  0.000597715  0.000180673     -4.73102 
         650      2.25333  0.000433172  0.000201011     -4.73103 
         650      2.61333  0.000261533  0.000216426     -4.73104 
         650            3  9.00919e-05   0.00022569     -4.73105 
         700            0           -0           -0     -4.08087 
         700     0.013333 -2.20493e-05  9.56789e-08     -4.08087 
         700     0.053333 -1.66134e-05  1.44303e-06     -4.08087 
         700         0.12 -9.58888e-05  6.58451e-06     -4.08087 
         700     0.213332 -0.000278345   1.7893e-05     -4.08087 
         700     0.333332  -0.00051033  3.59656e-05     -4.08087 
         700         0.48 -0.000711032   5.9445e-05     -4.08087 
         700     0.653331  -0.00083476  8.63665e-05     -4.08087 
         700     0.853332 -0.000878737  0.000115548     -4.08087 
         700         1.08 -0.000853087  0.000146885     -4.08087 
         700      1.33333 -0.000770446  0.000180226     -4.08087 
         700      1.61333 -0.000658438  0.000214193     -4.08087 
         700         1.92 -0.000546138  0.000246296     -4.08087 
         700      2.25333 -0.000430399  0.000274525     -4.08087 
         700      2.61333 -0.000306245  0.000296893     -4.08086 
         700            3  -0.00017757  0.000311657     -4.08086 
         750            0            0            0     -3.43146 
         750     0.013333 -0.000141956  5.81211e-08     -3.43146 
         750     0.053333 -0.000436449  7.60992e-07     -3.43146 
         750         0.12 -0.000843096  2.67203e-06     -3.43146 
         750     0.213332  -0.00121883  4.59468e-06     -3.43146 
         750     0.333332  -0.00144327  3.43208e-06     -3.43146 
         750         0.48  -0.00149548 -3.75147e-06     -3.43146 
         750     0.653331  -0.00144373 -1.76878e-05     -3.43146 
         750     0.853332  -0.00136253 -3.68472e-05     -3.43146 
         750         1.08  -0.00127424  -5.8559e-05     -3.43146 
         750      1.33333  -0.00116101 -8.04299e-05     -3.43146 
         750      1.61333  -0.00101255 -0.000101072     -3.43146 
         750         1.92 -0.000841681  -0.00012003     -3.43145 
         750      2.25333 -0.000655584  -0.00013702     -3.43145 
         750      2.61333 -0.000457055 -0.000150974     -3.43144 
         750            3 -0.000252968  -0.00016082     -3.43142 
         800            0           -0           -0     -2.78204 
         800     0.013333 -3.47846e-05 -1.62956e-07     -2.78204 
         800     0.053333  1.95099e-05 -2.43357e-06     -2.78204 
         800         0.12  0.000206085 -1.09086e-05     -2.78204 
         800     0.213332  0.000530365 -2.88722e-05     -2.78204 
         800     0.333332  0.000879443 -5.61256e-05     -2.78204 
         800         0.48   0.00112634 -8.94698e-05     -2.78204 
         800     0.653331   0.00122646 -0.000125807     -2.78204 
         800     0.853332   0.00120297 -0.000164328     -2.78204 
         800         1.08   0.00108615 -0.000205783     -2.78204 
         800      1.33333  0.000911734 -0.000249775     -2.78204 
         800      1.61333  0.000736302 -0.000293379     -2.78204 
         800         1.92  0.000590041 -0.000333448     -2.78204 
         800      2.25333  0.000446768 -0.000367646     -2.78205 
         800      2.61333  0.000292286 -0.000394449     -2.78206 
         800            3  0.000133064 -0.000412111     -2.78207 
         850            0           -0           -0     -2.13419 
         850     0.013333  4.53088e-05  1.01921e-07     -2.13419 
         850     0.053333  0.000225137  1.60464e-06     -2.13419 
         850         0.12  0.000355006  7.74508e-06     -2.13419 
         850     0.213332  0.000338144  2.22756e-05     -2.13419 
         850     0.333332  0.000194301  4.70714e-05     -2.13419 
         850         0.48  2.57985e-05  8.11132e-05     -2.13419 
         850     0.653331 -7.97797e-05  0.000122045     -2.13419 
         850     0.853332 -9.20036e-05  0.000168179     -2.13419 
         850         1.08 -2.50839e-05  0.000218411     -2.13419 
         850      1.33333  6.46284e-05  0.000270244     -2.13419 
         850      1.61333  0.000106449    0.0003195     -2.13419 
         850         1.92  9.29385e-05  0.000363465     -2.13419 
         850      2.25333  6.78035e-05  0.000400854     -2.13419 
         850      2.61333  4.70584e-05  0.000430289     -2.13419 
         850            3  2.48937e-05  0.000449795     -2.13419 
         900            0           -0           -0     -1.48668 
         900     0.013333 -6.51315e-05 -3.14174e-08     -1.48668 
         900     0.053333 -0.000131598 -5.05675e-07     -1.48668 
         900         0.12 -0.000195151 -2.48923e-06     -1.48668 
         900     0.213332 -0.000216171 -7.21943e-06     -1.48668 
         900     0.333332 -0.000200318 -1.51812e-05     -1.48668 
         900         0.48  -0.00018098 -2.58087e-05     -1.48668 
         900     0.653331 -0.000184489 -3.83028e-05     -1.48669 
         900     0.853332 -0.000218938 -5.24223e-05     -1.48669 
         900         1.08 -0.000277596 -6.79716e-05     -1.48669 
         900      1.33333 -0.000327208 -8.34888e-05     -1.48669 
         900      1.61333 -0.000325217 -9.65591e-05     -1.48668 
         900         1.92 -0.000280696 -0.000106261     -1.48668 
         900      2.25333 -0.000230705 -0.000113369     -1.48668 
         900      2.61333 -0.000184638 -0.000118013     -1.48668 
         900            3 -0.000135466 -0.000119801     -1.48668 
         950            0           -0           -0    -0.840024 
         950     0.013333 -2.36997e-05  1.00365e-07    -0.840024 
         950     0.053333 -2.69714e-05   1.5322e-06    -0.840024 
         950         0.12 -0.000129181  7.07769e-06    -0.840024 
         950     0.213332 -0.000347406   1.9358e-05    -0.840024 
         950     0.333332  -0.00060847  3.87748e-05    -0.840024 
         950         0.48  -0.00080672  6.32231e-05    -0.840024 
         950     0.653331 -0.000889126  9.00535e-05    -0.840024 
         950     0.853332 -0.000865903  0.000118023    -0.840024 
         950         1.08 -0.000770365  0.000147096    -0.840024 
         950      1.33333 -0.000647102  0.000176465    -0.840024 
         950      1.61333 -0.000546349  0.000203837    -0.840023 
         950         1.92 -0.000475392  0.000227587    -0.840022 
         950      2.25333 -0.000401347  0.000247599    -0.840019 
         950      2.61333 -0.000312204  0.000263222    -0.840016 
         950            3 -0.000215179   0.00027333    -0.840011 
        1000            0           -0           -0    -0.194275 
        1000     0.013333 -0.000156754 -1.46611e-08    -0.194275 
        1000     0.053333 -0.000473645 -3.54893e-07    -0.194275 
        1000         0.12 -0.000865522 -2.50158e-06    -0.194275 
        1000     0.213332   -0.0011666 -9.63846e-06    -0.194275 
        1000     0.333332  -0.00127826 -2.53959e-05    -0.194275 
        1000         0.48  -0.00122469 -5.16163e-05    -0.194275 
        1000     0.653331  -0.00110993  -8.7362e-05    -0.194276 
        1000     0.853332  -0.00102495 -0.000130107    -0.194276 
        1000         1.08 -0.000990244 -0.000176845    -0.194276 
        1000      1.33333 -0.000956371 -0.000224015    -0.194276 
        1000      1.61333 -0.000864978 -0.000268207    -0.194274 
        1000         1.92 -0.000723676 -0.000308009    -0.194272 
        1000      2.25333 -0.000573131 -0.000343781    -0.194267 
        1000      2.61333 -0.000421952  -0.00037428     -0.19426 
        1000            3 -0.000262535 -0.000397517    -0.194249 
