Variables = x, y, u, v, p

Zone, I=416, F=POINT
         -50            0            0            0      12.9597 
         -50     0.013333  2.01153e-05  6.60456e-09      12.9597 
         -50     0.053333  1.91098e-05  1.46135e-08      12.9597 
         -50         0.12  1.98029e-05  2.21852e-08      12.9597 
         -50     0.213332  2.11833e-05  3.12734e-08      12.9597 
         -50     0.333332  2.25887e-05  3.63649e-08      12.9596 
         -50         0.48  2.37151e-05  6.38299e-08      12.9596 
         -50     0.653331  2.44465e-05  8.14245e-08      12.9596 
         -50     0.853332  2.44255e-05  1.71725e-07      12.9595 
         -50         1.08  2.34331e-05  2.16858e-07      12.9594 
         -50      1.33333  2.18062e-05  2.88865e-07      12.9593 
         -50      1.61333  2.02999e-05  3.84837e-07      12.9591 
         -50         1.92  1.93973e-05  3.98572e-07      12.9589 
         -50      2.25333  1.81139e-05  3.83696e-07      12.9586 
         -50      2.61333  1.64726e-05  2.28509e-07      12.9582 
         -50            3  1.54181e-05 -2.79131e-07      12.9578 
         -25            0  1.66986e-20  1.51871e-24      12.4391 
         -25     0.013333   1.4338e-05  2.85381e-09      12.4391 
         -25     0.053333  1.24738e-05  1.09533e-08      12.4391 
         -25         0.12  1.12608e-05  2.79388e-08      12.4391 
         -25     0.213332  1.04183e-05  4.74803e-08      12.4391 
         -25     0.333332  9.88296e-06  5.78008e-08      12.4391 
         -25         0.48  9.51956e-06  4.16603e-08      12.4391 
         -25     0.653331  9.26189e-06  8.77768e-09      12.4391 
         -25     0.853332  9.16485e-06 -3.53801e-08      12.4391 
         -25         1.08    9.366e-06 -8.58109e-08       12.439 
         -25      1.33333  9.91369e-06 -1.23668e-07       12.439 
         -25      1.61333  1.06814e-05 -1.53446e-07      12.4389 
         -25         1.92  1.16473e-05 -1.55977e-07      12.4388 
         -25      2.25333  1.19137e-05 -1.92348e-07      12.4387 
         -25      2.61333  1.16887e-05 -2.07083e-07      12.4386 
         -25            3  1.19105e-05  2.26228e-08      12.4384 
           0            0  1.52111e-16 -1.09695e-16      12.0076 
           0     0.013333  3.39989e-05 -2.53771e-05      12.0081 
           0     0.053333  2.32589e-05 -1.27342e-05       12.009 
           0         0.12  1.85759e-05 -9.24658e-06        12.01 
           0     0.213332  1.69782e-05 -7.16353e-06      12.0111 
           0     0.333332  1.65234e-05 -5.99304e-06      12.0122 
           0         0.48  1.60757e-05 -5.19974e-06      12.0133 
           0     0.653331   1.5444e-05 -4.67035e-06      12.0145 
           0     0.853332  1.45221e-05 -4.31572e-06      12.0156 
           0         1.08  1.34662e-05 -4.06772e-06      12.0167 
           0      1.33333  1.24238e-05 -3.87281e-06      12.0177 
           0      1.61333  1.14086e-05 -3.68897e-06      12.0187 
           0         1.92   1.0451e-05 -3.48352e-06      12.0197 
           0      2.25333  1.01396e-05 -3.21971e-06      12.0206 
           0      2.61333  1.04862e-05 -2.88792e-06      12.0215 
           0            3  1.07477e-05 -2.61637e-06      12.0223 
          20            0           -0           -0      11.7568 
          20     0.013333  1.10008e-05  4.40741e-09      11.7568 
          20     0.053333  7.76587e-06  1.37924e-08      11.7568 
          20         0.12     4.92e-06  2.52055e-08      11.7568 
          20     0.213332  2.92086e-06   2.6273e-08      11.7567 
          20     0.333332  1.82518e-06  5.31665e-09      11.7567 
          20         0.48  1.27227e-06 -4.97508e-08      11.7567 
          20     0.653331  1.06509e-06 -1.41749e-07      11.7567 
          20     0.853332  1.53765e-06 -2.55775e-07      11.7567 
          20         1.08   2.9463e-06 -3.42158e-07      11.7566 
          20      1.33333  4.84273e-06 -3.73348e-07      11.7565 
          20      1.61333  6.76196e-06 -3.55046e-07      11.7564 
          20         1.92   8.3947e-06 -2.93433e-07      11.7563 
          20      2.25333  9.59956e-06 -1.90778e-07      11.7561 
          20      2.61333  1.08694e-05  6.84464e-09      11.7559 
          20            3  1.22125e-05  2.13353e-07      11.7557 
          40            0           -0           -0       11.483 
          40     0.013333  1.21379e-05  2.24019e-09       11.483 
          40     0.053333  1.44901e-05   3.0725e-08       11.483 
          40         0.12  1.61565e-05  1.60406e-07       11.483 
          40     0.213332  1.47491e-05  4.95699e-07       11.483 
          40     0.333332  1.11396e-05  1.09329e-06       11.483 
          40         0.48  7.89356e-06  1.91998e-06       11.483 
          40     0.653331  6.47001e-06  2.89317e-06       11.483 
          40     0.853332  6.48532e-06  3.93019e-06       11.483 
          40         1.08  7.09765e-06  4.96648e-06       11.483 
          40      1.33333  7.48407e-06    5.901e-06      11.4829 
          40      1.61333  7.46583e-06  6.61275e-06      11.4829 
          40         1.92   7.5414e-06  7.01688e-06      11.4829 
          40      2.25333   7.5246e-06  7.05473e-06      11.4829 
          40      2.61333   7.6472e-06   6.8158e-06      11.4829 
          40            3  8.00204e-06  6.42367e-06      11.4828 
          60            0           -0           -0       11.226 
          60     0.013333  1.30082e-05  2.46399e-09       11.226 
          60     0.053333  1.86308e-05   4.0123e-08       11.226 
          60         0.12   2.3873e-05  2.19068e-07       11.226 
          60     0.213332  2.51804e-05  6.83141e-07       11.226 
          60     0.333332  2.35033e-05  1.49943e-06       11.226 
          60         0.48  2.20876e-05  2.61915e-06       11.226 
          60     0.653331  2.26933e-05  3.92908e-06       11.226 
          60     0.853332  2.37671e-05  5.24199e-06       11.226 
          60         1.08  2.25023e-05   6.3481e-06       11.226 
          60      1.33333  1.92719e-05  7.16143e-06       11.226 
          60      1.61333  1.56238e-05  7.70717e-06       11.226 
          60         1.92  1.17371e-05  7.89189e-06       11.226 
          60      2.25333  8.31309e-06  7.69886e-06      11.2259 
          60      2.61333  5.74449e-06   7.2055e-06      11.2259 
          60            3  3.99043e-06  6.48792e-06      11.2259 
          80            0           -0           -0      10.9773 
          80     0.013333  1.08016e-05  4.50499e-09      10.9773 
          80     0.053333  1.11678e-05  6.62911e-08      10.9773 
          80         0.12  9.94699e-06  2.99442e-07      10.9773 
          80     0.213332  6.70781e-06  7.83702e-07      10.9773 
          80     0.333332  3.83463e-06  1.48368e-06      10.9773 
          80         0.48  3.29651e-06  2.30544e-06      10.9773 
          80     0.653331  5.21569e-06  3.18824e-06      10.9773 
          80     0.853332  8.08796e-06    4.058e-06      10.9773 
          80         1.08  9.40767e-06  4.76177e-06      10.9773 
          80      1.33333  9.23894e-06  5.21886e-06      10.9773 
          80      1.61333  9.39365e-06  5.47356e-06      10.9773 
          80         1.92  9.82759e-06  5.48798e-06      10.9773 
          80      2.25333  1.01113e-05  5.25224e-06      10.9773 
          80      2.61333  1.03094e-05  4.82664e-06      10.9773 
          80            3  1.04114e-05  4.26528e-06      10.9773 
         100            0  1.12973e-20  7.68408e-26      10.7337 
         100     0.013333  9.73385e-06  8.57592e-09      10.7337 
         100     0.053333  6.84886e-06  1.24541e-07      10.7337 
         100         0.12 -2.15042e-07  5.38202e-07      10.7337 
         100     0.213332 -1.00981e-05  1.34654e-06      10.7337 
         100     0.333332 -1.79659e-05  2.44902e-06      10.7337 
         100         0.48 -2.09822e-05  3.67944e-06      10.7337 
         100     0.653331 -1.93651e-05  4.96892e-06      10.7337 
         100     0.853332  -1.4547e-05  6.29624e-06      10.7337 
         100         1.08 -9.05132e-06  7.53317e-06      10.7337 
         100      1.33333  -4.3589e-06  8.53111e-06      10.7337 
         100      1.61333  5.03737e-07  9.22366e-06      10.7337 
         100         1.92  5.90688e-06  9.51939e-06      10.7337 
         100      2.25333  1.02611e-05  9.39974e-06      10.7337 
         100      2.61333   1.3201e-05  8.88276e-06      10.7337 
         100            3  1.48207e-05   8.0743e-06      10.7337 
         150            0           -0           -0      10.1367 
         150     0.013333  6.67846e-06 -8.86311e-09      10.1367 
         150     0.053333  9.53213e-07 -1.36285e-07      10.1367 
         150         0.12  6.06933e-07 -6.27452e-07      10.1367 
         150     0.213332  7.36798e-06 -1.69377e-06      10.1367 
         150     0.333332  1.65794e-05 -3.34303e-06      10.1367 
         150         0.48  2.28049e-05 -5.42594e-06      10.1367 
         150     0.653331  2.38819e-05 -7.81174e-06      10.1367 
         150     0.853332  2.04576e-05 -1.04055e-05      10.1367 
         150         1.08  1.59502e-05 -1.29828e-05      10.1367 
         150      1.33333  1.35924e-05 -1.52297e-05      10.1367 
         150      1.61333  1.22317e-05 -1.69684e-05      10.1367 
         150         1.92   1.0336e-05  -1.8034e-05      10.1367 
         150      2.25333  8.91615e-06 -1.83277e-05      10.1367 
         150      2.61333   7.9553e-06 -1.78795e-05      10.1367 
         150            3  7.15167e-06 -1.68223e-05      10.1367 
         200            0            0            0      9.54719 
         200     0.013333   1.7674e-06 -5.93472e-09      9.54719 
         200     0.053333 -1.67235e-05 -1.02742e-07      9.54719 
         200         0.12 -3.20597e-05 -5.48588e-07      9.54719 
         200     0.213332 -3.48994e-05  -1.7119e-06      9.54719 
         200     0.333332 -2.64132e-05 -3.83054e-06      9.54719 
         200         0.48 -1.51909e-05  -6.8564e-06      9.54719 
         200     0.653331 -8.23141e-06 -1.05599e-05      9.54719 
         200     0.853332 -6.55634e-06 -1.46562e-05      9.54719 
         200         1.08 -6.34126e-06 -1.88032e-05      9.54719 
         200      1.33333 -3.95287e-06  -2.2638e-05      9.54719 
         200      1.61333  1.97814e-07  -2.5898e-05      9.54719 
         200         1.92  4.26623e-06 -2.82775e-05      9.54719 
         200      2.25333   8.2394e-06 -2.95531e-05      9.54719 
         200      2.61333  1.16822e-05 -2.96805e-05      9.54719 
         200            3  1.42734e-05 -2.87116e-05      9.54719 
         250            0           -0           -0      8.96027 
         250     0.013333   1.9311e-07  2.93122e-09      8.96027 
         250     0.053333 -2.46436e-05  2.59479e-08      8.96027 
         250         0.12 -5.29125e-05  2.56582e-09      8.96027 
         250     0.213332 -7.24068e-05 -3.33067e-07      8.96027 
         250     0.333332 -7.82111e-05 -1.30311e-06      8.96027 
         250         0.48 -7.52205e-05 -3.03088e-06      8.96027 
         250     0.653331 -7.06581e-05 -5.38169e-06      8.96027 
         250     0.853332  -6.6544e-05 -8.04577e-06      8.96027 
         250         1.08 -5.94186e-05 -1.06449e-05      8.96027 
         250      1.33333 -4.72788e-05 -1.29013e-05      8.96027 
         250      1.61333 -3.26579e-05 -1.47698e-05      8.96027 
         250         1.92 -1.70812e-05 -1.61511e-05      8.96027 
         250      2.25333 -2.16489e-06 -1.69142e-05      8.96027 
         250      2.61333  1.09169e-05 -1.70385e-05      8.96028 
         250            3  2.12828e-05 -1.65411e-05      8.96028 
         300            0            0            0      8.37431 
         300     0.013333  8.76842e-06  4.15378e-09      8.37431 
         300     0.053333  5.27451e-06  5.83348e-08      8.37431 
         300         0.12 -1.75017e-07  2.39037e-07      8.37431 
         300     0.213332 -6.64173e-06  5.72317e-07      8.37431 
         300     0.333332 -1.21759e-05  1.01752e-06      8.37431 
         300         0.48 -1.58733e-05  1.52683e-06      8.37431 
         300     0.653331 -1.77947e-05  2.09931e-06      8.37431 
         300     0.853332 -1.75552e-05  2.79099e-06      8.37431 
         300         1.08 -1.43166e-05  3.66633e-06      8.37431 
         300      1.33333 -9.12093e-06  4.68599e-06      8.37431 
         300      1.61333 -4.23431e-06  5.68756e-06      8.37431 
         300         1.92  5.05355e-07  6.54722e-06      8.37431 
         300      2.25333  4.96348e-06  7.20351e-06      8.37431 
         300      2.61333  8.94716e-06  7.60374e-06      8.37431 
         300            3  1.22502e-05  7.72625e-06      8.37431 
         350            0           -0           -0      7.78864 
         350     0.013333  8.23975e-06  -2.9969e-09      7.78864 
         350     0.053333  5.17534e-06 -4.61689e-08      7.78864 
         350         0.12  4.34629e-06 -2.15215e-07      7.78864 
         350     0.213332  6.60774e-06 -5.92298e-07      7.78864 
         350     0.333332  1.04474e-05 -1.19516e-06      7.78864 
         350         0.48  1.36067e-05 -1.97928e-06      7.78864 
         350     0.653331  1.48621e-05 -2.89592e-06      7.78864 
         350     0.853332  1.40902e-05 -3.91756e-06      7.78864 
         350         1.08  1.21959e-05 -4.99182e-06      7.78864 
         350      1.33333  1.07246e-05 -6.02105e-06      7.78864 
         350      1.61333  1.00518e-05 -6.92165e-06      7.78864 
         350         1.92  9.35507e-06 -7.64344e-06      7.78864 
         350      2.25333  8.72433e-06 -8.13296e-06      7.78864 
         350      2.61333  8.23911e-06 -8.34993e-06      7.78864 
         350            3  7.85743e-06 -8.28017e-06      7.78864 
         400            0           -0           -0      7.20306 
         400     0.013333  9.84835e-06 -7.31862e-10      7.20306 
         400     0.053333  1.02127e-05 -9.87729e-09      7.20306 
         400         0.12   1.1599e-05 -3.66671e-08      7.20306 
         400     0.213332  1.28312e-05 -7.13553e-08      7.20306 
         400     0.333332  1.30996e-05 -8.53567e-08      7.20306 
         400         0.48  1.25112e-05 -6.03745e-08      7.20306 
         400     0.653331  1.16247e-05 -1.02829e-08      7.20306 
         400     0.853332  1.05976e-05  3.22214e-08      7.20306 
         400         1.08  9.42048e-06  5.18104e-08      7.20306 
         400      1.33333  8.54255e-06  7.30149e-08      7.20306 
         400      1.61333  8.19622e-06  1.20287e-07      7.20306 
         400         1.92    7.925e-06  1.79061e-07      7.20306 
         400      2.25333  7.61131e-06  2.43097e-07      7.20306 
         400      2.61333  7.34732e-06  3.03676e-07      7.20306 
         400            3  7.19944e-06  3.53674e-07      7.20306 
         450            0            0            0      6.61752 
         450     0.013333  7.49299e-06 -3.84405e-09      6.61752 
         450     0.053333  2.88873e-06 -6.02273e-08      6.61752 
         450         0.12  1.41177e-06  -2.8863e-07      6.61752 
         450     0.213332  5.31267e-06 -8.22978e-07      6.61752 
         450     0.333332  1.29353e-05 -1.72302e-06      6.61752 
         450         0.48  2.04696e-05 -2.94132e-06      6.61752 
         450     0.653331  2.52378e-05 -4.38266e-06      6.61752 
         450     0.853332  2.65875e-05 -5.97526e-06      6.61752 
         450         1.08  2.51809e-05 -7.66519e-06      6.61752 
         450      1.33333  2.26508e-05  -9.3589e-06      6.61752 
         450      1.61333  2.03933e-05 -1.09325e-05      6.61752 
         450         1.92  1.80302e-05 -1.22775e-05      6.61752 
         450      2.25333  1.54561e-05 -1.33137e-05      6.61752 
         450      2.61333  1.27672e-05 -1.39512e-05      6.61752 
         450            3   1.0098e-05 -1.41369e-05      6.61752 
         500            0           -0           -0        6.032 
         500     0.013333  1.63461e-05  5.69564e-09        6.032 
         500     0.053333  3.13999e-05  9.49988e-08        6.032 
         500         0.12  4.47431e-05  4.92037e-07        6.032 
         500     0.213332  4.66703e-05  1.51245e-06        6.032 
         500     0.333332  3.69765e-05  3.37564e-06        6.032 
         500         0.48  2.33846e-05  6.05847e-06        6.032 
         500     0.653331  1.35286e-05  9.35811e-06        6.032 
         500     0.853332  9.85693e-06  1.30437e-05        6.032 
         500         1.08  1.01648e-05   1.6893e-05        6.032 
         500      1.33333   1.0679e-05  2.06784e-05        6.032 
         500      1.61333  9.72853e-06  2.41967e-05        6.032 
         500         1.92  8.40388e-06  2.72784e-05        6.032 
         500      2.25333  7.13839e-06    2.971e-05        6.032 
         500      2.61333  6.06596e-06    3.131e-05        6.032 
         500            3  5.27873e-06  3.19534e-05        6.032 
         550            0            0            0      5.44646 
         550     0.013333  2.21215e-06 -6.97622e-09      5.44646 
         550     0.053333 -1.53108e-05 -1.11783e-07      5.44646 
         550         0.12 -3.03709e-05 -5.51505e-07      5.44646 
         550     0.213332 -3.44605e-05 -1.62134e-06      5.44646 
         550     0.333332 -2.77769e-05 -3.49924e-06      5.44646 
         550         0.48 -1.71359e-05 -6.15724e-06      5.44646 
         550     0.653331 -9.21059e-06 -9.45389e-06      5.44646 
         550     0.853332  -7.0251e-06 -1.32559e-05      5.44646 
         550         1.08 -9.61665e-06 -1.74094e-05      5.44646 
         550      1.33333 -1.23095e-05 -2.16296e-05      5.44646 
         550      1.61333 -1.10462e-05 -2.55655e-05      5.44646 
         550         1.92 -7.46417e-06 -2.89932e-05      5.44646 
         550      2.25333 -3.37005e-06 -3.17446e-05      5.44646 
         550      2.61333  7.73547e-07 -3.36314e-05      5.44646 
         550            3  4.97384e-06  -3.4498e-05      5.44646 
         600            0           -0           -0      4.86093 
         600     0.013333  1.15985e-05 -5.93815e-10      4.86093 
         600     0.053333  1.65901e-05 -6.86237e-09      4.86093 
         600         0.12  2.40207e-05 -1.76841e-08      4.86093 
         600     0.213332  3.11222e-05 -5.81987e-09      4.86093 
         600     0.333332  3.60827e-05  7.42082e-08      4.86093 
         600         0.48  3.87632e-05  2.55914e-07      4.86093 
         600     0.653331  4.00676e-05  5.41896e-07      4.86093 
         600     0.853332   4.0684e-05  9.07983e-07      4.86093 
         600         1.08  4.04874e-05  1.31063e-06      4.86093 
         600      1.33333  3.87986e-05  1.69733e-06      4.86093 
         600      1.61333  3.52668e-05  2.01588e-06      4.86093 
         600         1.92  3.04846e-05  2.25691e-06      4.86093 
         600      2.25333  2.51059e-05  2.40959e-06      4.86093 
         600      2.61333  1.94384e-05  2.47821e-06      4.86093 
         600            3  1.37235e-05  2.46395e-06      4.86093 
         650            0            0            0      4.27537 
         650     0.013333  6.35869e-06 -2.76318e-09      4.27537 
         650     0.053333 -1.28634e-06 -4.70129e-08      4.27537 
         650         0.12  -6.1687e-06  -2.5002e-07      4.27537 
         650     0.213332 -3.65934e-06 -7.89279e-07      4.27537 
         650     0.333332  5.86871e-06 -1.79981e-06      4.27537 
         650         0.48  1.73364e-05   -3.269e-06      4.27537 
         650     0.653331   2.5764e-05  -5.0512e-06      4.27537 
         650     0.853332   2.9735e-05 -6.97238e-06      4.27537 
         650         1.08  3.07332e-05 -8.90111e-06      4.27537 
         650      1.33333  3.05071e-05 -1.07572e-05      4.27537 
         650      1.61333  2.94736e-05 -1.25032e-05      4.27537 
         650         1.92  2.73449e-05 -1.40931e-05      4.27537 
         650      2.25333  2.44449e-05  -1.5427e-05      4.27537 
         650      2.61333  2.10482e-05 -1.64128e-05      4.27537 
         650            3  1.72997e-05  -1.6968e-05      4.27537 
         700            0           -0           -0      3.68983 
         700     0.013333   2.4989e-05 -2.80048e-09      3.68983 
         700     0.053333  6.51258e-05 -2.33441e-08      3.68983 
         700         0.12  0.000114949  2.17907e-08      3.68983 
         700     0.213332  0.000153076  4.74368e-07      3.68983 
         700     0.333332  0.000166809  1.82287e-06      3.68983 
         700         0.48   0.00015995  4.36379e-06      3.68983 
         700     0.653331  0.000145767    8.015e-06      3.68983 
         700     0.853332  0.000133914  1.24239e-05      3.68983 
         700         1.08  0.000124666  1.71487e-05      3.68983 
         700      1.33333   0.00011307  2.17916e-05      3.68983 
         700      1.61333  9.70481e-05  2.61248e-05      3.68983 
         700         1.92  7.91358e-05  3.00933e-05      3.68983 
         700      2.25333  6.02097e-05  3.35167e-05      3.68983 
         700      2.61333  4.05438e-05   3.6197e-05      3.68983 
         700            3   2.0943e-05   3.7944e-05      3.68983 
         750            0            0            0      3.10411 
         750     0.013333 -1.46865e-06  1.60212e-08      3.10411 
         750     0.053333 -3.55551e-05  2.25653e-07      3.10411 
         750         0.12 -8.74055e-05  9.19983e-07      3.10411 
         750     0.213332 -0.000142889  2.14115e-06      3.10411 
         750     0.333332 -0.000184038  3.54602e-06      3.10411 
         750         0.48 -0.000203031  4.68282e-06      3.10411 
         750     0.653331 -0.000205205  5.36043e-06      3.10411 
         750     0.853332  -0.00019882  5.74833e-06      3.10411 
         750         1.08 -0.000185694   6.2291e-06      3.10411 
         750      1.33333 -0.000163778  7.10103e-06      3.10411 
         750      1.61333 -0.000135843   8.3045e-06      3.10411 
         750         1.92 -0.000107758  9.52213e-06      3.10411 
         750      2.25333 -7.92303e-05  1.05834e-05      3.10411 
         750      2.61333  -4.9613e-05  1.14222e-05      3.10411 
         750            3 -1.97267e-05  1.19956e-05      3.10411 
         800            0           -0           -0      2.51853 
         800     0.013333  8.12642e-06  -1.3096e-08      2.51853 
         800     0.053333  7.72685e-06 -1.95371e-07      2.51853 
         800         0.12  1.75867e-05 -8.74976e-07      2.51853 
         800     0.213332  3.85751e-05 -2.31714e-06      2.51853 
         800     0.333332   6.2573e-05 -4.51993e-06      2.51853 
         800         0.48  8.01448e-05 -7.25673e-06      2.51853 
         800     0.653331  8.78274e-05 -1.03097e-05      2.51853 
         800     0.853332  8.68514e-05 -1.36328e-05      2.51853 
         800         1.08  7.85805e-05 -1.73024e-05      2.51853 
         800      1.33333   6.4969e-05 -2.13075e-05      2.51853 
         800      1.61333  5.12281e-05 -2.53777e-05      2.51853 
         800         1.92  4.11052e-05 -2.91459e-05      2.51853 
         800      2.25333  3.22561e-05 -3.23858e-05      2.51853 
         800      2.61333  2.30316e-05 -3.49411e-05      2.51853 
         800            3  1.39051e-05 -3.66606e-05      2.51853 
         850            0           -0           -0      1.93286 
         850     0.013333  1.56945e-05  7.28702e-09      1.93286 
         850     0.053333  2.85874e-05  1.16608e-07      1.93286 
         850         0.12  3.83765e-05  5.75478e-07      1.93286 
         850     0.213332  3.61525e-05  1.69481e-06      1.93286 
         850     0.333332  2.28649e-05  3.65835e-06      1.93286 
         850         0.48  7.12187e-06  6.40309e-06      1.93286 
         850     0.653331 -3.10966e-06  9.70746e-06      1.93286 
         850     0.853332 -5.39418e-06  1.33608e-05      1.93286 
         850         1.08 -1.82482e-06  1.72113e-05      1.93286 
         850      1.33333  3.19048e-06   2.1083e-05      1.93286 
         850      1.61333  5.78714e-06  2.47497e-05      1.93286 
         850         1.92  5.92331e-06  2.80486e-05      1.93286 
         850      2.25333  5.72765e-06  3.08698e-05      1.93286 
         850      2.61333  5.94492e-06  3.30763e-05      1.93286 
         850            3  6.25318e-06  3.45224e-05      1.93286 
         900            0           -0           -0      1.34717 
         900     0.013333 -3.76591e-06  1.43724e-09      1.34717 
         900     0.053333 -3.92682e-05  5.56188e-09      1.34717 
         900         0.12 -8.11856e-05 -8.42311e-08      1.34717 
         900     0.213332 -0.000111804 -5.82733e-07      1.34717 
         900     0.333332 -0.000121127  -1.9074e-06      1.34717 
         900         0.48 -0.000113572 -4.27992e-06      1.34717 
         900     0.653331 -0.000101463 -7.57776e-06      1.34717 
         900     0.853332 -9.33071e-05 -1.14508e-05      1.34717 
         900         1.08 -8.84024e-05 -1.54759e-05      1.34717 
         900      1.33333 -8.06278e-05 -1.92744e-05      1.34717 
         900      1.61333   -6.731e-05  -2.2662e-05      1.34717 
         900         1.92 -5.24185e-05 -2.56807e-05      1.34717 
         900      2.25333 -3.77439e-05 -2.83315e-05      1.34717 
         900      2.61333 -2.30684e-05 -3.04891e-05      1.34717 
         900            3 -8.10132e-06 -3.19892e-05      1.34717 
         950            0           -0           -0      0.76157 
         950     0.013333  2.26596e-05 -1.70856e-08      0.76157 
         950     0.053333  6.16411e-05 -2.41669e-07      0.76157 
         950         0.12  0.000122703 -9.86849e-07      0.76157 
         950     0.213332  0.000187784 -2.28622e-06      0.76157 
         950     0.333332  0.000234169 -3.72007e-06      0.76157 
         950         0.48  0.000251571 -4.72452e-06      0.76157 
         950     0.653331  0.000247152 -5.05551e-06     0.761571 
         950     0.853332  0.000233028 -4.93636e-06     0.761571 
         950         1.08  0.000213488 -4.85269e-06     0.761571 
         950      1.33333  0.000186865  -5.1728e-06     0.761571 
         950      1.61333   0.00015617 -5.82985e-06      0.76157 
         950         1.92  0.000128516 -6.42772e-06      0.76157 
         950      2.25333  0.000102359 -6.83566e-06     0.761569 
         950      2.61333  7.53953e-05 -7.03939e-06     0.761568 
         950            3  4.73838e-05  -7.0569e-06     0.761566 
        1000            0           -0           -0     0.175747 
        1000     0.013333  2.38561e-05  2.07645e-08     0.175747 
        1000     0.053333  5.47305e-05  3.25401e-07     0.175747 
        1000         0.12   7.7819e-05  1.55279e-06     0.175747 
        1000     0.213332  7.28377e-05  4.42701e-06     0.175747 
        1000     0.333332  4.08678e-05  9.31669e-06     0.175747 
        1000         0.48  3.20438e-07  1.60427e-05     0.175747 
        1000     0.653331 -3.00307e-05  2.41386e-05     0.175747 
        1000     0.853332 -4.15899e-05  3.32421e-05     0.175747 
        1000         1.08 -3.46873e-05  4.31777e-05     0.175747 
        1000      1.33333 -1.69042e-05  5.36525e-05     0.175747 
        1000      1.61333 -1.49743e-06   6.4031e-05     0.175747 
        1000         1.92  4.55256e-06  7.36567e-05     0.175747 
        1000      2.25333  7.06556e-06  8.21599e-05     0.175747 
        1000      2.61333  9.87692e-06  8.92386e-05     0.175747 
        1000            3  1.29201e-05   9.4534e-05     0.175747 
