Variables = x, y, u, v, p

Zone, I=416, F=POINT
         -50            0            0            0        9.836 
         -50     0.013333  3.13382e-05  6.84847e-09        9.836 
         -50     0.053333  2.95931e-05  2.14427e-08        9.836 
         -50         0.12  2.91938e-05  4.12298e-08        9.836 
         -50     0.213332  2.93835e-05  7.34259e-08        9.836 
         -50     0.333332  2.95366e-05   1.2852e-07      9.83598 
         -50         0.48  2.94463e-05  1.82021e-07      9.83597 
         -50     0.653331  2.93017e-05  2.19092e-07      9.83593 
         -50     0.853332   2.9162e-05  3.32652e-07      9.83589 
         -50         1.08  2.89232e-05  4.89475e-07      9.83582 
         -50      1.33333  2.85942e-05  5.80794e-07      9.83572 
         -50      1.61333  2.82031e-05  7.05829e-07      9.83559 
         -50         1.92  2.81088e-05  8.84077e-07      9.83541 
         -50      2.25333  2.78634e-05   9.5063e-07      9.83519 
         -50      2.61333  2.74202e-05  9.98341e-07      9.83491 
         -50            3  2.72836e-05  1.27189e-06      9.83457 
         -25            0  2.63517e-20  1.35951e-24      9.44103 
         -25     0.013333  2.34902e-05  3.39178e-09      9.44103 
         -25     0.053333  2.34665e-05  1.87549e-08      9.44103 
         -25         0.12  2.41901e-05  6.77567e-08      9.44103 
         -25     0.213332  2.45404e-05   1.7901e-07      9.44103 
         -25     0.333332  2.43286e-05  3.72678e-07      9.44102 
         -25         0.48  2.40373e-05  6.54947e-07      9.44102 
         -25     0.653331  2.41065e-05  9.96165e-07        9.441 
         -25     0.853332  2.42849e-05  1.37469e-06      9.44099 
         -25         1.08  2.39944e-05   1.7364e-06      9.44096 
         -25      1.33333  2.32089e-05  2.03712e-06      9.44092 
         -25      1.61333  2.22596e-05  2.27236e-06      9.44087 
         -25         1.92  2.13777e-05  2.38197e-06      9.44081 
         -25      2.25333  2.06676e-05    2.384e-06      9.44072 
         -25      2.61333  1.99743e-05  2.17775e-06      9.44062 
         -25            3  1.93307e-05  1.81457e-06      9.44049 
           0            0  3.15902e-16 -2.08244e-16      9.11347 
           0     0.013333  6.54051e-05  -4.1565e-05      9.11391 
           0     0.053333  4.08802e-05 -2.19144e-05      9.11458 
           0         0.12  3.18003e-05 -1.49779e-05      9.11533 
           0     0.213332  2.84258e-05  -1.1678e-05      9.11614 
           0     0.333332    2.698e-05 -9.74048e-06      9.11699 
           0         0.48  2.56307e-05 -8.36881e-06      9.11784 
           0     0.653331  2.43199e-05 -7.38904e-06      9.11869 
           0     0.853332  2.31106e-05 -6.66037e-06      9.11954 
           0         1.08   2.2117e-05 -6.09146e-06      9.12036 
           0      1.33333  2.12678e-05  -5.6278e-06      9.12117 
           0      1.61333  2.04445e-05  -5.2237e-06      9.12194 
           0         1.92   1.9626e-05 -4.83299e-06      9.12268 
           0      2.25333    1.884e-05 -4.46332e-06      9.12338 
           0      2.61333  1.77963e-05 -4.14365e-06      9.12404 
           0            3  1.69734e-05 -3.73036e-06      9.12466 
          20            0           -0           -0      8.92307 
          20     0.013333  1.47541e-05  5.31701e-09      8.92307 
          20     0.053333  4.21139e-06  1.44234e-08      8.92307 
          20         0.12 -5.20823e-06 -4.40867e-08      8.92307 
          20     0.213332 -9.06909e-06 -3.37925e-07      8.92306 
          20     0.333332 -7.28992e-06 -9.74881e-07      8.92306 
          20         0.48 -2.03848e-06 -1.88988e-06      8.92304 
          20     0.653331  2.79381e-06 -3.10858e-06      8.92303 
          20     0.853332  4.82945e-06 -4.71045e-06        8.923 
          20         1.08    7.207e-06 -6.34297e-06      8.92296 
          20      1.33333  1.10251e-05 -7.67912e-06       8.9229 
          20      1.61333  1.54534e-05  -8.5751e-06      8.92282 
          20         1.92  1.94182e-05 -8.93919e-06      8.92273 
          20      2.25333  2.21223e-05 -8.75808e-06      8.92261 
          20      2.61333  2.37419e-05 -8.13406e-06      8.92246 
          20            3  2.40542e-05 -7.33336e-06      8.92229 
          40            0           -0           -0       8.7152 
          40     0.013333  1.37478e-05  3.59246e-09       8.7152 
          40     0.053333  4.67371e-06  3.95916e-08       8.7152 
          40         0.12 -6.13835e-06  1.30562e-07       8.7152 
          40     0.213332  -1.4999e-05  2.17588e-07       8.7152 
          40     0.333332 -1.98144e-05  1.80429e-07       8.7152 
          40         0.48 -2.14469e-05 -6.38777e-08       8.7152 
          40     0.653331 -2.15086e-05 -4.95503e-07       8.7152 
          40     0.853332 -1.99885e-05 -9.97915e-07      8.71519 
          40         1.08 -1.55872e-05 -1.44586e-06      8.71519 
          40      1.33333 -8.12286e-06  -1.7568e-06      8.71518 
          40      1.61333   8.2929e-07  -1.9436e-06      8.71517 
          40         1.92  1.03216e-05  -1.9996e-06      8.71515 
          40      2.25333  1.80172e-05 -1.89093e-06      8.71514 
          40      2.61333  2.31898e-05 -1.71271e-06      8.71511 
          40            3  2.60829e-05 -1.53932e-06      8.71508 
          60            0           -0           -0      8.52008 
          60     0.013333  1.65182e-05  6.33477e-09      8.52008 
          60     0.053333  1.54079e-05  8.90269e-08      8.52008 
          60         0.12   1.1623e-05  3.84879e-07      8.52008 
          60     0.213332  5.04314e-06  9.79073e-07      8.52008 
          60     0.333332  -1.7053e-06  1.84055e-06      8.52008 
          60         0.48 -6.15737e-06  2.89851e-06      8.52008 
          60     0.653331 -6.83794e-06   4.1409e-06      8.52008 
          60     0.853332  -3.3947e-06  5.57042e-06      8.52007 
          60         1.08  1.86504e-06  7.05846e-06      8.52007 
          60      1.33333  6.03622e-06  8.39677e-06      8.52007 
          60      1.61333  9.17441e-06  9.43209e-06      8.52006 
          60         1.92  1.26243e-05  1.00329e-05      8.52005 
          60      2.25333   1.5345e-05  1.01627e-05      8.52004 
          60      2.61333  1.75559e-05  9.90191e-06      8.52003 
          60            3  1.93444e-05  9.29771e-06      8.52001 
          80            0           -0           -0      8.33124 
          80     0.013333  1.60865e-05  1.32171e-10      8.33124 
          80     0.053333   1.6711e-05 -2.36699e-09      8.33124 
          80         0.12  1.92478e-05 -2.29098e-08      8.33124 
          80     0.213332  2.32259e-05 -8.74034e-08      8.33124 
          80     0.333332  2.74443e-05 -1.97925e-07      8.33124 
          80         0.48  3.07295e-05 -3.09919e-07      8.33124 
          80     0.653331  3.28656e-05 -3.62582e-07      8.33124 
          80     0.853332  3.39013e-05 -3.33781e-07      8.33124 
          80         1.08  3.29752e-05 -2.81601e-07      8.33124 
          80      1.33333  2.97119e-05 -2.82861e-07      8.33123 
          80      1.61333  2.54918e-05 -3.11348e-07      8.33123 
          80         1.92  2.07037e-05 -3.50933e-07      8.33122 
          80      2.25333  1.61314e-05 -3.70145e-07      8.33122 
          80      2.61333  1.25429e-05 -3.66164e-07      8.33121 
          80            3  1.03201e-05  -3.5751e-07       8.3312 
         100            0  1.62348e-20  6.85117e-26      8.14625 
         100     0.013333  1.17816e-05  1.65324e-09      8.14625 
         100     0.053333  1.57463e-06  1.53553e-08      8.14625 
         100         0.12 -9.59618e-06  1.79122e-08      8.14625 
         100     0.213332 -1.70705e-05 -1.04223e-07      8.14625 
         100     0.333332  -1.9124e-05 -4.98268e-07      8.14625 
         100         0.48 -1.79171e-05 -1.23098e-06      8.14625 
         100     0.653331 -1.61765e-05 -2.24925e-06      8.14625 
         100     0.853332 -1.40901e-05 -3.40273e-06      8.14625 
         100         1.08 -1.01288e-05 -4.52718e-06      8.14625 
         100      1.33333  -4.4077e-06 -5.52229e-06      8.14625 
         100      1.61333  2.01995e-06  -6.3557e-06      8.14625 
         100         1.92  8.58673e-06 -6.92367e-06      8.14624 
         100      2.25333   1.4144e-05 -7.17413e-06      8.14624 
         100      2.61333  1.82382e-05 -7.12802e-06      8.14623 
         100            3  2.08881e-05 -6.81233e-06      8.14623 
         150            0           -0           -0      7.69281 
         150     0.013333  1.80501e-05  2.02685e-09      7.69281 
         150     0.053333  2.42327e-05   3.4675e-08      7.69281 
         150         0.12  3.04477e-05  1.86631e-07      7.69281 
         150     0.213332  3.25187e-05  5.89427e-07      7.69281 
         150     0.333332  3.00609e-05  1.34197e-06      7.69281 
         150         0.48  2.58843e-05  2.46004e-06      7.69281 
         150     0.653331   2.3031e-05  3.89669e-06      7.69281 
         150     0.853332  2.23209e-05  5.55054e-06      7.69281 
         150         1.08  2.20086e-05  7.25247e-06      7.69281 
         150      1.33333  2.05448e-05  8.82988e-06      7.69281 
         150      1.61333  1.83427e-05  1.01727e-05      7.69281 
         150         1.92  1.61977e-05  1.11482e-05       7.6928 
         150      2.25333  1.41836e-05  1.16538e-05       7.6928 
         150      2.61333  1.25457e-05  1.17047e-05       7.6928 
         150            3  1.15027e-05  1.13551e-05       7.6928 
         200            0            0            0      7.24507 
         200     0.013333  1.62995e-05 -1.18083e-08      7.24507 
         200     0.053333  2.19145e-05  -1.7097e-07      7.24507 
         200         0.12  3.59809e-05 -7.27547e-07      7.24507 
         200     0.213332  5.48506e-05 -1.80138e-06      7.24507 
         200     0.333332  7.09099e-05 -3.26312e-06      7.24507 
         200         0.48  7.97814e-05 -4.89411e-06      7.24507 
         200     0.653331  8.16028e-05 -6.60796e-06      7.24507 
         200     0.853332  7.70003e-05 -8.47213e-06      7.24507 
         200         1.08  6.71166e-05 -1.04852e-05      7.24507 
         200      1.33333  5.55679e-05 -1.24477e-05      7.24507 
         200      1.61333  4.40535e-05 -1.41019e-05      7.24507 
         200         1.92  3.12585e-05 -1.52898e-05      7.24507 
         200      2.25333    1.958e-05 -1.59059e-05      7.24506 
         200      2.61333  1.00914e-05 -1.59005e-05      7.24506 
         200            3  2.99203e-06 -1.53409e-05      7.24506 
         250            0           -0           -0      6.79929 
         250     0.013333  1.07066e-05 -3.61706e-11      6.79929 
         250     0.053333 -7.58562e-07 -7.97623e-09      6.79929 
         250         0.12 -1.27979e-05  -8.3225e-08      6.79929 
         250     0.213332  -2.0296e-05 -3.63105e-07      6.79929 
         250     0.333332 -2.19156e-05  -9.8379e-07      6.79929 
         250         0.48 -2.03891e-05 -1.97606e-06      6.79929 
         250     0.653331 -1.87993e-05 -3.25815e-06      6.79929 
         250     0.853332 -1.76497e-05 -4.68378e-06      6.79929 
         250         1.08 -1.53255e-05 -6.09546e-06      6.79929 
         250      1.33333 -1.10077e-05 -7.38081e-06      6.79929 
         250      1.61333 -5.43585e-06 -8.48404e-06      6.79929 
         250         1.92  6.88971e-07 -9.32193e-06      6.79929 
         250      2.25333  6.75518e-06 -9.80585e-06      6.79929 
         250      2.61333  1.23894e-05 -9.91766e-06      6.79929 
         250            3  1.72163e-05 -9.66793e-06      6.79929 
         300            0            0            0      6.35429 
         300     0.013333  1.36069e-05 -7.87214e-09      6.35429 
         300     0.053333  1.17127e-05 -1.19602e-07      6.35429 
         300         0.12  1.56539e-05 -5.44766e-07      6.35429 
         300     0.213332  2.57852e-05 -1.45262e-06      6.35429 
         300     0.333332  3.69221e-05 -2.82144e-06      6.35429 
         300         0.48  4.37933e-05 -4.48521e-06      6.35429 
         300     0.653331  4.49247e-05 -6.31048e-06      6.35429 
         300     0.853332   4.1423e-05 -8.24252e-06      6.35429 
         300         1.08  3.59926e-05 -1.01719e-05      6.35429 
         300      1.33333  3.15753e-05 -1.19081e-05      6.35429 
         300      1.61333  2.79361e-05  -1.3332e-05      6.35429 
         300         1.92  2.34592e-05 -1.43637e-05      6.35429 
         300      2.25333  1.87155e-05 -1.49312e-05      6.35429 
         300      2.61333  1.40907e-05  -1.4976e-05      6.35429 
         300            3  9.95488e-06 -1.44995e-05      6.35429 
         350            0           -0           -0      5.90955 
         350     0.013333  1.53265e-05 -5.71929e-09      5.90955 
         350     0.053333  1.69174e-05 -8.20477e-08      5.90955 
         350         0.12  2.22608e-05 -3.42821e-07      5.90955 
         350     0.213332  2.90817e-05 -8.22666e-07      5.90955 
         350     0.333332  3.35449e-05 -1.42795e-06      5.90955 
         350         0.48  3.42183e-05 -2.04976e-06      5.90955 
         350     0.653331  3.21217e-05 -2.69002e-06      5.90955 
         350     0.853332  2.78887e-05 -3.43906e-06      5.90955 
         350         1.08   2.2218e-05 -4.31338e-06      5.90955 
         350      1.33333  1.77479e-05  -5.1603e-06      5.90955 
         350      1.61333  1.55866e-05 -5.81966e-06      5.90955 
         350         1.92  1.36606e-05 -6.26553e-06      5.90955 
         350      2.25333  1.17897e-05 -6.49239e-06      5.90955 
         350      2.61333  1.02885e-05 -6.48034e-06      5.90955 
         350            3   9.3081e-06 -6.23317e-06      5.90955 
         400            0           -0           -0      5.46495 
         400     0.013333  1.58835e-05 -1.35258e-08      5.46495 
         400     0.053333  2.14474e-05  -1.9935e-07      5.46495 
         400         0.12  3.79211e-05  -8.7287e-07      5.46495 
         400     0.213332   6.2415e-05 -2.23519e-06      5.46495 
         400     0.333332  8.50051e-05 -4.18019e-06      5.46495 
         400         0.48   9.8056e-05  -6.4153e-06      5.46495 
         400     0.653331  0.000101027 -8.74356e-06      5.46495 
         400     0.853332  9.62669e-05   -1.117e-05      5.46495 
         400         1.08  8.57314e-05 -1.37368e-05      5.46495 
         400      1.33333  7.29011e-05 -1.62991e-05      5.46495 
         400      1.61333  6.08726e-05 -1.85783e-05      5.46495 
         400         1.92  4.81641e-05 -2.03904e-05      5.46495 
         400      2.25333  3.48758e-05 -2.16229e-05      5.46495 
         400      2.61333  2.17971e-05 -2.21689e-05      5.46495 
         400            3  9.89135e-06 -2.19785e-05      5.46495 
         450            0            0            0      5.02036 
         450     0.013333  1.05486e-05  7.82557e-09      5.02036 
         450     0.053333 -3.71657e-06  1.09895e-07      5.02036 
         450         0.12 -2.51292e-05  4.47592e-07      5.02036 
         450     0.213332 -4.82346e-05   1.0487e-06      5.02036 
         450     0.333332 -6.61465e-05  1.77432e-06      5.02036 
         450         0.48 -7.60058e-05  2.44324e-06      5.02036 
         450     0.653331 -7.94967e-05  2.97976e-06      5.02036 
         450     0.853332 -7.86522e-05  3.45505e-06      5.02036 
         450         1.08  -7.2923e-05  4.03328e-06      5.02036 
         450      1.33333 -6.17222e-05  4.81536e-06      5.02036 
         450      1.61333 -4.75464e-05  5.71524e-06      5.02036 
         450         1.92 -3.24824e-05  6.56131e-06      5.02036 
         450      2.25333 -1.69445e-05   7.2821e-06      5.02036 
         450      2.61333 -1.43486e-06  7.81291e-06      5.02036 
         450            3  1.29583e-05  8.10925e-06      5.02036 
         500            0           -0           -0      4.57588 
         500     0.013333  1.03455e-05 -6.28769e-10      4.57588 
         500     0.053333 -1.95826e-06 -1.49129e-08      4.57588 
         500         0.12 -1.47618e-05 -1.06175e-07      4.57588 
         500     0.213332  -2.1844e-05 -4.16623e-07      4.57588 
         500     0.333332 -2.05292e-05 -1.11511e-06      4.57588 
         500         0.48 -1.33839e-05 -2.28642e-06      4.57588 
         500     0.653331 -5.20206e-06 -3.88376e-06      4.57588 
         500     0.853332  8.60034e-07 -5.78703e-06      4.57588 
         500         1.08  4.30156e-06 -7.87979e-06      4.57588 
         500      1.33333  6.08475e-06 -1.00678e-05      4.57588 
         500      1.61333  7.57307e-06 -1.22378e-05      4.57588 
         500         1.92  9.54769e-06 -1.42505e-05      4.57588 
         500      2.25333  1.18617e-05 -1.59474e-05      4.57588 
         500      2.61333  1.41564e-05  -1.7216e-05      4.57588 
         500            3  1.60891e-05 -1.79738e-05      4.57588 
         550            0            0            0      4.13146 
         550     0.013333  2.51569e-05 -5.65316e-09      4.13146 
         550     0.053333  5.25257e-05  -7.1757e-08      4.13146 
         550         0.12  8.96384e-05 -2.36302e-07      4.13146 
         550     0.213332  0.000122609 -3.49851e-07      4.13146 
         550     0.333332  0.000140907 -9.54916e-08      4.13146 
         550         0.48  0.000144282   7.8587e-07      4.13146 
         550     0.653331  0.000139937  2.32377e-06      4.13146 
         550     0.853332  0.000133953  4.33803e-06      4.13146 
         550         1.08  0.000126517  6.53031e-06      4.13146 
         550      1.33333  0.000114681  8.62358e-06      4.13146 
         550      1.61333  9.83686e-05  1.04926e-05      4.13146 
         550         1.92  8.00363e-05   1.2151e-05      4.13146 
         550      2.25333  6.04912e-05  1.35083e-05      4.13146 
         550      2.61333    4.041e-05  1.44904e-05      4.13146 
         550            3  2.10557e-05  1.50379e-05      4.13146 
         600            0           -0           -0      3.68699 
         600     0.013333  1.22829e-05  7.57899e-09      3.68699 
         600     0.053333  2.40113e-06  1.09119e-07      3.68699 
         600         0.12 -1.42423e-05  4.63643e-07      3.68699 
         600     0.213332   -3.479e-05  1.15366e-06      3.68699 
         600     0.333332  -5.3354e-05  2.10882e-06      3.68699 
         600         0.48 -6.58684e-05  3.18126e-06      3.68699 
         600     0.653331 -7.21926e-05  4.27539e-06      3.68699 
         600     0.853332  -7.3645e-05  5.41054e-06      3.68699 
         600         1.08 -7.00617e-05  6.69595e-06      3.68699 
         600      1.33333 -6.10074e-05  8.20591e-06      3.68699 
         600      1.61333 -4.87175e-05  9.85384e-06      3.68699 
         600         1.92 -3.59102e-05  1.14455e-05      3.68699 
         600      2.25333 -2.25776e-05  1.28369e-05      3.68699 
         600      2.61333  -8.7204e-06  1.39379e-05      3.68699 
         600            3  4.93388e-06  1.46752e-05        3.687 
         650            0            0            0      3.24262 
         650     0.013333  8.98123e-06  6.59319e-09      3.24262 
         650     0.053333 -9.46008e-06  9.41057e-08      3.24262 
         650         0.12 -3.64061e-05  3.89695e-07      3.24262 
         650     0.213332 -6.45904e-05  9.14077e-07      3.24262 
         650     0.333332 -8.46621e-05   1.4918e-06      3.24262 
         650         0.48 -9.20583e-05  1.85831e-06      3.24262 
         650     0.653331 -8.93622e-05  1.85723e-06      3.24262 
         650     0.853332  -8.1881e-05  1.51103e-06      3.24262 
         650         1.08 -7.29526e-05  9.26749e-07      3.24262 
         650      1.33333 -6.35955e-05  1.82337e-07      3.24262 
         650      1.61333 -5.35096e-05 -6.69392e-07      3.24262 
         650         1.92 -4.16074e-05 -1.57756e-06      3.24262 
         650      2.25333 -2.80273e-05 -2.45811e-06      3.24262 
         650      2.61333 -1.34705e-05 -3.28092e-06      3.24262 
         650            3  1.12854e-06 -4.01867e-06      3.24262 
         700            0           -0           -0      2.79835 
         700     0.013333  1.04927e-05 -1.76174e-08      2.79835 
         700     0.053333  3.78358e-06 -2.67941e-07      2.79835 
         700         0.12  1.06348e-05 -1.23469e-06      2.79835 
         700     0.213332   3.6837e-05 -3.38183e-06      2.79835 
         700     0.333332  7.32476e-05 -6.82983e-06      2.79835 
         700         0.48  0.000104842 -1.13188e-05      2.79835 
         700     0.653331   0.00012291 -1.64924e-05      2.79835 
         700     0.853332  0.000126621 -2.21623e-05      2.79835 
         700         1.08  0.000118289 -2.82844e-05      2.79835 
         700      1.33333  0.000102761  -3.4691e-05      2.79835 
         700      1.61333  8.71208e-05 -4.09694e-05      2.79835 
         700         1.92  7.35122e-05 -4.66991e-05      2.79835 
         700      2.25333  5.95866e-05 -5.15727e-05      2.79835 
         700      2.61333    4.458e-05 -5.53045e-05      2.79835 
         700            3  2.95376e-05 -5.76247e-05      2.79835 
         750            0            0            0      2.35409 
         750     0.013333  2.57315e-05   -2.358e-09      2.35409 
         750     0.053333  5.41134e-05 -2.61618e-08      2.35409 
         750         0.12  9.18431e-05 -5.53554e-08      2.35409 
         750     0.213332  0.000125473  6.04178e-08      2.35409 
         750     0.333332  0.000145116  5.82322e-07      2.35409 
         750         0.48  0.000149832  1.73247e-06      2.35409 
         750     0.653331  0.000145798  3.57546e-06      2.35409 
         750     0.853332  0.000139857  6.02748e-06      2.35409 
         750         1.08  0.000134773  8.90856e-06      2.35409 
         750      1.33333  0.000128294  1.19589e-05      2.35409 
         750      1.61333  0.000116673  1.48866e-05      2.35409 
         750         1.92  0.000100111  1.75141e-05      2.35409 
         750      2.25333  8.11544e-05  1.97702e-05      2.35409 
         750      2.61333  6.11218e-05  2.15629e-05      2.35409 
         750            3  4.05551e-05  2.27808e-05      2.35409 
         800            0           -0           -0      1.90981 
         800     0.013333  2.28982e-05    1.457e-08      1.90981 
         800     0.053333  3.79094e-05  2.28779e-07      1.90981 
         800         0.12  4.37149e-05  1.10256e-06      1.90981 
         800     0.213332  2.83167e-05  3.17236e-06      1.90981 
         800     0.333332  -3.5542e-06  6.70984e-06      1.90981 
         800         0.48 -3.58535e-05  1.15474e-05      1.90981 
         800     0.653331 -5.56499e-05  1.72676e-05      1.90981 
         800     0.853332  -6.0184e-05  2.35071e-05      1.90981 
         800         1.08  -5.3829e-05   3.0025e-05      1.90981 
         800      1.33333 -4.36669e-05  3.65698e-05      1.90981 
         800      1.61333 -3.52219e-05  4.28455e-05      1.90981 
         800         1.92 -2.80913e-05  4.86038e-05      1.90981 
         800      2.25333 -2.04648e-05  5.35963e-05      1.90981 
         800      2.61333 -1.18492e-05  5.75314e-05      1.90981 
         800            3 -2.88043e-06  6.01269e-05      1.90981 
         850            0           -0           -0      1.46556 
         850     0.013333 -9.63205e-06  2.61843e-09      1.46556 
         850     0.053333 -7.49531e-05  1.15065e-08      1.46556 
         850         0.12 -0.000153605 -1.37167e-07      1.46556 
         850     0.213332  -0.00021319 -9.85151e-07      1.46556 
         850     0.333332 -0.000234821 -3.26146e-06      1.46556 
         850         0.48 -0.000224855 -7.38247e-06      1.46556 
         850     0.653331 -0.000204197 -1.31999e-05      1.46556 
         850     0.853332 -0.000188557 -2.01803e-05      1.46556 
         850         1.08 -0.000178602 -2.76447e-05      1.46556 
         850      1.33333 -0.000164591 -3.49156e-05      1.46556 
         850      1.61333 -0.000140695 -4.15598e-05      1.46556 
         850         1.92 -0.000112342 -4.75395e-05      1.46556 
         850      2.25333 -8.30841e-05 -5.27627e-05      1.46556 
         850      2.61333 -5.32804e-05 -5.70033e-05      1.46556 
         850            3 -2.28128e-05 -5.99596e-05      1.46557 
         900            0           -0           -0      1.02153 
         900     0.013333  2.45305e-05 -2.40073e-08      1.02153 
         900     0.053333  5.62292e-05 -3.47029e-07      1.02153 
         900         0.12  0.000113549 -1.47753e-06      1.02153 
         900     0.213332  0.000183454 -3.65809e-06      1.02153 
         900     0.333332  0.000242153  -6.5749e-06      1.02153 
         900         0.48  0.000274053 -9.62542e-06      1.02153 
         900     0.653331  0.000281248 -1.24431e-05      1.02153 
         900     0.853332  0.000273427 -1.51373e-05      1.02153 
         900         1.08  0.000254664  -1.8128e-05      1.02153 
         900      1.33333  0.000224367 -2.17294e-05      1.02153 
         900      1.61333  0.000187721 -2.57619e-05      1.02153 
         900         1.92   0.00015416 -2.96698e-05      1.02153 
         900      2.25333  0.000122346 -3.30806e-05      1.02153 
         900      2.61333  8.97039e-05  -3.5839e-05      1.02153 
         900            3  5.60257e-05 -3.78302e-05      1.02153 
         950            0           -0           -0     0.577317 
         950     0.013333  2.69553e-05  1.90519e-08     0.577317 
         950     0.053333  5.11538e-05  2.98719e-07     0.577317 
         950         0.12  6.47509e-05  1.43271e-06     0.577317 
         950     0.213332  5.10126e-05  4.09916e-06     0.577317 
         950     0.333332   1.5239e-05  8.62772e-06     0.577317 
         950         0.48 -2.23486e-05  1.48049e-05     0.577317 
         950     0.653331 -4.51667e-05  2.21417e-05     0.577317 
         950     0.853332 -4.88351e-05  3.02614e-05     0.577317 
         950         1.08 -3.72603e-05  3.89692e-05     0.577317 
         950      1.33333 -1.94164e-05  4.79603e-05     0.577317 
         950      1.61333 -6.30774e-06  5.66674e-05     0.577317 
         950         1.92 -1.80886e-06  6.46023e-05     0.577317 
         950      2.25333  6.10596e-07  7.14789e-05     0.577317 
         950      2.61333  4.00079e-06  7.70548e-05     0.577317 
         950            3  7.67811e-06  8.10227e-05     0.577318 
        1000            0           -0           -0     0.133122 
        1000     0.013333 -5.64526e-06  5.26072e-09     0.133122 
        1000     0.053333 -6.26211e-05  5.00393e-08     0.133122 
        1000         0.12 -0.000136464  5.52751e-08     0.133122 
        1000     0.213332  -0.00019998 -4.06925e-07     0.133122 
        1000     0.333332 -0.000231796 -1.99837e-06     0.133122 
        1000         0.48 -0.000231115 -5.16429e-06     0.133122 
        1000     0.653331 -0.000214496 -9.83475e-06     0.133122 
        1000     0.853332 -0.000198555 -1.55312e-05     0.133122 
        1000         1.08 -0.000186724 -2.16017e-05     0.133122 
        1000      1.33333 -0.000170872 -2.74076e-05     0.133122 
        1000      1.61333 -0.000145102 -3.25834e-05     0.133122 
        1000         1.92 -0.000115277 -3.71918e-05     0.133123 
        1000      2.25333 -8.54395e-05 -4.13486e-05     0.133124 
        1000      2.61333 -5.55722e-05 -4.49214e-05     0.133126 
        1000            3 -2.50266e-05 -4.76777e-05     0.133128 
