Variables = x, y, u, v, p

Zone, I=2080, F=POINT
         -50            0            0            0      7.73196 
         -50      0.00048  1.39339e-06   2.6861e-10      7.73196 
         -50     0.001922  4.87442e-06  9.81151e-10      7.73196 
         -50     0.004326  8.72038e-06  1.89625e-09      7.73196 
         -50      0.00769  1.11652e-05  2.73048e-09      7.73196 
         -50     0.012017  1.14235e-05  3.27352e-09      7.73196 
         -50     0.017304   1.0128e-05  3.44312e-09      7.73196 
         -50     0.023553   8.8385e-06   3.2484e-09      7.73196 
         -50     0.030763  8.79053e-06  2.66888e-09      7.73196 
         -50     0.038936  9.73854e-06  1.53378e-09      7.73196 
         -50     0.048069  1.01096e-05 -4.76251e-10      7.73196 
         -50     0.058163  9.11348e-06 -3.63522e-09      7.73196 
         -50     0.069219  8.96197e-06 -7.94138e-09      7.73196 
         -50     0.081236  9.66328e-06  -1.3549e-08      7.73196 
         -50     0.094215  9.19734e-06  -2.0818e-08      7.73196 
         -50     0.108155  9.29059e-06 -2.97356e-08      7.73196 
         -50     0.123056  9.18165e-06 -4.04346e-08      7.73196 
         -50     0.138918  9.12822e-06 -5.30031e-08      7.73196 
         -50     0.155744  9.17085e-06 -6.75827e-08      7.73196 
         -50     0.173529  9.22058e-06 -8.43141e-08      7.73196 
         -50     0.192276  9.20094e-06 -1.03295e-07      7.73196 
         -50     0.211984  9.16485e-06  -1.2454e-07      7.73195 
         -50     0.232655  9.23039e-06 -1.48059e-07      7.73195 
         -50     0.254285  9.18632e-06 -1.73817e-07      7.73195 
         -50     0.276877   9.2032e-06 -2.00311e-07      7.73195 
         -50     0.300431    9.192e-06 -2.28319e-07      7.73195 
         -50     0.324946  9.16276e-06 -2.57721e-07      7.73195 
         -50     0.350424  9.12119e-06 -2.88156e-07      7.73194 
         -50     0.376861  9.06925e-06 -3.19207e-07      7.73194 
         -50      0.40426  9.00615e-06 -3.50632e-07      7.73194 
         -50     0.432621  8.92999e-06 -3.82516e-07      7.73194 
         -50     0.461945  8.83957e-06 -4.15293e-07      7.73193 
         -50     0.492228  8.73587e-06 -4.49462e-07      7.73193 
         -50     0.523472  8.62261e-06 -4.84828e-07      7.73193 
         -50     0.555678  8.50484e-06 -5.18973e-07      7.73192 
         -50     0.588845  8.38419e-06 -5.44643e-07      7.73192 
         -50     0.622976  8.25965e-06 -5.69824e-07      7.73191 
         -50     0.658066  8.14275e-06 -6.19001e-07      7.73191 
         -50     0.694117  8.03136e-06 -6.66528e-07       7.7319 
         -50      0.73113  7.93045e-06 -7.10962e-07      7.73189 
         -50     0.769107  7.84403e-06 -7.51412e-07      7.73189 
         -50     0.808042  7.77511e-06 -7.87509e-07      7.73188 
         -50     0.847939  7.72558e-06 -8.19378e-07      7.73187 
         -50     0.888797  7.69633e-06 -8.47532e-07      7.73186 
         -50      0.93062  7.68722e-06 -8.72774e-07      7.73185 
         -50       0.9734  7.69727e-06 -8.96041e-07      7.73184 
         -50      1.01714  7.72474e-06 -9.18265e-07      7.73183 
         -50      1.06185  7.76739e-06 -9.40196e-07      7.73182 
         -50      1.10751  7.82267e-06 -9.62248e-07      7.73181 
         -50      1.15414  7.88795e-06 -9.84368e-07      7.73179 
         -50      1.20173  7.96075e-06 -1.00595e-06      7.73178 
         -50      1.25028  8.03895e-06 -1.02582e-06      7.73176 
         -50      1.29979  8.12086e-06 -1.04239e-06      7.73175 
         -50      1.35026   8.2053e-06 -1.05389e-06      7.73173 
         -50       1.4017  8.29135e-06 -1.05886e-06      7.73171 
         -50      1.45409  8.37807e-06 -1.05692e-06      7.73169 
         -50      1.50745   8.4645e-06 -1.04991e-06      7.73167 
         -50      1.56176  8.59785e-06 -1.04314e-06      7.73165 
         -50      1.61705  8.74734e-06 -1.03614e-06      7.73163 
         -50      1.67329   8.9068e-06 -1.02885e-06      7.73161 
         -50      1.73049  9.07126e-06 -1.02083e-06      7.73158 
         -50      1.78865  9.23687e-06 -1.01127e-06      7.73156 
         -50      1.84778  9.40091e-06 -9.99077e-07      7.73153 
         -50      1.90786  9.56162e-06 -9.82988e-07       7.7315 
         -50      1.96891  9.71818e-06 -9.61624e-07      7.73147 
         -50      2.03092  9.87052e-06  -9.3362e-07      7.73144 
         -50      2.09389  1.00192e-05 -8.97731e-07      7.73141 
         -50      2.15782   1.0165e-05 -8.52966e-07      7.73137 
         -50      2.22272  1.03091e-05 -7.98683e-07      7.73134 
         -50      2.28857  1.04525e-05 -7.34721e-07       7.7313 
         -50      2.35539   1.0596e-05 -6.61498e-07      7.73126 
         -50      2.42317  1.07399e-05 -5.80092e-07      7.73122 
         -50      2.49191  1.08837e-05 -4.92326e-07      7.73118 
         -50      2.56161  1.10262e-05 -4.00757e-07      7.73113 
         -50      2.63226   1.1165e-05 -3.08679e-07      7.73109 
         -50      2.70389   1.1297e-05  -2.2003e-07      7.73104 
         -50      2.77648  1.14176e-05 -1.39275e-07      7.73099 
         -50      2.85002  1.15219e-05 -7.11188e-08      7.73094 
         -50      2.92453  1.16039e-05 -2.01906e-08      7.73088 
         -50            3  1.16579e-05  9.42876e-09      7.73083 
         -25            0  1.05912e-20  9.64539e-25      7.42158 
         -25      0.00048  1.05251e-06  9.74314e-11      7.42158 
         -25     0.001922  3.69754e-06  3.60586e-10      7.42158 
         -25     0.004326  6.67152e-06  7.17018e-10      7.42158 
         -25      0.00769  8.67749e-06  1.09199e-09      7.42158 
         -25     0.012017  9.13521e-06  1.45361e-09      7.42158 
         -25     0.017304  8.50123e-06  1.83517e-09      7.42158 
         -25     0.023553  7.90964e-06  2.32333e-09      7.42158 
         -25     0.030763  8.25647e-06  3.01364e-09      7.42158 
         -25     0.038936  9.35293e-06  3.96645e-09      7.42158 
         -25     0.048069   1.0038e-05  5.20659e-09      7.42158 
         -25     0.058163  9.72399e-06  6.79717e-09      7.42158 
         -25     0.069219  1.00212e-05  8.92378e-09      7.42158 
         -25     0.081236  1.09275e-05   1.1725e-08      7.42158 
         -25     0.094215  1.09569e-05  1.52783e-08      7.42158 
         -25     0.108155  1.13674e-05  1.98145e-08      7.42158 
         -25     0.123056   1.1597e-05  2.54985e-08      7.42158 
         -25     0.138918  1.18316e-05  3.25294e-08      7.42158 
         -25     0.155744  1.20992e-05  4.11007e-08      7.42158 
         -25     0.173529  1.23348e-05   5.1402e-08      7.42158 
         -25     0.192276  1.24837e-05   6.3634e-08      7.42158 
         -25     0.211984  1.25873e-05  7.80024e-08      7.42158 
         -25     0.232655  1.27354e-05  9.46926e-08      7.42158 
         -25     0.254285   1.2778e-05  1.13794e-07      7.42158 
         -25     0.276877  1.28447e-05  1.35512e-07      7.42158 
         -25     0.300431  1.28758e-05  1.59909e-07      7.42158 
         -25     0.324946  1.28833e-05  1.86929e-07      7.42157 
         -25     0.350424  1.28766e-05  2.16468e-07      7.42157 
         -25     0.376861  1.28619e-05  2.48393e-07      7.42157 
         -25      0.40426  1.28431e-05  2.82611e-07      7.42157 
         -25     0.432621  1.28225e-05  3.19092e-07      7.42157 
         -25     0.461945  1.28019e-05  3.57911e-07      7.42157 
         -25     0.492228  1.27837e-05  3.99246e-07      7.42157 
         -25     0.523472  1.27711e-05  4.43348e-07      7.42157 
         -25     0.555678  1.27668e-05  4.90411e-07      7.42156 
         -25     0.588845  1.27696e-05  5.40326e-07      7.42156 
         -25     0.622976  1.27732e-05  5.91593e-07      7.42156 
         -25     0.658066  1.27824e-05  6.44599e-07      7.42156 
         -25     0.694117  1.27909e-05  6.99938e-07      7.42156 
         -25      0.73113   1.2794e-05  7.56509e-07      7.42155 
         -25     0.769107  1.27873e-05  8.13471e-07      7.42155 
         -25     0.808042  1.27667e-05  8.70213e-07      7.42155 
         -25     0.847939  1.27288e-05  9.26361e-07      7.42155 
         -25     0.888797  1.26705e-05  9.81714e-07      7.42154 
         -25      0.93062  1.25896e-05   1.0362e-06      7.42154 
         -25       0.9734  1.24844e-05  1.08979e-06      7.42153 
         -25      1.01714  1.23543e-05  1.14247e-06      7.42153 
         -25      1.06185  1.21993e-05  1.19413e-06      7.42153 
         -25      1.10751  1.20203e-05  1.24455e-06      7.42152 
         -25      1.15414  1.18187e-05  1.29335e-06      7.42152 
         -25      1.20173  1.15964e-05     1.34e-06      7.42151 
         -25      1.25028  1.13555e-05   1.3839e-06      7.42151 
         -25      1.29979  1.10981e-05  1.42455e-06       7.4215 
         -25      1.35026  1.08254e-05  1.46181e-06      7.42149 
         -25       1.4017  1.05375e-05   1.4963e-06      7.42149 
         -25      1.45409  1.02323e-05  1.53002e-06      7.42148 
         -25      1.50745  9.90528e-06   1.5672e-06      7.42147 
         -25      1.56176  9.58937e-06  1.60275e-06      7.42146 
         -25      1.61705  9.26524e-06  1.62744e-06      7.42146 
         -25      1.67329    8.945e-06   1.6458e-06      7.42145 
         -25      1.73049  8.63809e-06  1.66136e-06      7.42144 
         -25      1.78865   8.3514e-06  1.67663e-06      7.42143 
         -25      1.84778  8.08931e-06  1.69314e-06      7.42142 
         -25      1.90786  7.85384e-06  1.71147e-06      7.42141 
         -25      1.96891  7.64474e-06   1.7313e-06       7.4214 
         -25      2.03092  7.45983e-06   1.7515e-06      7.42138 
         -25      2.09389  7.29527e-06  1.77028e-06      7.42137 
         -25      2.15782    7.146e-06  1.78527e-06      7.42136 
         -25      2.22272  7.00603e-06  1.79374e-06      7.42134 
         -25      2.28857  6.86901e-06  1.79272e-06      7.42133 
         -25      2.35539  6.72868e-06  1.77925e-06      7.42132 
         -25      2.42317  6.57938e-06  1.75051e-06       7.4213 
         -25      2.49191  6.41657e-06  1.70412e-06      7.42128 
         -25      2.56161  6.23727e-06  1.63825e-06      7.42127 
         -25      2.63226  6.04051e-06  1.55189e-06      7.42125 
         -25      2.70389  5.82765e-06  1.44493e-06      7.42123 
         -25      2.77648  5.60271e-06  1.31841e-06      7.42121 
         -25      2.85002  5.37231e-06   1.1745e-06      7.42119 
         -25      2.92453  5.14562e-06  1.01657e-06      7.42117 
         -25            3  4.93398e-06  8.49136e-07      7.42115 
           0            0  9.44522e-17 -6.96733e-17      7.16425 
           0      0.00048  2.79227e-06 -2.06393e-06      7.16426 
           0     0.001922  9.68315e-06 -7.20103e-06       7.1643 
           0     0.004326   1.7046e-05 -1.28008e-05      7.16437 
           0      0.00769  2.12641e-05 -1.61509e-05      7.16445 
           0     0.012017  2.09323e-05 -1.59727e-05      7.16455 
           0     0.017304  1.77091e-05 -1.31199e-05      7.16464 
           0     0.023553  1.50723e-05 -9.92246e-06      7.16473 
           0     0.030763  1.54582e-05   -8.402e-06      7.16483 
           0     0.038936  1.77993e-05   -8.554e-06      7.16493 
           0     0.048069   1.8257e-05 -8.43449e-06      7.16504 
           0     0.058163  1.54462e-05 -6.97481e-06      7.16515 
           0     0.069219    1.536e-05 -6.91322e-06      7.16525 
           0     0.081236  1.75002e-05 -7.11016e-06      7.16537 
           0     0.094215  1.61779e-05 -6.10788e-06      7.16548 
           0     0.108155  1.63511e-05 -6.09438e-06       7.1656 
           0     0.123056  1.60977e-05  -5.6998e-06      7.16571 
           0     0.138918  1.59959e-05 -5.36392e-06      7.16583 
           0     0.155744  1.60787e-05  -5.1799e-06      7.16595 
           0     0.173529  1.60928e-05 -5.02854e-06      7.16607 
           0     0.192276  1.58848e-05 -4.79791e-06       7.1662 
           0     0.211984  1.56797e-05 -4.56393e-06      7.16632 
           0     0.232655  1.58018e-05 -4.48406e-06      7.16644 
           0     0.254285  1.55498e-05 -4.23882e-06      7.16657 
           0     0.276877   1.5481e-05 -4.10974e-06      7.16669 
           0     0.300431  1.53793e-05 -3.96104e-06      7.16682 
           0     0.324946  1.52665e-05  -3.8111e-06      7.16695 
           0     0.350424  1.51653e-05 -3.67119e-06      7.16707 
           0     0.376861  1.50688e-05 -3.53295e-06       7.1672 
           0      0.40426  1.49801e-05 -3.39912e-06      7.16733 
           0     0.432621  1.49021e-05 -3.26832e-06      7.16746 
           0     0.461945  1.48333e-05 -3.14001e-06      7.16758 
           0     0.492228  1.47752e-05 -3.01415e-06      7.16771 
           0     0.523472  1.47267e-05 -2.89056e-06      7.16784 
           0     0.555678  1.46864e-05 -2.76904e-06      7.16797 
           0     0.588845  1.46519e-05  -2.6494e-06      7.16809 
           0     0.622976  1.46205e-05 -2.53202e-06      7.16822 
           0     0.658066  1.45884e-05 -2.41629e-06      7.16835 
           0     0.694117  1.45511e-05 -2.30234e-06      7.16847 
           0      0.73113  1.45047e-05 -2.19072e-06       7.1686 
           0     0.769107  1.44449e-05 -2.08147e-06      7.16872 
           0     0.808042  1.43674e-05 -1.97435e-06      7.16885 
           0     0.847939  1.42681e-05 -1.86949e-06      7.16898 
           0     0.888797  1.41447e-05 -1.76686e-06       7.1691 
           0      0.93062  1.39963e-05 -1.66757e-06      7.16922 
           0       0.9734  1.38217e-05 -1.57151e-06      7.16935 
           0      1.01714   1.3622e-05 -1.47833e-06      7.16947 
           0      1.06185  1.33993e-05 -1.38797e-06      7.16959 
           0      1.10751  1.31562e-05 -1.30048e-06      7.16971 
           0      1.15414  1.28964e-05 -1.21629e-06      7.16983 
           0      1.20173  1.26235e-05   -1.135e-06      7.16995 
           0      1.25028  1.23406e-05 -1.05618e-06      7.17007 
           0      1.29979  1.20501e-05 -9.80575e-07      7.17019 
           0      1.35026  1.17526e-05 -9.06939e-07      7.17031 
           0       1.4017  1.14492e-05 -8.36762e-07      7.17043 
           0      1.45409  1.11403e-05 -7.69779e-07      7.17054 
           0      1.50745   1.0825e-05 -7.04742e-07      7.17066 
           0      1.56176   1.0504e-05 -6.42965e-07      7.17077 
           0      1.61705  1.01775e-05 -5.84722e-07      7.17089 
           0      1.67329  9.84785e-06 -5.29844e-07        7.171 
           0      1.73049  9.52019e-06 -4.78365e-07      7.17111 
           0      1.78865  9.20033e-06 -4.30095e-07      7.17122 
           0      1.84778  8.88857e-06 -3.83746e-07      7.17133 
           0      1.90786  8.58892e-06 -3.40637e-07      7.17144 
           0      1.96891  8.30802e-06 -3.01802e-07      7.17154 
           0      2.03092   8.0383e-06 -2.63785e-07      7.17165 
           0      2.09389  7.78584e-06 -2.27969e-07      7.17176 
           0      2.15782  7.55515e-06 -1.94717e-07      7.17186 
           0      2.22272  7.34742e-06 -1.59078e-07      7.17196 
           0      2.28857  7.16311e-06 -1.22864e-07      7.17206 
           0      2.35539  7.00548e-06  -8.6375e-08      7.17216 
           0      2.42317  6.87824e-06 -4.79216e-08      7.17226 
           0      2.49191  6.78471e-06 -4.70059e-09      7.17236 
           0      2.56161  6.72653e-06  4.57115e-08      7.17246 
           0      2.63226  6.70187e-06  1.03045e-07      7.17256 
           0      2.70389  6.70308e-06  1.61083e-07      7.17265 
           0      2.77648  6.71964e-06  2.12639e-07      7.17274 
           0      2.85002  6.75797e-06  2.73619e-07      7.17283 
           0      2.92453  6.79934e-06   3.2202e-07      7.17293 
           0            3  6.83791e-06  3.61312e-07      7.17302 
          20            0           -0           -0      7.01465 
          20      0.00048  8.21919e-07  1.55206e-10      7.01465 
          20     0.001922  2.87074e-06  5.43725e-10      7.01465 
          20     0.004326  5.11965e-06  9.57033e-10      7.01465 
          20      0.00769  6.51754e-06  1.11811e-09      7.01465 
          20     0.012017  6.60051e-06   7.4856e-10      7.01465 
          20     0.017304  5.75342e-06 -3.98398e-10      7.01465 
          20     0.023553  4.91539e-06 -2.56238e-09      7.01465 
          20     0.030763  4.83235e-06 -6.04631e-09      7.01465 
          20     0.038936  5.36488e-06 -1.12882e-08      7.01465 
          20     0.048069  5.57972e-06 -1.88499e-08      7.01465 
          20     0.058163  5.01003e-06  -2.9295e-08      7.01465 
          20     0.069219  4.98129e-06 -4.30331e-08      7.01465 
          20     0.081236  5.50038e-06 -6.05548e-08      7.01465 
          20     0.094215  5.35907e-06 -8.24578e-08      7.01465 
          20     0.108155  5.58712e-06 -1.09119e-07      7.01465 
          20     0.123056  5.72389e-06 -1.40841e-07      7.01465 
          20     0.138918  5.91613e-06 -1.77874e-07      7.01465 
          20     0.155744  6.17978e-06 -2.20455e-07      7.01465 
          20     0.173529  6.45245e-06 -2.68688e-07      7.01465 
          20     0.192276  6.67872e-06 -3.22503e-07      7.01465 
          20     0.211984  6.88072e-06 -3.81609e-07      7.01465 
          20     0.232655  7.12195e-06 -4.45687e-07      7.01464 
          20     0.254285   7.2731e-06 -5.14793e-07      7.01464 
          20     0.276877   7.4266e-06 -5.88234e-07      7.01464 
          20     0.300431  7.53872e-06 -6.65396e-07      7.01464 
          20     0.324946  7.61973e-06 -7.45396e-07      7.01464 
          20     0.350424  7.68146e-06 -8.27191e-07      7.01464 
          20     0.376861  7.73598e-06 -9.09517e-07      7.01464 
          20      0.40426  7.79531e-06 -9.91513e-07      7.01464 
          20     0.432621  7.87162e-06 -1.07213e-06      7.01463 
          20     0.461945  7.97476e-06  -1.1504e-06      7.01463 
          20     0.492228  8.11067e-06  -1.2256e-06      7.01463 
          20     0.523472  8.28004e-06 -1.29728e-06      7.01463 
          20     0.555678  8.47733e-06 -1.36538e-06      7.01463 
          20     0.588845  8.69054e-06 -1.43025e-06      7.01462 
          20     0.622976  8.90227e-06 -1.49264e-06      7.01462 
          20     0.658066  9.09247e-06 -1.55363e-06      7.01462 
          20     0.694117  9.24401e-06 -1.61445e-06      7.01461 
          20      0.73113  9.34864e-06  -1.6756e-06      7.01461 
          20     0.769107  9.39686e-06 -1.73743e-06       7.0146 
          20     0.808042  9.39421e-06 -1.80015e-06       7.0146 
          20     0.847939  9.34891e-06 -1.86311e-06      7.01459 
          20     0.888797  9.26957e-06 -1.92576e-06      7.01459 
          20      0.93062  9.16518e-06 -1.98755e-06      7.01458 
          20       0.9734  9.04484e-06 -2.04788e-06      7.01458 
          20      1.01714  8.91971e-06 -2.10594e-06      7.01457 
          20      1.06185   8.7955e-06 -2.16139e-06      7.01456 
          20      1.10751   8.6755e-06 -2.21377e-06      7.01456 
          20      1.15414  8.56071e-06 -2.26237e-06      7.01455 
          20      1.20173  8.45005e-06  -2.3075e-06      7.01454 
          20      1.25028  8.34518e-06 -2.34858e-06      7.01453 
          20      1.29979  8.24444e-06 -2.38557e-06      7.01452 
          20      1.35026  8.14571e-06 -2.41854e-06      7.01451 
          20       1.4017   8.0473e-06 -2.44729e-06       7.0145 
          20      1.45409  7.94786e-06 -2.47149e-06      7.01449 
          20      1.50745  7.84651e-06 -2.49088e-06      7.01448 
          20      1.56176  7.74296e-06 -2.50556e-06      7.01447 
          20      1.61705  7.63729e-06 -2.51599e-06      7.01446 
          20      1.67329  7.52731e-06 -2.52068e-06      7.01444 
          20      1.73049   7.4157e-06 -2.52086e-06      7.01443 
          20      1.78865  7.30357e-06 -2.51645e-06      7.01441 
          20      1.84778  7.18976e-06 -2.50657e-06       7.0144 
          20      1.90786  7.07768e-06 -2.49157e-06      7.01438 
          20      1.96891   6.9698e-06 -2.47182e-06      7.01437 
          20      2.03092  6.86649e-06 -2.44776e-06      7.01435 
          20      2.09389  6.76585e-06 -2.41906e-06      7.01433 
          20      2.15782  6.67411e-06 -2.38493e-06      7.01431 
          20      2.22272  6.59393e-06 -2.34646e-06      7.01429 
          20      2.28857  6.52415e-06 -2.30376e-06      7.01427 
          20      2.35539  6.46575e-06 -2.25631e-06      7.01425 
          20      2.42317  6.42497e-06 -2.20284e-06      7.01423 
          20      2.49191  6.41368e-06 -2.14157e-06      7.01421 
          20      2.56161  6.41771e-06 -2.07545e-06      7.01419 
          20      2.63226  6.45072e-06 -2.00226e-06      7.01416 
          20      2.70389  6.50522e-06 -1.92205e-06      7.01414 
          20      2.77648  6.57769e-06 -1.83761e-06      7.01411 
          20      2.85002  6.66502e-06 -1.75279e-06      7.01409 
          20      2.92453  6.75495e-06 -1.66786e-06      7.01406 
          20            3  6.83925e-06 -1.58597e-06      7.01403 
          40            0           -0           -0      6.85137 
          40      0.00048  7.73181e-07  1.90847e-11      6.85137 
          40     0.001922  2.72023e-06  3.24749e-11      6.85137 
          40     0.004326  4.92303e-06 -8.59742e-11      6.85137 
          40      0.00769  6.44043e-06  -5.2872e-10      6.85137 
          40     0.012017  6.85443e-06 -1.53521e-09      6.85137 
          40     0.017304  6.50268e-06 -3.37132e-09      6.85137 
          40     0.023553  6.21649e-06 -6.31841e-09      6.85137 
          40     0.030763  6.65324e-06 -1.06631e-08      6.85137 
          40     0.038936  7.67924e-06 -1.66917e-08      6.85137 
          40     0.048069  8.45122e-06 -2.46662e-08      6.85137 
          40     0.058163  8.54209e-06 -3.47979e-08      6.85137 
          40     0.069219  9.12433e-06 -4.72115e-08      6.85137 
          40     0.081236  1.01936e-05 -6.19704e-08      6.85137 
          40     0.094215  1.06634e-05 -7.90796e-08      6.85137 
          40     0.108155  1.14443e-05 -9.84303e-08      6.85137 
          40     0.123056  1.21199e-05 -1.19854e-07      6.85137 
          40     0.138918   1.2818e-05 -1.43111e-07      6.85137 
          40     0.155744  1.35513e-05 -1.67917e-07      6.85137 
          40     0.173529  1.42643e-05 -1.93934e-07      6.85137 
          40     0.192276  1.49099e-05 -2.20815e-07      6.85137 
          40     0.211984  1.55118e-05 -2.48197e-07      6.85137 
          40     0.232655  1.61302e-05 -2.75744e-07      6.85137 
          40     0.254285  1.66513e-05 -3.03177e-07      6.85137 
          40     0.276877  1.71665e-05 -3.30183e-07      6.85137 
          40     0.300431  1.76298e-05 -3.56581e-07      6.85137 
          40     0.324946  1.80491e-05 -3.82292e-07      6.85137 
          40     0.350424    1.843e-05 -4.07282e-07      6.85137 
          40     0.376861  1.87761e-05 -4.31573e-07      6.85137 
          40      0.40426  1.90892e-05 -4.55274e-07      6.85137 
          40     0.432621  1.93694e-05 -4.78591e-07      6.85137 
          40     0.461945  1.96161e-05 -5.01833e-07      6.85137 
          40     0.492228  1.98284e-05 -5.25405e-07      6.85137 
          40     0.523472   2.0005e-05 -5.49771e-07      6.85137 
          40     0.555678  2.01441e-05  -5.7538e-07      6.85137 
          40     0.588845  2.02413e-05 -6.02522e-07      6.85137 
          40     0.622976  2.02911e-05 -6.31249e-07      6.85137 
          40     0.658066  2.02919e-05 -6.62795e-07      6.85137 
          40     0.694117  2.02377e-05 -6.97279e-07      6.85136 
          40      0.73113  2.01294e-05  -7.3438e-07      6.85136 
          40     0.769107  1.99683e-05 -7.73828e-07      6.85136 
          40     0.808042   1.9756e-05 -8.15391e-07      6.85136 
          40     0.847939  1.94944e-05 -8.58876e-07      6.85136 
          40     0.888797  1.91858e-05 -9.04094e-07      6.85136 
          40      0.93062  1.88324e-05 -9.50855e-07      6.85136 
          40       0.9734   1.8437e-05 -9.98917e-07      6.85136 
          40      1.01714  1.80026e-05   -1.048e-06      6.85136 
          40      1.06185  1.75322e-05 -1.09774e-06      6.85136 
          40      1.10751  1.70294e-05 -1.14769e-06      6.85136 
          40      1.15414  1.64978e-05 -1.19733e-06      6.85136 
          40      1.20173  1.59414e-05 -1.24606e-06      6.85135 
          40      1.25028  1.53646e-05 -1.29332e-06      6.85135 
          40      1.29979  1.47723e-05  -1.3386e-06      6.85135 
          40      1.35026  1.41697e-05 -1.38166e-06      6.85135 
          40       1.4017  1.35631e-05 -1.42267e-06      6.85135 
          40      1.45409  1.29593e-05 -1.46253e-06      6.85135 
          40      1.50745  1.23655e-05   -1.503e-06      6.85135 
          40      1.56176   1.1735e-05 -1.53089e-06      6.85134 
          40      1.61705  1.10978e-05 -1.55749e-06      6.85134 
          40      1.67329  1.04653e-05 -1.58205e-06      6.85134 
          40      1.73049  9.84713e-06 -1.60397e-06      6.85134 
          40      1.78865    9.251e-06 -1.62275e-06      6.85134 
          40      1.84778   8.6831e-06 -1.63801e-06      6.85133 
          40      1.90786  8.14796e-06 -1.64949e-06      6.85133 
          40      1.96891  7.64835e-06 -1.65702e-06      6.85133 
          40      2.03092  7.18556e-06 -1.66058e-06      6.85132 
          40      2.09389  6.75947e-06  -1.6602e-06      6.85132 
          40      2.15782  6.36884e-06 -1.65602e-06      6.85132 
          40      2.22272  6.01133e-06 -1.64825e-06      6.85132 
          40      2.28857   5.6839e-06 -1.63714e-06      6.85131 
          40      2.35539  5.38301e-06 -1.62299e-06      6.85131 
          40      2.42317  5.10495e-06 -1.60613e-06      6.85131 
          40      2.49191  4.84614e-06 -1.58685e-06       6.8513 
          40      2.56161  4.60335e-06 -1.56546e-06       6.8513 
          40      2.63226  4.37404e-06 -1.54222e-06      6.85129 
          40      2.70389  4.15657e-06 -1.51732e-06      6.85129 
          40      2.77648  3.95047e-06 -1.49091e-06      6.85129 
          40      2.85002  3.75644e-06 -1.46306e-06      6.85128 
          40      2.92453  3.57646e-06 -1.43376e-06      6.85128 
          40            3  3.41363e-06 -1.40293e-06      6.85127 
          60            0           -0           -0      6.69809 
          60      0.00048  6.54805e-07  1.73978e-11      6.69809 
          60     0.001922  2.26081e-06  1.25452e-10      6.69809 
          60     0.004326  3.93523e-06  4.90782e-10      6.69809 
          60      0.00769  4.77254e-06  1.38643e-09      6.69809 
          60     0.012017  4.36773e-06  3.18451e-09      6.69809 
          60     0.017304  3.04226e-06  6.33543e-09      6.69809 
          60     0.023553  1.59187e-06  1.13449e-08      6.69809 
          60     0.030763   6.4898e-07  1.87344e-08      6.69809 
          60     0.038936  9.07848e-08  2.90072e-08      6.69809 
          60     0.048069  -8.8019e-07  4.26039e-08      6.69809 
          60     0.058163 -2.65761e-06  5.98874e-08      6.69809 
          60     0.069219 -4.09551e-06  8.11162e-08      6.69809 
          60     0.081236 -5.17076e-06  1.06388e-07      6.69809 
          60     0.094215 -6.89366e-06  1.35626e-07      6.69809 
          60     0.108155 -8.35526e-06  1.68585e-07      6.69809 
          60     0.123056 -9.91693e-06  2.04814e-07      6.69809 
          60     0.138918 -1.14178e-05  2.43688e-07      6.69809 
          60     0.155744 -1.28088e-05  2.84431e-07      6.69809 
          60     0.173529 -1.41082e-05  3.26111e-07      6.69809 
          60     0.192276 -1.53316e-05  3.67707e-07      6.69809 
          60     0.211984 -1.64323e-05  4.08135e-07      6.69809 
          60     0.232655 -1.73356e-05  4.46313e-07      6.69809 
          60     0.254285 -1.81403e-05  4.81226e-07      6.69809 
          60     0.276877 -1.87556e-05  5.11836e-07      6.69809 
          60     0.300431 -1.92288e-05  5.37314e-07      6.69809 
          60     0.324946 -1.95622e-05   5.5704e-07      6.69809 
          60     0.350424  -1.9763e-05  5.70515e-07      6.69809 
          60     0.376861 -1.98432e-05  5.77391e-07      6.69809 
          60      0.40426 -1.98176e-05  5.77503e-07      6.69809 
          60     0.432621 -1.97021e-05  5.70889e-07      6.69809 
          60     0.461945  -1.9512e-05  5.57793e-07      6.69809 
          60     0.492228 -1.92599e-05  5.38641e-07      6.69809 
          60     0.523472 -1.89552e-05  5.13979e-07      6.69809 
          60     0.555678  -1.8604e-05  4.84352e-07      6.69809 
          60     0.588845 -1.82128e-05  4.50119e-07      6.69809 
          60     0.622976 -1.77918e-05  4.11188e-07      6.69809 
          60     0.658066 -1.73361e-05  3.69601e-07      6.69809 
          60     0.694117 -1.68471e-05  3.25779e-07      6.69809 
          60      0.73113 -1.63303e-05  2.79207e-07      6.69809 
          60     0.769107 -1.57907e-05  2.29533e-07      6.69809 
          60     0.808042 -1.52331e-05  1.76572e-07      6.69809 
          60     0.847939 -1.46614e-05   1.2027e-07      6.69809 
          60     0.888797 -1.40789e-05  6.06932e-08      6.69809 
          60      0.93062 -1.34879e-05 -2.01494e-09      6.69809 
          60       0.9734 -1.28893e-05 -6.76443e-08      6.69809 
          60      1.01714 -1.22828e-05 -1.35994e-07      6.69809 
          60      1.06185 -1.16668e-05 -2.06867e-07      6.69809 
          60      1.10751 -1.10383e-05 -2.80117e-07      6.69809 
          60      1.15414  -1.0393e-05 -3.55637e-07      6.69809 
          60      1.20173 -9.72603e-06 -4.33314e-07      6.69808 
          60      1.25028 -9.03189e-06  -5.1299e-07      6.69808 
          60      1.29979 -8.30547e-06  -5.9431e-07      6.69808 