Variables = x, y, u, v, p

Zone, I=416, F=POINT
         -50            0            0            0      6.04127 
         -50     0.013333  3.11244e-06  2.72558e-09      6.04127 
         -50     0.053333  8.32388e-07  9.11555e-09      6.04127 
         -50         0.12 -7.39137e-07  2.59244e-08      6.04126 
         -50     0.213332  -1.9214e-06  4.63972e-08      6.04126 
         -50     0.333332 -2.54266e-06  4.32503e-08      6.04125 
         -50         0.48 -2.78418e-06   3.1431e-08      6.04124 
         -50     0.653331 -2.72993e-06 -8.71965e-08      6.04122 
         -50     0.853332 -2.32102e-06 -1.58101e-07      6.04119 
         -50         1.08 -1.45049e-06  -1.5888e-07      6.04115 
         -50      1.33333 -2.61748e-07 -2.13307e-07      6.04109 
         -50      1.61333  9.21325e-07 -2.11869e-07      6.04101 
         -50         1.92  2.01163e-06 -2.21622e-07       6.0409 
         -50      2.25333  2.82123e-06 -1.56162e-07      6.04077 
         -50      2.61333  3.11259e-06 -1.78988e-07       6.0406 
         -50            3  2.95254e-06 -4.30346e-07      6.04038 
         -25            0  4.78372e-21  7.18115e-25      5.79888 
         -25     0.013333  2.50013e-06   1.2927e-10      5.79888 
         -25     0.053333  1.63437e-06 -9.31446e-09      5.79888 
         -25         0.12   1.8972e-06 -4.35381e-08      5.79888 
         -25     0.213332  2.62809e-06 -1.11281e-07      5.79888 
         -25     0.333332  3.44346e-06 -2.05849e-07      5.79888 
         -25         0.48  4.02219e-06 -3.28108e-07      5.79888 
         -25     0.653331  4.18682e-06 -4.77897e-07      5.79887 
         -25     0.853332  3.89006e-06 -6.39208e-07      5.79886 
         -25         1.08  3.35836e-06 -8.04081e-07      5.79884 
         -25      1.33333  2.73158e-06 -9.37462e-07      5.79882 
         -25      1.61333  1.99597e-06 -1.01845e-06      5.79879 
         -25         1.92  1.05432e-06 -1.03563e-06      5.79875 
         -25      2.25333  6.04896e-07  -9.7017e-07       5.7987 
         -25      2.61333  7.55712e-07 -8.86096e-07      5.79863 
         -25            3  1.00167e-06 -8.67723e-07      5.79855 
           0            0  1.95622e-17 -2.04271e-17      5.59789 
           0     0.013333  1.54944e-06 -4.82193e-06      5.59813 
           0     0.053333   2.3941e-06  -1.6523e-06      5.59854 
           0         0.12  9.31725e-07 -1.49742e-06      5.59901 
           0     0.213332 -1.63116e-06 -1.03656e-06      5.59951 
           0     0.333332 -4.02443e-06 -6.63554e-07      5.60002 
           0         0.48 -5.67176e-06 -2.28262e-07      5.60055 
           0     0.653331 -6.23924e-06  2.39279e-07      5.60107 
           0     0.853332 -5.77387e-06  7.30695e-07      5.60159 
           0         1.08 -4.69437e-06  1.21369e-06       5.6021 
           0      1.33333 -3.42031e-06  1.64868e-06      5.60259 
           0      1.61333 -1.98182e-06  1.99371e-06      5.60306 
           0         1.92 -6.43193e-07  2.21448e-06      5.60351 
           0      2.25333 -1.49136e-07  2.28449e-06      5.60395 
           0      2.61333  1.07248e-07  2.32436e-06      5.60435 
           0            3  9.35375e-07  2.38799e-06      5.60473 
          20            0           -0           -0      5.48103 
          20     0.013333  4.15183e-06  2.35879e-10      5.48103 
          20     0.053333  8.86194e-06 -1.08224e-08      5.48103 
          20         0.12  1.53954e-05 -2.96675e-08      5.48103 
          20     0.213332  2.08779e-05 -2.38228e-08      5.48103 
          20     0.333332  2.42085e-05   3.0195e-08      5.48103 
          20         0.48  2.57808e-05  1.31739e-07      5.48102 
          20     0.653331  2.66064e-05  3.21864e-07      5.48101 
          20     0.853332  2.59385e-05  6.14665e-07      5.48099 
          20         1.08  2.25123e-05  8.76647e-07      5.48096 
          20      1.33333  1.71895e-05  1.03827e-06      5.48093 
          20      1.61333  1.09819e-05  1.10046e-06      5.48088 
          20         1.92  4.75062e-06  1.06186e-06      5.48082 
          20      2.25333 -5.36212e-08  9.51842e-07      5.48075 
          20      2.61333 -2.98561e-06  7.31734e-07      5.48065 
          20            3 -5.31765e-06  2.54566e-07      5.48055 
          40            0           -0           -0      5.35347 
          40     0.013333  4.88942e-07  5.37176e-10      5.35347 
          40     0.053333 -3.73358e-06  3.83768e-09      5.35347 
          40         0.12 -8.07447e-06  4.26933e-09      5.35347 
          40     0.213332 -1.10188e-05 -3.61278e-08      5.35347 
          40     0.333332 -1.15671e-05 -1.87815e-07      5.35347 
          40         0.48  -1.0461e-05 -5.13023e-07      5.35347 
          40     0.653331 -9.27956e-06 -1.03246e-06      5.35347 
          40     0.853332 -8.83347e-06 -1.72232e-06      5.35347 
          40         1.08 -8.21588e-06 -2.49255e-06      5.35346 
          40      1.33333 -6.28141e-06 -3.21285e-06      5.35346 
          40      1.61333 -3.51135e-06 -3.80738e-06      5.35345 
          40         1.92 -7.71198e-07 -4.21207e-06      5.35344 
          40      2.25333  1.28996e-06 -4.39762e-06      5.35343 
          40      2.61333   2.8641e-06 -4.33706e-06      5.35342 
          40            3  4.37291e-06 -4.04938e-06       5.3534 
          60            0           -0           -0      5.23375 
          60     0.013333  1.27141e-06   6.5597e-09      5.23375 
          60     0.053333 -2.20718e-06  9.30374e-08      5.23375 
          60         0.12 -9.03599e-06  3.91717e-07      5.23375 
          60     0.213332 -1.79918e-05  9.56486e-07      5.23375 
          60     0.333332  -2.5598e-05  1.71011e-06      5.23375 
          60         0.48 -2.99128e-05  2.55454e-06      5.23375 
          60     0.653331 -3.03266e-05  3.49284e-06      5.23374 
          60     0.853332 -2.64056e-05   4.5866e-06      5.23374 
          60         1.08 -2.00169e-05  5.75202e-06      5.23374 
          60      1.33333 -1.41513e-05  6.79396e-06      5.23374 
          60      1.61333 -8.65763e-06  7.57475e-06      5.23373 
          60         1.92 -2.35156e-06  8.02353e-06      5.23373 
          60      2.25333    2.565e-06  8.07454e-06      5.23372 
          60      2.61333  5.67624e-06  7.78583e-06      5.23372 
          60            3  7.57865e-06   7.3387e-06      5.23371 
          80            0           -0           -0       5.1179 
          80     0.013333  3.54896e-06  2.04369e-09       5.1179 
          80     0.053333  7.08937e-06  3.18241e-08       5.1179 
          80         0.12  1.06544e-05   1.5644e-07       5.1179 
          80     0.213332  1.18869e-05  4.57018e-07       5.1179 
          80     0.333332  1.10799e-05  9.79681e-07       5.1179 
          80         0.48  9.88285e-06  1.71757e-06       5.1179 
          80     0.653331   9.6256e-06  2.63541e-06       5.1179 
          80     0.853332  1.03593e-05   3.6774e-06       5.1179 
          80         1.08  1.05727e-05  4.73021e-06       5.1179 
          80      1.33333  8.85701e-06  5.63659e-06      5.11789 
          80      1.61333  6.21961e-06  6.32366e-06      5.11789 
          80         1.92  3.78202e-06  6.72423e-06      5.11789 
          80      2.25333  1.71798e-06  6.81173e-06      5.11788 
          80      2.61333  8.33492e-08   6.5947e-06      5.11788 
          80            3 -1.18678e-06  6.11908e-06      5.11787 
         100            0  3.47616e-21  3.64123e-26      5.00442 
         100     0.013333  2.40193e-06  8.26019e-10      5.00442 
         100     0.053333  3.26516e-06  1.44792e-08      5.00442 
         100         0.12   4.0401e-06  7.93789e-08      5.00442 
         100     0.213332  3.69456e-06  2.41984e-07      5.00442 
         100     0.333332  3.03869e-06  5.06888e-07      5.00442 
         100         0.48  3.13167e-06  8.26634e-07      5.00442 
         100     0.653331  3.89489e-06   1.1357e-06      5.00442 
         100     0.853332  4.18931e-06  1.36505e-06      5.00442 
         100         1.08    3.464e-06  1.47838e-06      5.00442 
         100      1.33333  2.54845e-06   1.5017e-06      5.00442 
         100      1.61333  1.73448e-06  1.46896e-06      5.00442 
         100         1.92  8.56284e-07  1.36385e-06      5.00441 
         100      2.25333  2.24123e-07  1.21217e-06      5.00441 
         100      2.61333  -3.8413e-08  1.02607e-06      5.00441 
         100            3 -1.87389e-08   8.4951e-07       5.0044 
         150            0           -0           -0      4.72624 
         150     0.013333  5.22954e-07  2.94984e-10      4.72624 
         150     0.053333 -3.06674e-06  2.30025e-09      4.72624 
         150         0.12 -6.86456e-06 -5.66239e-10      4.72624 
         150     0.213332 -1.00303e-05 -2.98092e-08      4.72624 
         150     0.333332 -1.20645e-05 -1.09059e-07      4.72624 
         150         0.48 -1.32314e-05 -2.53729e-07      4.72624 
         150     0.653331 -1.40003e-05 -4.67374e-07      4.72624 
         150     0.853332 -1.42799e-05 -7.17536e-07      4.72624 
         150         1.08 -1.30802e-05 -9.23493e-07      4.72624 
         150      1.33333 -1.02945e-05 -1.02789e-06      4.72624 
         150      1.61333 -7.05445e-06 -1.06254e-06      4.72624 
         150         1.92 -3.58773e-06  -1.0352e-06      4.72624 
         150      2.25333 -5.92837e-07   -9.555e-07      4.72624 
         150      2.61333  1.62547e-06 -8.36982e-07      4.72624 
         150            3   3.1327e-06  -6.8437e-07      4.72624 
         200            0            0            0      4.45155 
         200     0.013333 -1.37089e-07  2.32786e-09      4.45155 
         200     0.053333 -5.73886e-06  3.00093e-08      4.45155 
         200         0.12  -1.2399e-05  1.03763e-07      4.45155 
         200     0.213332 -1.76242e-05  1.81407e-07      4.45155 
         200     0.333332 -1.96069e-05  1.74522e-07      4.45155 
         200         0.48 -1.90395e-05  3.04118e-08      4.45155 
         200     0.653331  -1.7535e-05 -2.24774e-07      4.45155 
         200     0.853332  -1.5544e-05 -5.08027e-07      4.45155 
         200         1.08 -1.26586e-05 -7.49586e-07      4.45155 
         200      1.33333 -9.34661e-06 -9.50171e-07      4.45155 
         200      1.61333 -6.08654e-06 -1.14157e-06      4.45155 
         200         1.92 -2.64718e-06 -1.30757e-06      4.45155 
         200      2.25333  4.68767e-07 -1.41884e-06      4.45155 
         200      2.61333  2.96644e-06 -1.48516e-06      4.45155 
         200            3  4.71161e-06 -1.50787e-06      4.45155 
         250            0           -0           -0      4.17806 
         250     0.013333  2.06633e-06  2.08304e-09      4.17806 
         250     0.053333  2.04838e-06  3.07708e-08      4.17806 
         250         0.12  1.48111e-06  1.35747e-07      4.17806 
         250     0.213332 -2.98652e-07  3.53517e-07      4.17806 
         250     0.333332 -2.49569e-06  6.82547e-07      4.17806 
         250         0.48 -4.19434e-06  1.10097e-06      4.17806 
         250     0.653331 -4.87867e-06  1.59852e-06      4.17806 
         250     0.853332 -4.35505e-06  2.17679e-06      4.17806 
         250         1.08  -2.9656e-06  2.81448e-06      4.17806 
         250      1.33333 -1.62327e-06  3.45258e-06      4.17806 
         250      1.61333 -7.35858e-07  4.02671e-06      4.17806 
         250         1.92  1.03991e-07  4.48016e-06      4.17806 
         250      2.25333  8.63527e-07   4.7874e-06      4.17806 
         250      2.61333  1.65493e-06  4.92161e-06      4.17806 
         250            3  2.47224e-06  4.87274e-06      4.17806 
         300            0            0            0      3.90497 
         300     0.013333 -2.40522e-07  1.79536e-09      3.90497 
         300     0.053333 -6.15747e-06  2.37804e-08      3.90497 
         300         0.12 -1.35417e-05  8.64116e-08      3.90497 
         300     0.213332 -2.01305e-05  1.64822e-07      3.90497 
         300     0.333332 -2.38146e-05  1.88432e-07      3.90497 
         300         0.48 -2.45715e-05  9.37299e-08      3.90497 
         300     0.653331 -2.38148e-05 -1.32036e-07      3.90497 
         300     0.853332 -2.25245e-05 -4.46122e-07      3.90497 
         300         1.08 -2.03972e-05  -7.7691e-07      3.90497 
         300      1.33333 -1.71038e-05 -1.07531e-06      3.90497 
         300      1.61333 -1.31269e-05 -1.34521e-06      3.90497 
         300         1.92 -8.70527e-06 -1.57927e-06      3.90497 
         300      2.25333 -4.27263e-06  -1.7604e-06      3.90497 
         300      2.61333 -2.72719e-07 -1.88171e-06      3.90497 
         300            3  2.99402e-06 -1.93039e-06      3.90497 
         350            0           -0           -0      3.63203 
         350     0.013333  5.91281e-06 -3.87148e-09      3.63203 
         350     0.053333  1.73268e-05 -5.16332e-08      3.63203 
         350         0.12  3.36272e-05 -1.89417e-07      3.63203 
         350     0.213332  4.84148e-05 -3.64985e-07      3.63203 
         350     0.333332  5.66667e-05 -4.21422e-07      3.63203 
         350         0.48  5.80758e-05 -2.15553e-07      3.63203 
         350     0.653331   5.5814e-05  2.78673e-07      3.63203 
         350     0.853332  5.23186e-05  9.72803e-07      3.63203 
         350         1.08  4.75101e-05  1.73259e-06      3.63203 
         350      1.33333  4.07512e-05  2.46169e-06      3.63203 
         350      1.61333  3.25281e-05  3.13774e-06      3.63203 
         350         1.92   2.3319e-05  3.73497e-06      3.63203 
         350      2.25333  1.38634e-05  4.21051e-06      3.63203 
         350      2.61333  4.83124e-06  4.53555e-06      3.63203 
         350            3 -3.10744e-06  4.68721e-06      3.63203 
         400            0           -0           -0      3.35905 
         400     0.013333 -6.87079e-06  2.61575e-09      3.35905 
         400     0.053333 -2.99199e-05  2.63935e-08      3.35905 
         400         0.12 -5.72333e-05  3.35243e-08      3.35905 
         400     0.213332 -7.75078e-05 -1.81193e-07      3.35905 
         400     0.333332 -8.44593e-05 -9.11794e-07      3.35905 
         400         0.48 -8.10699e-05 -2.32328e-06      3.35905 
         400     0.653331 -7.44757e-05 -4.35099e-06      3.35905 
         400     0.853332 -6.87266e-05 -6.77538e-06      3.35905 
         400         1.08 -6.27835e-05 -9.32455e-06      3.35905 
         400      1.33333 -5.42302e-05 -1.17688e-05      3.35905 
         400      1.61333  -4.3147e-05 -1.39842e-05      3.35905 
         400         1.92 -3.08345e-05 -1.58818e-05      3.35905 
         400      2.25333  -1.8043e-05 -1.73134e-05      3.35905 
         400      2.61333 -5.50053e-06 -1.81827e-05      3.35906 
         400            3  5.72534e-06 -1.84386e-05      3.35906 
         450            0            0            0      3.08616 
         450     0.013333  1.17469e-05  3.07897e-09      3.08616 
         450     0.053333  3.61641e-05  5.89202e-08      3.08616 
         450         0.12  6.27351e-05  3.50033e-07      3.08616 
         450     0.213332  7.79376e-05  1.19988e-06      3.08616 
         450     0.333332  7.78297e-05  2.90734e-06      3.08616 
         450         0.48  6.86426e-05   5.5566e-06      3.08616 
         450     0.653331  5.92481e-05  9.01761e-06      3.08616 
         450     0.853332   5.4231e-05  1.30659e-05      3.08616 
         450         1.08  5.21576e-05  1.74141e-05      3.08616 
         450      1.33333  4.81386e-05  2.17035e-05      3.08616 
         450      1.61333  3.98907e-05  2.56222e-05      3.08615 
         450         1.92  2.98972e-05  2.89829e-05      3.08615 
         450      2.25333   1.9318e-05  3.15626e-05      3.08615 
         450      2.61333  8.78772e-06  3.31789e-05      3.08615 
         450            3 -8.27905e-07  3.37154e-05      3.08615 
         500            0           -0           -0      2.81316 
         500     0.013333 -6.11483e-06 -9.75022e-10      2.81316 
         500     0.053333 -2.65214e-05 -2.39532e-08      2.81316 
         500         0.12 -4.94064e-05 -1.69226e-07      2.81316 
         500     0.213332 -6.54813e-05 -6.42446e-07      2.81316 
         500     0.333332 -7.09064e-05 -1.65352e-06      2.81316 
         500         0.48 -6.90387e-05 -3.28181e-06      2.81316 
         500     0.653331 -6.56954e-05 -5.46073e-06      2.81316 
         500     0.853332 -6.40919e-05 -8.04118e-06      2.81316 
         500         1.08 -6.29218e-05 -1.08032e-05      2.81316 
         500      1.33333 -5.84352e-05 -1.34769e-05      2.81316 
         500      1.61333 -4.95379e-05 -1.58694e-05      2.81316 
         500         1.92 -3.86887e-05 -1.79009e-05      2.81316 
         500      2.25333 -2.70553e-05 -1.94651e-05      2.81316 
         500      2.61333  -1.5163e-05 -2.04516e-05      2.81316 
         500            3  -3.7205e-06 -2.07808e-05      2.81317 
         550            0            0            0      2.54021 
         550     0.013333  1.84336e-06  1.17749e-09      2.54021 
         550     0.053333  1.38727e-06  1.78756e-08      2.54021 
         550         0.12   6.4952e-07  8.09212e-08      2.54021 
         550     0.213332 -6.90133e-07  2.12221e-07      2.54021 
         550     0.333332 -1.64869e-06  3.99138e-07      2.54021 
         550         0.48 -1.38156e-06  6.03208e-07      2.54021 
         550     0.653331   2.5575e-08  7.95034e-07      2.54021 
         550     0.853332  1.91495e-06  9.70442e-07      2.54021 
         550         1.08  3.66478e-06  1.13029e-06      2.54021 
         550      1.33333  4.63583e-06  1.25057e-06      2.54021 
         550      1.61333   4.4852e-06  1.29277e-06      2.54021 
         550         1.92  3.87965e-06  1.26224e-06      2.54021 
         550      2.25333   3.2314e-06   1.1677e-06      2.54021 
         550      2.61333  2.54836e-06   1.0232e-06      2.54021 
         550            3  1.77062e-06  8.37304e-07      2.54021 
         600            0           -0           -0      2.26722 
         600     0.013333  2.30173e-06 -6.72498e-09      2.26722 
         600     0.053333  5.54935e-06 -1.00482e-07      2.26722 
         600         0.12  1.55036e-05 -4.50069e-07      2.26722 
         600     0.213332  3.10396e-05 -1.18689e-06      2.26722 
         600     0.333332  4.68163e-05 -2.28982e-06      2.26722 
         600         0.48  5.74709e-05 -3.60769e-06      2.26722 
         600     0.653331  6.15261e-05 -4.99513e-06      2.26722 
         600     0.853332   6.0368e-05 -6.40291e-06      2.26722 
         600         1.08  5.56945e-05 -7.83797e-06      2.26722 
         600      1.33333  4.90837e-05  -9.2712e-06      2.26722 
         600      1.61333  4.19011e-05 -1.06231e-05      2.26722 
         600         1.92  3.41557e-05 -1.17989e-05      2.26722 
         600      2.25333  2.56463e-05 -1.27464e-05      2.26722 
         600      2.61333  1.66146e-05 -1.33799e-05      2.26722 
         600            3  7.65652e-06  -1.3631e-05      2.26722 
         650            0            0            0      1.99417 
         650     0.013333  4.74422e-06  3.91157e-09      1.99417 
         650     0.053333   1.1151e-05  5.99338e-08      1.99417 
         650         0.12  1.70665e-05  2.79726e-07      1.99417 
         650     0.213332  1.85112e-05  7.81884e-07      1.99417 
         650     0.333332   1.5446e-05  1.62806e-06      1.99417 
         650         0.48  1.02799e-05  2.81243e-06      1.99417 
         650     0.653331   5.5924e-06  4.30622e-06      1.99417 
         650     0.853332  3.23323e-06  6.10018e-06      1.99417 
         650         1.08  4.18927e-06  8.18898e-06      1.99417 
         650      1.33333  7.18683e-06  1.04821e-05      1.99417 
         650      1.61333  8.95997e-06  1.27611e-05      1.99417 
         650         1.92  8.56739e-06  1.48511e-05      1.99417 
         650      2.25333  7.38386e-06  1.66275e-05      1.99417 
         650      2.61333  6.02353e-06  1.80034e-05      1.99417 
         650            3  4.43886e-06  1.88943e-05      1.99417 
         700            0           -0           -0      1.72109 
         700     0.013333  1.81026e-06  8.78676e-09      1.72109 
         700     0.053333 -1.26935e-06  1.32945e-07      1.72109 
         700         0.12 -1.16863e-05  6.06205e-07      1.72109 
         700     0.213332 -3.02504e-05  1.63114e-06      1.72109 
         700     0.333332 -5.04499e-05  3.20955e-06      1.72109 
         700         0.48   -6.447e-05  5.14669e-06      1.72109 
         700     0.653331 -6.92982e-05  7.23354e-06      1.72109 
         700     0.853332 -6.65025e-05  9.38193e-06      1.72109 
         700         1.08 -5.90882e-05  1.15686e-05      1.72109 
         700      1.33333 -5.04709e-05  1.37044e-05      1.72109 
         700      1.61333 -4.28967e-05  1.56647e-05      1.72109 
         700         1.92  -3.5292e-05  1.73822e-05      1.72109 
         700      2.25333 -2.68157e-05  1.87709e-05      1.72109 
         700      2.61333 -1.76301e-05  1.97594e-05      1.72109 
         700            3  -8.3934e-06  2.02629e-05      1.72109 
         750            0            0            0        1.448 
         750     0.013333 -2.04513e-06 -1.45943e-08        1.448 
         750     0.053333 -7.61023e-06 -2.23014e-07        1.448 
         750         0.12 -1.89975e-06 -1.03246e-06        1.448 
         750     0.213332  1.94763e-05 -2.83259e-06        1.448 
         750     0.333332  4.81739e-05 -5.70383e-06        1.448 
         750         0.48  7.10034e-05 -9.38513e-06        1.448 
         750     0.653331  8.10171e-05 -1.35459e-05        1.448 
         750     0.853332  7.87143e-05  -1.8026e-05        1.448 
         750         1.08  6.76563e-05 -2.27786e-05        1.448 
         750      1.33333  5.37024e-05 -2.76147e-05        1.448 
         750      1.61333  4.30544e-05 -3.21691e-05        1.448 
         750         1.92  3.54307e-05 -3.61851e-05        1.448 
         750      2.25333  2.75854e-05 -3.95023e-05        1.448 
         750      2.61333  1.87965e-05 -4.19639e-05        1.448 
         750            3  9.92318e-06 -4.33901e-05        1.448 
         800            0           -0           -0      1.17484 
         800     0.013333  1.32594e-05  9.15138e-09      1.17484 
         800     0.053333   3.9921e-05  1.49004e-07      1.17484 
         800         0.12  6.50993e-05  7.51718e-07      1.17484 
         800     0.213332  7.32516e-05  2.26439e-06      1.17484 
         800     0.333332  6.26468e-05  4.99708e-06      1.17484 
         800         0.48  4.37129e-05  8.94118e-06      1.17484 
         800     0.653331  2.83058e-05  1.38605e-05      1.17484 
         800     0.853332   2.2227e-05  1.95045e-05      1.17484 
         800         1.08  2.47892e-05  2.56522e-05      1.17484 
         800      1.33333  2.98258e-05  3.19709e-05      1.17484 
         800      1.61333  2.99222e-05  3.80096e-05      1.17484 
         800         1.92  2.51499e-05  4.34598e-05      1.17484 
         800      2.25333  1.92534e-05  4.81366e-05      1.17484 
         800      2.61333  1.35853e-05  5.18179e-05      1.17484 
         800            3  7.82126e-06  5.42591e-05      1.17484 
         850            0           -0           -0     0.901639 
         850     0.013333 -2.21355e-06  5.26665e-09     0.901639 
         850     0.053333 -1.47308e-05  7.50051e-08     0.901639 
         850         0.12 -3.39573e-05  3.13617e-07     0.901639 
         850     0.213332 -5.61577e-05  7.64609e-07     0.901639 
         850     0.333332 -7.54716e-05  1.36138e-06     0.901639 
         850         0.48 -8.81834e-05   1.9795e-06     0.901639 
         850     0.653331 -9.44829e-05  2.52153e-06     0.901639 
         850     0.853332 -9.66527e-05  2.96621e-06     0.901639 
         850         1.08 -9.58408e-05  3.38366e-06     0.901639 
         850      1.33333 -9.07302e-05  3.91428e-06     0.901639 
         850      1.61333 -8.03151e-05  4.65729e-06     0.901639 
         850         1.92 -6.70542e-05  5.54998e-06     0.901639 
         850      2.25333 -5.30731e-05  6.43765e-06     0.901639 
         850      2.61333 -3.86909e-05  7.24075e-06      0.90164 
         850            3 -2.36638e-05  7.92099e-06     0.901641 
         900            0           -0           -0     0.628447 
         900     0.013333 -4.63477e-06  7.53109e-09     0.628447 
         900     0.053333 -2.43704e-05  1.08493e-07     0.628447 
         900         0.12 -5.46182e-05  4.57868e-07     0.628447 
         900     0.213332 -8.83606e-05  1.11078e-06     0.628447 
         900     0.333332  -0.00011499  1.91572e-06     0.628447 
         900         0.48 -0.000128003  2.60402e-06     0.628447 
         900     0.653331 -0.000128728  2.99132e-06     0.628447 
         900     0.853332 -0.000122508  3.07846e-06     0.628446 
         900         1.08 -0.000113138  2.99093e-06     0.628446 
         900      1.33333  -0.00010195  2.82875e-06     0.628446 
         900      1.61333 -8.96647e-05  2.61358e-06     0.628447 
         900         1.92 -7.63809e-05   2.3372e-06     0.628447 
         900      2.25333 -6.16101e-05  2.00944e-06     0.628447 
         900      2.61333 -4.54865e-05  1.64917e-06     0.628448 
         900            3 -2.85841e-05  1.26779e-06     0.628449 
         950            0           -0           -0     0.355236 
         950     0.013333 -1.26744e-05 -6.55739e-09     0.355236 
         950     0.053333 -4.85423e-05 -1.12211e-07     0.355236 
         950         0.12 -8.55115e-05 -6.04795e-07     0.355236 
         950     0.213332 -0.000104631  -1.9451e-06     0.355236 
         950     0.333332 -9.96488e-05 -4.54627e-06     0.355236 
         950         0.48 -7.99027e-05 -8.51684e-06     0.355236 
         950     0.653331 -6.00391e-05 -1.36443e-05     0.355236 
         950     0.853332 -4.90179e-05 -1.95942e-05     0.355236 
         950         1.08 -4.70455e-05 -2.60448e-05     0.355236 
         950      1.33333 -4.79808e-05 -3.26447e-05     0.355236 
         950      1.61333 -4.51893e-05 -3.90169e-05     0.355236 
         950         1.92 -3.79229e-05 -4.49162e-05     0.355236 
         950      2.25333 -2.95153e-05 -5.01829e-05     0.355236 
         950      2.61333 -2.11494e-05 -5.45968e-05     0.355237 
         950            3 -1.25049e-05 -5.78805e-05     0.355237 
        1000            0           -0           -0    0.0820386 
        1000     0.013333  3.02653e-06 -1.57757e-08    0.0820386 
        1000     0.053333  1.10055e-05 -2.33156e-07    0.0820386 
        1000         0.12  3.42607e-05 -1.02918e-06    0.0820386 
        1000     0.213332  7.19501e-05 -2.67759e-06    0.0820386 
        1000     0.333332  0.000112616 -5.11275e-06    0.0820386 
        1000         0.48   0.00014275 -7.99435e-06    0.0820386 
        1000     0.653331  0.000156709 -1.09975e-05    0.0820387 
        1000     0.853332  0.000156879 -1.40239e-05    0.0820387 
        1000         1.08  0.000147063 -1.71864e-05    0.0820388 
        1000      1.33333  0.000129406 -2.06052e-05    0.0820388 
        1000      1.61333  0.000107479 -2.41908e-05    0.0820387 
        1000         1.92  8.64365e-05 -2.76437e-05    0.0820384 
        1000      2.25333  6.62337e-05 -3.06688e-05    0.0820378 
        1000      2.61333  4.56386e-05 -3.31201e-05     0.082037 
        1000            3  2.44531e-05 -3.48768e-05    0.0820358 
