Variables = x, y, u, v, p

Zone, I=416, F=POINT
         -50            0            0            0      14.1364 
         -50     0.013333  1.64395e-05  4.98313e-09      14.1364 
         -50     0.053333  1.61361e-05 -5.55025e-09      14.1364 
         -50         0.12  1.71053e-05 -5.45906e-08      14.1364 
         -50     0.213332  1.85036e-05 -1.44469e-07      14.1364 
         -50     0.333332  1.95186e-05 -2.33925e-07      14.1363 
         -50         0.48  1.98536e-05 -3.15472e-07      14.1363 
         -50     0.653331  1.94826e-05 -4.88419e-07      14.1363 
         -50     0.853332  1.83641e-05 -6.27617e-07      14.1362 
         -50         1.08  1.69584e-05 -7.30787e-07      14.1361 
         -50      1.33333  1.55037e-05 -8.35284e-07       14.136 
         -50      1.61333  1.39397e-05 -8.50306e-07      14.1358 
         -50         1.92  1.26455e-05  -8.0153e-07      14.1355 
         -50      2.25333  1.22631e-05 -6.12051e-07      14.1352 
         -50      2.61333  1.23105e-05 -4.68625e-07      14.1348 
         -50            3  1.22542e-05 -4.99856e-07      14.1344 
         -25            0           -0           -0      13.5843 
         -25     0.013333  1.17647e-05  3.45733e-09      13.5843 
         -25     0.053333  1.04564e-05   1.9658e-08      13.5843 
         -25         0.12  9.23584e-06  6.53955e-08      13.5843 
         -25     0.213332  8.31805e-06  1.38861e-07      13.5843 
         -25     0.333332  7.94019e-06  2.22501e-07      13.5843 
         -25         0.48  7.98955e-06  3.10368e-07      13.5843 
         -25     0.653331  8.40007e-06   4.1641e-07      13.5842 
         -25     0.853332  9.11036e-06  5.33759e-07      13.5842 
         -25         1.08  9.83497e-06  6.50052e-07      13.5842 
         -25      1.33333  1.04204e-05  7.52355e-07      13.5841 
         -25      1.61333  1.06964e-05  8.10893e-07      13.5841 
         -25         1.92  1.03122e-05  8.14345e-07       13.584 
         -25      2.25333  9.61967e-06  8.08807e-07      13.5838 
         -25      2.61333  9.56472e-06  9.64199e-07      13.5837 
         -25            3   1.0317e-05  1.25514e-06      13.5835 
           0            0            0            0      13.1315 
           0     0.013333  2.36882e-05  -1.6062e-05      13.1319 
           0     0.053333  1.64088e-05 -8.59738e-06      13.1326 
           0         0.12  1.22726e-05 -6.15875e-06      13.1335 
           0     0.213332  1.01716e-05 -4.71016e-06      13.1343 
           0     0.333332  9.30543e-06 -3.78962e-06      13.1352 
           0         0.48  8.87332e-06 -3.13127e-06      13.1361 
           0     0.653331  8.63983e-06 -2.65702e-06       13.137 
           0     0.853332  8.45404e-06 -2.31632e-06      13.1379 
           0         1.08  8.38298e-06 -2.06594e-06      13.1387 
           0      1.33333  8.48162e-06 -1.86871e-06      13.1395 
           0      1.61333  8.65048e-06  -1.7103e-06      13.1402 
           0         1.92  8.99255e-06 -1.54985e-06      13.1409 
           0      2.25333  9.69689e-06 -1.36644e-06      13.1416 
           0      2.61333  1.05346e-05 -1.17992e-06      13.1422 
           0            3  1.07096e-05 -1.20646e-06      13.1428 
          20            0 -3.87822e-05  3.90246e-05      12.8524 
          20     0.013333 -4.01815e-05  3.92253e-05      12.8524 
          20     0.053333 -4.46892e-05  3.97825e-05      12.8524 
          20         0.12 -5.31423e-05  4.05701e-05      12.8524 
          20     0.213332 -6.63953e-05  4.14315e-05      12.8524 
          20     0.333332  -8.3314e-05  4.22386e-05      12.8524 
          20         0.48 -9.65067e-05  4.30145e-05      12.8524 
          20     0.653331 -9.82481e-05  4.38515e-05      12.8524 
          20     0.853332  -8.6325e-05  4.46312e-05      12.8524 
          20         1.08 -6.55862e-05  4.48997e-05      12.8524 
          20      1.33333 -4.20616e-05  4.41451e-05      12.8523 
          20      1.61333 -1.70395e-05   4.2175e-05      12.8523 
          20         1.92  5.28774e-06  3.89215e-05      12.8523 
          20      2.25333  2.20261e-05  3.46966e-05      12.8522 
          20      2.61333  3.19046e-05   2.9899e-05      12.8522 
          20            3  3.59059e-05  2.51696e-05      12.8521 
          40            0  -0.00027143  0.000162781      12.5823 
          40     0.013333 -0.000270631  0.000163208      12.5823 
          40     0.053333 -0.000268881  0.000164215      12.5823 
          40         0.12 -0.000268536  0.000164969      12.5822 
          40     0.213332  -0.00027434  0.000164117      12.5822 
          40     0.333332 -0.000291349   0.00016011      12.5821 
          40         0.48 -0.000315351  0.000152123      12.5821 
          40     0.653331 -0.000322449  0.000141071       12.582 
          40     0.853332 -0.000284194  0.000129043      12.5819 
          40         1.08 -0.000200598  0.000117256      12.5817 
          40      1.33333 -9.54499e-05  0.000105597      12.5816 
          40      1.61333  8.67733e-06  9.38191e-05      12.5814 
          40         1.92  9.65638e-05  8.20465e-05      12.5812 
          40      2.25333  0.000155368  7.06019e-05       12.581 
          40      2.61333  0.000182027  5.97297e-05      12.5807 
          40            3  0.000180592  4.94304e-05      12.5804 
          60            0           -0           -0      12.3052 
          60     0.013333 -9.69651e-05  6.70223e-09      12.3052 
          60     0.053333  -0.00034567 -2.87805e-07      12.3052 
          60         0.12 -0.000562978 -3.58659e-06      12.3052 
          60     0.213332  -0.00060604 -1.57344e-05      12.3052 
          60     0.333332 -0.000511165 -4.14108e-05      12.3052 
          60         0.48 -0.000431279 -8.00254e-05      12.3052 
          60     0.653331 -0.000424746 -0.000125399      12.3052 
          60     0.853332 -0.000408927 -0.000170057      12.3052 
          60         1.08 -0.000352664 -0.000212605      12.3052 
          60      1.33333 -0.000245132 -0.000250626      12.3052 
          60      1.61333 -0.000105685 -0.000278753      12.3052 
          60         1.92  1.68223e-05 -0.000292999      12.3051 
          60      2.25333  0.000111686 -0.000292263      12.3051 
          60      2.61333  0.000168159 -0.000279628      12.3051 
          60            3  0.000183508 -0.000258568      12.3051 
          80            0 -5.04615e-20  3.03715e-25      12.0395 
          80     0.013333 -8.63954e-05 -7.34693e-08      12.0395 
          80     0.053333 -0.000304667 -1.31056e-06      12.0395 
          80         0.12  -0.00049632 -7.02509e-06      12.0395 
          80     0.213332 -0.000558387 -2.13758e-05      12.0395 
          80     0.333332 -0.000522868 -4.61393e-05      12.0395 
          80         0.48 -0.000503194 -8.06409e-05      12.0395 
          80     0.653331 -0.000594169 -0.000123594      12.0395 
          80     0.853332 -0.000754184 -0.000168976      12.0395 
          80         1.08 -0.000778943 -0.000204011      12.0395 
          80      1.33333 -0.000623366 -0.000222811      12.0395 
          80      1.61333   -0.0004131 -0.000231913      12.0395 
          80         1.92 -0.000189021 -0.000231764      12.0395 
          80      2.25333 -7.18945e-06 -0.000221971      12.0395 
          80      2.61333  0.000115241 -0.000205186      12.0395 
          80            3  0.000195038 -0.000183499      12.0395 
         100            0           -0           -0      11.7808 
         100     0.013333  1.34243e-05  6.20631e-09      11.7808 
         100     0.053333  2.26422e-05  1.30735e-07      11.7808 
         100         0.12  2.10474e-05  8.36295e-07      11.7808 
         100     0.213332 -8.71394e-07  2.90975e-06      11.7808 
         100     0.333332 -3.30307e-05   6.7958e-06      11.7808 
         100         0.48 -5.67455e-05  1.19679e-05      11.7808 
         100     0.653331 -7.45454e-05  1.68136e-05      11.7808 
         100     0.853332 -0.000109595  1.96561e-05      11.7808 
         100         1.08 -0.000125186  2.27368e-05      11.7808 
         100      1.33333 -7.10279e-05  3.00225e-05      11.7808 
         100      1.61333 -2.37989e-05  3.86007e-05      11.7808 
         100         1.92  -3.7327e-06  4.47607e-05      11.7808 
         100      2.25333  1.01856e-05  4.83395e-05      11.7808 
         100      2.61333  2.31091e-05  4.94908e-05      11.7808 
         100            3   3.0407e-05  4.85662e-05      11.7808 
         150            0 -1.07453e-20  4.85249e-26      11.1475 
         150     0.013333 -2.93923e-05 -1.22106e-07      11.1475 
         150     0.053333 -9.10614e-05 -1.87153e-06      11.1475 
         150         0.12 -8.12103e-05 -8.64009e-06      11.1475 
         150     0.213332  3.24272e-05 -2.34745e-05      11.1475 
         150     0.333332  0.000189371 -4.67352e-05      11.1475 
         150         0.48  0.000309948 -7.64975e-05      11.1475 
         150     0.653331  0.000354805 -0.000110862      11.1475 
         150     0.853332    0.0003232 -0.000148502      11.1475 
         150         1.08  0.000253431 -0.000186595      11.1475 
         150      1.33333  0.000196501  -0.00022075      11.1475 
         150      1.61333  0.000153554  -0.00024782      11.1475 
         150         1.92  9.55962e-05 -0.000265487      11.1475 
         150      2.25333   4.1993e-05 -0.000272289      11.1475 
         150      2.61333   -6.244e-07 -0.000268231      11.1475 
         150            3 -3.31617e-05  -0.00025475      11.1475 
         200            0           -0           -0      10.5224 
         200     0.013333 -1.50348e-05 -3.59702e-08      10.5224 
         200     0.053333 -6.65127e-05 -5.45384e-07      10.5224 
         200         0.12 -0.000111504  -2.4797e-06      10.5224 
         200     0.213332 -0.000131855 -6.64984e-06      10.5224 
         200     0.333332 -0.000134795 -1.32148e-05      10.5224 
         200         0.48 -0.000135597 -2.19727e-05      10.5224 
         200     0.653331 -0.000145223 -3.28803e-05      10.5224 
         200     0.853332 -0.000166158 -4.57853e-05      10.5224 
         200         1.08  -0.00018079 -5.94122e-05      10.5224 
         200      1.33333 -0.000166733 -7.16405e-05      10.5224 
         200      1.61333 -0.000133321 -8.13287e-05      10.5224 
         200         1.92 -9.42339e-05 -8.78125e-05      10.5224 
         200      2.25333 -5.29876e-05 -9.05289e-05      10.5224 
         200      2.61333 -1.46191e-05 -8.95182e-05      10.5224 
         200            3  1.65234e-05  -8.5216e-05      10.5224 
         250            0           -0           -0      9.89997 
         250     0.013333 -4.27088e-05  4.77615e-08      9.89997 
         250     0.053333 -0.000179849  5.92246e-07      9.89997 
         250         0.12 -0.000348379  1.84158e-06      9.89997 
         250     0.213332 -0.000466446  2.33073e-06      9.89997 
         250     0.333332 -0.000488996 -4.63189e-07      9.89997 
         250         0.48 -0.000443342 -7.77253e-06      9.89997 
         250     0.653331 -0.000379992 -1.84876e-05      9.89997 
         250     0.853332 -0.000316006 -3.02735e-05      9.89997 
         250         1.08 -0.000246633 -4.15833e-05      9.89997 
         250      1.33333 -0.000179649 -5.23402e-05      9.89997 
         250      1.61333 -0.000117549 -6.26167e-05      9.89997 
         250         1.92 -5.22079e-05 -7.13323e-05      9.89998 
         250      2.25333  8.67699e-06 -7.75753e-05      9.89998 
         250      2.61333  5.91559e-05   -8.104e-05      9.89999 
         250            3  9.63851e-05 -8.15594e-05          9.9 
         300            0 -2.14324e-20   3.1079e-27      9.27823 
         300     0.013333 -7.89905e-05  8.18389e-08      9.27823 
         300     0.053333 -0.000317392  1.02615e-06      9.27823 
         300         0.12 -0.000622448  3.33363e-06      9.27823 
         300     0.213332  -0.00086556  5.03439e-06      9.27823 
         300     0.333332 -0.000970395  2.60791e-06      9.27823 
         300         0.48 -0.000967805 -5.79816e-06      9.27823 
         300     0.653331 -0.000928332 -1.89147e-05      9.27823 
         300     0.853332 -0.000871531 -3.32351e-05      9.27823 
         300         1.08 -0.000764755 -4.50107e-05      9.27823 
         300      1.33333 -0.000607548 -5.29396e-05      9.27823 
         300      1.61333 -0.000442762  -5.8711e-05      9.27824 
         300         1.92 -0.000274563 -6.28306e-05      9.27824 
         300      2.25333 -0.000112319 -6.46623e-05      9.27826 
         300      2.61333  3.35299e-05 -6.42332e-05      9.27827 
         300            3  0.000152972 -6.15853e-05      9.27829 
         350            0            0            0       8.6569 
         350     0.013333 -2.63296e-05  8.63412e-08       8.6569 
         350     0.053333 -0.000135373  1.20184e-06       8.6569 
         350         0.12 -0.000308607  4.81416e-06       8.6569 
         350     0.213332 -0.000490012  1.10091e-05       8.6569 
         350     0.333332 -0.000615175  1.81217e-05       8.6569 
         350         0.48 -0.000667671  2.44322e-05       8.6569 
         350     0.653331 -0.000671059   2.9747e-05       8.6569 
         350     0.853332 -0.000638541   3.5472e-05       8.6569 
         350         1.08 -0.000560261  4.32954e-05       8.6569 
         350      1.33333 -0.000447873  5.31114e-05       8.6569 
         350      1.61333 -0.000336001  6.27437e-05      8.65691 
         350         1.92 -0.000223849   7.0682e-05      8.65691 
         350      2.25333 -0.000113051  7.64973e-05      8.65692 
         350      2.61333 -9.35961e-06   7.9687e-05      8.65693 
         350            3  7.93347e-05  8.00388e-05      8.65694 
         400            0            0            0      8.03579 
         400     0.013333  1.95234e-05 -6.88866e-08      8.03579 
         400     0.053333  7.12138e-05 -1.03709e-06      8.03579 
         400         0.12  0.000187008 -4.66733e-06      8.03579 
         400     0.213332  0.000347813 -1.22448e-05      8.03579 
         400     0.333332  0.000489618 -2.31809e-05      8.03579 
         400         0.48  0.000559552 -3.53799e-05      8.03579 
         400     0.653331  0.000555742 -4.69934e-05      8.03579 
         400     0.853332  0.000509291 -5.72203e-05      8.03579 
         400         1.08  0.000452156 -6.56607e-05      8.03579 
         400      1.33333  0.000395875 -7.21576e-05      8.03579 
         400      1.61333  0.000329999 -7.70393e-05      8.03579 
         400         1.92  0.000249351 -8.03056e-05      8.03578 
         400      2.25333  0.000162807 -8.14892e-05      8.03578 
         400      2.61333  7.71889e-05 -8.03172e-05      8.03578 
         400            3 -1.29959e-06 -7.67862e-05      8.03577 
         450            0 -5.87341e-20 -1.48757e-27      7.41359 
         450     0.013333 -0.000182683  7.23697e-08      7.41359 
         450     0.053333 -0.000687439  7.75022e-07      7.41359 
         450         0.12  -0.00130155  1.44391e-06      7.41359 
         450     0.213332  -0.00175808 -2.55541e-06      7.41359 
         450     0.333332  -0.00191138 -1.79343e-05      7.41359 
         450         0.48  -0.00183219 -4.82629e-05      7.41359 
         450     0.653331  -0.00168754 -9.16744e-05      7.41359 
         450     0.853332  -0.00156558 -0.000142611      7.41359 
         450         1.08  -0.00142761 -0.000194185      7.41359 
         450      1.33333  -0.00121537  -0.00024127      7.41359 
         450      1.61333 -0.000955794 -0.000282892      7.41359 
         450         1.92 -0.000686871 -0.000318744       7.4136 
         450      2.25333 -0.000412056 -0.000346343      7.41362 
         450      2.61333 -0.000141612 -0.000363504      7.41364 
         450            3  0.000102896 -0.000368882      7.41367 
         500            0            0            0      6.79279 
         500     0.013333  0.000190046   4.1273e-08      6.79279 
         500     0.053333   0.00064678  8.40395e-07      6.79279 
         500         0.12   0.00115018  5.25721e-06      6.79279 
         500     0.213332   0.00146543   1.8668e-05      6.79279 
         500     0.333332   0.00151056  4.63105e-05      6.79279 
         500         0.48   0.00138303  8.99287e-05       6.7928 
         500     0.653331   0.00123535  0.000147508       6.7928 
         500     0.853332   0.00115207  0.000215265       6.7928 
         500         1.08   0.00111408   0.00028836       6.7928 
         500      1.33333   0.00103726  0.000360692      6.79279 
         500      1.61333  0.000876265  0.000426787      6.79279 
         500         1.92   0.00067486  0.000483564      6.79279 
         500      2.25333  0.000459811   0.00052806      6.79278 
         500      2.61333  0.000242768  0.000557099      6.79276 
         500            3  3.71633e-05   0.00056834      6.79275 
         550            0           -0           -0      6.17013 
         550     0.013333 -0.000147486   2.7801e-09      6.17013 
         550     0.053333 -0.000547508 -1.66057e-07      6.17013 
         550         0.12  -0.00101165 -2.12416e-06      6.17013 
         550     0.213332   -0.0013356 -9.99023e-06      6.17013 
         550     0.333332  -0.00142887 -2.84581e-05      6.17013 
         550         0.48  -0.00136073 -5.94467e-05      6.17013 
         550     0.653331  -0.00126052 -0.000101226      6.17013 
         550     0.853332  -0.00119765 -0.000150001      6.17013 
         550         1.08  -0.00114625 -0.000201049      6.17013 
         550      1.33333  -0.00104072 -0.000249708      6.17013 
         550      1.61333  -0.00086814 -0.000293237      6.17013 
         550         1.92 -0.000670684 -0.000330669      6.17014 
         550      2.25333 -0.000462679 -0.000360225      6.17015 
         550      2.61333 -0.000250769 -0.000379796      6.17016 
         550            3  -4.7478e-05 -0.000387752      6.17018 
         600            0            0            0      5.54845 
         600     0.013333  0.000105306  8.37887e-08      5.54845 
         600     0.053333  0.000328898  1.39236e-06      5.54845 
         600         0.12  0.000520948  7.15284e-06      5.54845 
         600     0.213332  0.000555731  2.17064e-05      5.54845 
         600     0.333332  0.000442118  4.76835e-05      5.54845 
         600         0.48  0.000292642  8.42009e-05      5.54845 
         600     0.653331  0.000207841  0.000128271      5.54845 
         600     0.853332  0.000212937  0.000176965      5.54845 
         600         1.08  0.000264013  0.000227241      5.54845 
         600      1.33333  0.000283635  0.000275053      5.54845 
         600      1.61333  0.000240212  0.000317101      5.54845 
         600         1.92  0.000180232  0.000352426      5.54844 
         600      2.25333  0.000122835  0.000379747      5.54844 
         600      2.61333  6.80083e-05  0.000397226      5.54844 
         600            3  1.52817e-05  0.000403227      5.54843 
         650            0           -0           -0      4.92591 
         650     0.013333 -5.84783e-05 -1.62708e-07      4.92591 
         650     0.053333 -0.000179256 -2.51333e-06      4.92591 
         650         0.12 -0.000193102 -1.18097e-05      4.92591 
         650     0.213332 -1.62666e-05 -3.29427e-05      4.92591 
         650     0.333332  0.000276321 -6.74803e-05      4.92591 
         650         0.48  0.000535453 -0.000112928      4.92591 
         650     0.653331  0.000668467 -0.000165568      4.92591 
         650     0.853332  0.000666438 -0.000223183      4.92591 
         650         1.08  0.000565104 -0.000284507      4.92591 
         650      1.33333  0.000435225 -0.000346551      4.92591 
         650      1.61333  0.000345386 -0.000404586      4.92591 
         650         1.92  0.000282961 -0.000455298      4.92591 
         650      2.25333  0.000217074 -0.000496494       4.9259 
         650      2.61333  0.000143194 -0.000525671       4.9259 
         650            3  6.99847e-05 -0.000540437       4.9259 
         700            0            0            0      4.30305 
         700     0.013333  0.000145491  8.81046e-08      4.30305 
         700     0.053333   0.00047383   1.4708e-06      4.30305 
         700         0.12  0.000791853  7.65189e-06      4.30305 
         700     0.213332  0.000916975  2.37453e-05      4.30305 
         700     0.333332  0.000816133  5.37506e-05      4.30305 
         700         0.48  0.000603038  9.80895e-05      4.30305 
         700     0.653331  0.000417003  0.000154099      4.30305 
         700     0.853332  0.000326841  0.000218376      4.30305 
         700         1.08  0.000321772  0.000287778      4.30305 
         700      1.33333  0.000339096  0.000358573      4.30305 
         700      1.61333  0.000316679  0.000426319      4.30305 
         700         1.92  0.000255818  0.000487547      4.30305 
         700      2.25333  0.000184953  0.000539472      4.30304 
         700      2.61333  0.000114338  0.000579079      4.30304 
         700            3  4.39283e-05  0.000603516      4.30303 
         750            0           -0           -0      3.67916 
         750     0.013333 -0.000152225  1.04435e-07      3.67916 
         750     0.053333  -0.00060057  1.37987e-06      3.67916 
         750         0.12  -0.00121434  4.96408e-06      3.67916 
         750     0.213332  -0.00178423  9.14623e-06      3.67916 
         750     0.333332  -0.00212851  9.19262e-06      3.67916 
         750         0.48  -0.00221838  7.34427e-07      3.67916 
         750     0.653331  -0.00215877 -1.70891e-05      3.67916 
         750     0.853332  -0.00205719 -4.15761e-05      3.67916 
         750         1.08   -0.0019328 -6.81566e-05      3.67916 
         750      1.33333  -0.00174552 -9.27118e-05      3.67916 
         750      1.61333  -0.00149058 -0.000113739      3.67916 
         750         1.92  -0.00121113 -0.000132213      3.67917 
         750      2.25333 -0.000916902 -0.000148204      3.67918 
         750      2.61333 -0.000609799 -0.000160869      3.67919 
         750            3 -0.000299139 -0.000169273      3.67921 
         800            0  3.97575e-21  2.22091e-27      3.05674 
         800     0.013333 -2.51016e-06 -1.44726e-07      3.05674 
         800     0.053333  1.40424e-05 -2.15152e-06      3.05674 
         800         0.12  0.000142636 -9.59983e-06      3.05674 
         800     0.213332  0.000395892 -2.53752e-05      3.05674 
         800     0.333332   0.00068869 -4.95591e-05      3.05674 
         800         0.48   0.00091935 -7.98932e-05      3.05674 
         800     0.653331   0.00104623 -0.000114123      3.05674 
         800     0.853332   0.00107624 -0.000151712      3.05674 
         800         1.08     0.001015 -0.000193619      3.05674 
         800      1.33333   0.00087113 -0.000240143      3.05674 
         800      1.61333  0.000699238 -0.000288706      3.05674 
         800         1.92  0.000555692 -0.000334787      3.05674 
         800      2.25333   0.00042345 -0.000375336      3.05673 
         800      2.61333  0.000284272 -0.000408213      3.05673 
         800            3  0.000145164 -0.000431525      3.05672 
         850            0            0            0      2.43322 
         850     0.013333  4.24705e-05 -2.12771e-08      2.43322 
         850     0.053333  0.000141565 -2.98459e-07      2.43322 
         850         0.12  0.000287603 -1.21136e-06      2.43322 
         850     0.213332  0.000444882 -2.79806e-06      2.43322 
         850     0.333332  0.000573413 -4.51966e-06      2.43322 
         850         0.48   0.00065072 -5.52004e-06      2.43322 
         850     0.653331    0.0006808 -5.11897e-06      2.43322 
         850     0.853332   0.00068231 -3.10913e-06      2.43322 
         850         1.08  0.000669763  2.34325e-07      2.43322 
         850      1.33333  0.000643154  4.26676e-06      2.43322 
         850      1.61333   0.00059225  8.09383e-06      2.43322 
         850         1.92  0.000513202  1.10201e-05      2.43322 
         850      2.25333  0.000418981  1.31158e-05      2.43321 
         850      2.61333   0.00031758  1.44968e-05      2.43321 
         850            3  0.000210598  1.52003e-05      2.43321 
         900            0           -0           -0      1.80968 
         900     0.013333  6.04767e-05 -2.80411e-08      1.80968 
         900     0.053333  0.000207895 -3.76986e-07      1.80968 
         900         0.12  0.000413595 -1.39734e-06      1.80968 
         900     0.213332  0.000612538 -2.69402e-06      1.80968 
         900     0.333332  0.000742479 -2.92616e-06      1.80968 
         900         0.48  0.000783664 -6.11583e-07      1.80968 
         900     0.653331  0.000762931  4.88391e-06      1.80968 
         900     0.853332  0.000719581  1.31332e-05      1.80968 
         900         1.08  0.000673346  2.30991e-05      1.80968 
         900      1.33333  0.000620878  3.36727e-05      1.80968 
         900      1.61333  0.000553341  4.40282e-05      1.80968 
         900         1.92  0.000471775  5.38542e-05      1.80968 
         900      2.25333  0.000381089  6.29188e-05      1.80968 
         900      2.61333  0.000283901  7.08364e-05      1.80968 
         900            3    0.0001819  7.71728e-05      1.80967 
         950            0            0            0      1.18578 
         950     0.013333  7.87477e-05  5.11679e-08      1.18578 
         950     0.053333  0.000246187  8.42233e-07      1.18578 
         950         0.12  0.000403269  4.31366e-06      1.18578 
         950     0.213332   0.00045154  1.32431e-05      1.18578 
         950     0.333332  0.000372497  2.98096e-05      1.18578 
         950         0.48   0.00023041  5.42416e-05      1.18578 
         950     0.653331  0.000107822  8.49926e-05      1.18578 
         950     0.853332  4.76778e-05  0.000120052      1.18578 
         950         1.08  4.49821e-05  0.000157698      1.18578 
         950      1.33333  6.49519e-05  0.000196209      1.18578 
         950      1.61333  7.21647e-05  0.000233712      1.18578 
         950         1.92  6.08734e-05  0.000268751      1.18578 
         950      2.25333  4.41447e-05  0.000300136      1.18578 
         950      2.61333  2.81426e-05   0.00032643      1.18578 
         950            3  1.28188e-05  0.000346057      1.18578 
        1000            0           -0           -0     0.561412 
        1000     0.013333 -4.16714e-05  1.12698e-07     0.561412 
        1000     0.053333 -0.000208182  1.64475e-06     0.561412 
        1000         0.12 -0.000503544  7.12392e-06     0.561412 
        1000     0.213332 -0.000871464  1.80349e-05     0.561412 
        1000     0.333332   -0.0011961  3.32103e-05     0.561412 
        1000         0.48  -0.00138793  4.96798e-05     0.561412 
        1000     0.653331   -0.0014415  6.50979e-05     0.561411 
        1000     0.853332  -0.00140338  7.92191e-05     0.561411 
        1000         1.08  -0.00130892  9.34207e-05      0.56141 
        1000      1.33333  -0.00116852  0.000109018     0.561411 
        1000      1.61333 -0.000999866  0.000125773     0.561412 
        1000         1.92 -0.000833702  0.000141939     0.561414 
        1000      2.25333 -0.000668615  0.000156135     0.561418 
        1000      2.61333 -0.000497089  0.000167631     0.561425 
        1000            3   -0.0003169  0.000175861     0.561435 
