Variables = x, y, u, v, p

Zone, I=416, F=POINT
         -50            0            0            0     -141.623 
         -50     0.013333 -7.36411e-05 -3.67139e-08     -141.623 
         -50     0.053333 -7.35748e-05  9.50395e-08     -141.623 
         -50         0.12 -8.38557e-05  6.28747e-07     -141.623 
         -50     0.213332 -9.71491e-05  1.74627e-06     -141.622 
         -50     0.333332  -0.00010671  3.00439e-06     -141.622 
         -50         0.48 -0.000109707  4.19749e-06     -141.622 
         -50     0.653331 -0.000106885  5.23069e-06     -141.622 
         -50     0.853332 -0.000100423  6.50316e-06     -141.621 
         -50         1.08 -9.11386e-05  7.64897e-06      -141.62 
         -50      1.33333 -8.02692e-05  7.92549e-06     -141.619 
         -50      1.61333 -7.12815e-05   7.4453e-06     -141.617 
         -50         1.92 -6.35084e-05  6.93555e-06     -141.614 
         -50      2.25333 -5.92733e-05    4.127e-06     -141.611 
         -50      2.61333 -6.50109e-05 -3.60485e-06     -141.607 
         -50            3 -7.65416e-05 -1.33015e-05     -141.602 
         -25            0           -0           -0     -136.001 
         -25     0.013333 -5.85236e-05 -3.33055e-08     -136.001 
         -25     0.053333 -6.48207e-05 -2.49999e-07     -136.001 
         -25         0.12  -6.7493e-05 -1.06486e-06     -136.001 
         -25     0.213332 -6.05382e-05 -2.82545e-06     -136.001 
         -25     0.333332 -5.06587e-05 -5.55297e-06     -136.001 
         -25         0.48 -4.53912e-05 -9.01348e-06     -136.001 
         -25     0.653331 -4.70598e-05 -1.31611e-05     -136.001 
         -25     0.853332 -5.20159e-05  -1.7345e-05         -136 
         -25         1.08 -5.41897e-05 -2.11997e-05         -136 
         -25      1.33333 -5.26572e-05 -2.41979e-05     -135.999 
         -25      1.61333 -4.91879e-05 -2.60293e-05     -135.999 
         -25         1.92 -4.55805e-05  -2.6818e-05     -135.998 
         -25      2.25333 -4.35816e-05 -2.64118e-05     -135.997 
         -25      2.61333 -4.41304e-05 -2.49701e-05     -135.995 
         -25            3 -4.55326e-05 -2.26601e-05     -135.993 
           0            0            0            0     -131.426 
           0     0.013333 -2.81256e-05  4.26638e-05     -131.429 
           0     0.053333 -4.56754e-05  2.19718e-05     -131.437 
           0         0.12 -3.96021e-05  2.28286e-05     -131.444 
           0     0.213332 -3.86107e-05   1.7724e-05     -131.453 
           0     0.333332 -4.12951e-05  1.49753e-05     -131.461 
           0         0.48 -4.31811e-05   1.4082e-05     -131.469 
           0     0.653331 -4.22013e-05  1.42344e-05     -131.477 
           0     0.853332 -4.05556e-05  1.49257e-05     -131.485 
           0         1.08  -4.1103e-05  1.56611e-05     -131.492 
           0      1.33333 -4.18759e-05  1.61802e-05     -131.499 
           0      1.61333 -4.16437e-05  1.63653e-05     -131.505 
           0         1.92  -4.3647e-05  1.58964e-05     -131.511 
           0      2.25333 -4.72103e-05  1.47541e-05     -131.516 
           0      2.61333 -4.88123e-05  1.31783e-05     -131.521 
           0            3 -4.67813e-05  1.28489e-05     -131.526 
          20            0  -5.9871e-05 -2.49385e-05     -128.592 
          20     0.013333 -5.43196e-05 -2.53449e-05     -128.592 
          20     0.053333 -3.69277e-05 -2.65728e-05     -128.592 
          20         0.12 -5.93446e-06 -2.86906e-05     -128.592 
          20     0.213332  3.91352e-05   -3.198e-05     -128.592 
          20     0.333332  9.16108e-05 -3.71735e-05     -128.591 
          20         0.48  0.000133005  -4.5351e-05     -128.591 
          20     0.653331  0.000146319 -5.67437e-05      -128.59 
          20     0.853332  0.000136816 -6.94069e-05     -128.589 
          20         1.08  0.000118713 -8.06337e-05     -128.588 
          20      1.33333  9.54873e-05 -8.87228e-05     -128.587 
          20      1.61333  6.79243e-05 -9.25947e-05     -128.585 
          20         1.92  3.99076e-05 -9.17076e-05     -128.583 
          20      2.25333  1.46563e-05 -8.64696e-05     -128.581 
          20      2.61333 -2.53723e-06 -7.74152e-05     -128.579 
          20            3 -1.35506e-05 -6.84088e-05     -128.576 
          40            0           -0           -0     -125.662 
          40     0.013333 -2.42869e-05 -1.54594e-07     -125.662 
          40     0.053333  4.21155e-05 -2.06742e-06     -125.662 
          40         0.12  0.000161319 -8.08923e-06     -125.662 
          40     0.213332  0.000277167  -1.8005e-05     -125.662 
          40     0.333332  0.000332804 -2.93632e-05     -125.662 
          40         0.48  0.000326863 -4.13877e-05     -125.662 
          40     0.653331  0.000278143    -5.61e-05     -125.662 
          40     0.853332   0.00021485 -7.37996e-05     -125.662 
          40         1.08  0.000146475 -9.16509e-05     -125.662 
          40      1.33333   6.4176e-05 -0.000107198     -125.662 
          40      1.61333 -1.03792e-05 -0.000117959     -125.662 
          40         1.92 -8.13713e-05 -0.000122031     -125.662 
          40      2.25333 -0.000127283 -0.000119959     -125.661 
          40      2.61333 -0.000148189 -0.000112549     -125.661 
          40            3 -0.000155004 -0.000101558      -125.66 
          60            0           -0           -0      -122.88 
          60     0.013333  8.34557e-06 -2.71639e-08      -122.88 
          60     0.053333  0.000127716 -2.21062e-07      -122.88 
          60         0.12  0.000258356 -9.15441e-08      -122.88 
          60     0.213332  0.000340042  2.09596e-06      -122.88 
          60     0.333332  0.000362932  7.97466e-06      -122.88 
          60         0.48  0.000366935  1.77693e-05      -122.88 
          60     0.653331  0.000383597  3.01321e-05      -122.88 
          60     0.853332  0.000385398  4.13697e-05      -122.88 
          60         1.08  0.000321814  4.75453e-05      -122.88 
          60      1.33333   0.00022002  4.89817e-05      -122.88 
          60      1.61333  0.000119923  4.88395e-05      -122.88 
          60         1.92  1.76434e-05  4.69898e-05      -122.88 
          60      2.25333 -6.26899e-05  4.33401e-05      -122.88 
          60      2.61333 -0.000115745  3.86758e-05     -122.879 
          60            3 -0.000147888  3.32091e-05     -122.879 
          80            0           -0           -0     -120.192 
          80     0.013333 -2.59858e-05 -6.56778e-08     -120.192 
          80     0.053333  1.88423e-05 -9.49358e-07     -120.192 
          80         0.12  0.000105076 -4.12134e-06     -120.192 
          80     0.213332  0.000208748 -1.03003e-05     -120.192 
          80     0.333332  0.000281149 -1.84211e-05     -120.192 
          80         0.48  0.000299768 -2.65292e-05     -120.192 
          80     0.653331  0.000280086 -3.32549e-05     -120.192 
          80     0.853332  0.000246206 -3.81677e-05     -120.192 
          80         1.08  0.000198891 -4.19465e-05     -120.192 
          80      1.33333  0.000133663 -4.55494e-05     -120.191 
          80      1.61333  6.90026e-05 -4.79813e-05     -120.191 
          80         1.92  2.81656e-06 -4.83603e-05     -120.191 
          80      2.25333 -5.01768e-05 -4.66257e-05     -120.191 
          80      2.61333 -8.12845e-05 -4.26462e-05     -120.191 
          80            3 -9.35948e-05 -3.83194e-05     -120.191 
         100            0           -0           -0     -117.559 
         100     0.013333 -5.67213e-05 -1.72651e-07     -117.559 
         100     0.053333  -6.4282e-05 -2.57716e-06     -117.559 
         100         0.12    2.488e-05 -1.14939e-05     -117.559 
         100     0.213332   0.00020914 -2.98712e-05     -117.559 
         100     0.333332  0.000392071 -5.66558e-05     -117.559 
         100         0.48  0.000491865 -8.87314e-05     -117.559 
         100     0.653331  0.000487599 -0.000124168     -117.559 
         100     0.853332  0.000404624 -0.000161351     -117.559 
         100         1.08  0.000308284 -0.000196333     -117.559 
         100      1.33333  0.000229673 -0.000225506     -117.559 
         100      1.61333  0.000147497 -0.000247179     -117.559 
         100         1.92  5.11857e-05 -0.000258509     -117.559 
         100      2.25333 -2.65684e-05 -0.000258526     -117.559 
         100      2.61333 -8.45233e-05 -0.000248355     -117.559 
         100            3 -0.000128021 -0.000230366     -117.559 
         150            0 -5.47726e-20 -2.21598e-25     -111.107 
         150     0.013333   -8.787e-05  1.51599e-07     -111.107 
         150     0.053333 -0.000252259  2.09921e-06     -111.107 
         150         0.12 -0.000504527  8.23043e-06     -111.107 
         150     0.213332 -0.000735853  1.79905e-05     -111.107 
         150     0.333332 -0.000844536  2.75134e-05     -111.107 
         150         0.48 -0.000829649  3.36623e-05     -111.107 
         150     0.653331 -0.000746463  3.69243e-05     -111.107 
         150     0.853332 -0.000623734   3.9839e-05     -111.107 
         150         1.08 -0.000483128  4.28291e-05     -111.107 
         150      1.33333 -0.000357239  4.41418e-05     -111.107 
         150      1.61333 -0.000235647  4.29095e-05     -111.107 
         150         1.92 -0.000103569  3.96968e-05     -111.107 
         150      2.25333   8.8393e-06  3.48401e-05     -111.107 
         150      2.61333  9.22326e-05  2.84861e-05     -111.107 
         150            3  0.000146269  2.11162e-05     -111.107 
         200            0           -0           -0     -104.735 
         200     0.013333 -0.000171615  8.01561e-08     -104.735 
         200     0.053333 -0.000533025  9.00826e-07     -104.735 
         200         0.12 -0.000975948  2.16537e-06     -104.735 
         200     0.213332  -0.00131235  2.83308e-07     -104.735 
         200     0.333332  -0.00145727 -9.59547e-06     -104.735 
         200         0.48  -0.00147067 -2.94842e-05     -104.735 
         200     0.653331  -0.00144492 -5.73381e-05     -104.735 
         200     0.853332  -0.00138832 -8.79155e-05     -104.735 
         200         1.08  -0.00124014 -0.000115199     -104.735 
         200      1.33333 -0.000999875 -0.000136169     -104.735 
         200      1.61333 -0.000727925 -0.000152079     -104.735 
         200         1.92 -0.000437592 -0.000162121     -104.735 
         200      2.25333 -0.000168357 -0.000165089     -104.735 
         200      2.61333  5.82659e-05 -0.000161593     -104.735 
         200            3  0.000233098 -0.000152174     -104.735 
         250            0           -0           -0     -98.3896 
         250     0.013333  3.87904e-05 -3.76539e-08     -98.3896 
         250     0.053333  0.000231968 -3.88159e-07     -98.3896 
         250         0.12  0.000450362 -5.92305e-07     -98.3896 
         250     0.213332  0.000583078  1.94303e-06     -98.3896 
         250     0.333332  0.000586888  1.05262e-05     -98.3896 
         250         0.48  0.000516171  2.61356e-05     -98.3896 
         250     0.653331  0.000440863  4.66235e-05     -98.3896 
         250     0.853332  0.000373074  6.83602e-05     -98.3896 
         250         1.08  0.000293166  8.87563e-05     -98.3896 
         250      1.33333  0.000210196  0.000107506     -98.3896 
         250      1.61333  0.000134267  0.000124766     -98.3896 
         250         1.92  5.54114e-05  0.000138708     -98.3896 
         250      2.25333 -1.98241e-05  0.000147854     -98.3896 
         250      2.61333 -8.55549e-05  0.000151617     -98.3897 
         250            3 -0.000137956  0.000149813     -98.3897 
         300            0            0            0     -92.0519 
         300     0.013333  7.32454e-05  2.36535e-08     -92.0519 
         300     0.053333  0.000337329  5.84334e-07     -92.0519 
         300         0.12  0.000597353  4.05658e-06     -92.0519 
         300     0.213332   0.00071237  1.48442e-05     -92.0519 
         300     0.333332  0.000671986  3.63309e-05     -92.0519 
         300         0.48   0.00058002  6.80975e-05     -92.0519 
         300     0.653331  0.000528456  0.000106823     -92.0519 
         300     0.853332  0.000519298  0.000148017     -92.0519 
         300         1.08   0.00048281  0.000186468     -92.0519 
         300      1.33333  0.000381014  0.000218449     -92.0519 
         300      1.61333  0.000259281  0.000243934     -92.0519 
         300         1.92  0.000143917  0.000262336     -92.0519 
         300      2.25333  3.63814e-05   0.00027179     -92.0519 
         300      2.61333 -5.89209e-05   0.00027164      -92.052 
         300            3 -0.000135228  0.000262076      -92.052 
         350            0            0            0     -85.7154 
         350     0.013333  0.000120273 -6.30359e-08     -85.7154 
         350     0.053333  0.000530216  -6.6169e-07     -85.7154 
         350         0.12   0.00101815  -1.1353e-06     -85.7154 
         350     0.213332   0.00136682  2.62454e-06     -85.7154 
         350     0.333332   0.00146919  1.62596e-05     -85.7154 
         350         0.48   0.00139646  4.24194e-05     -85.7154 
         350     0.653331   0.00128322  7.91528e-05     -85.7154 
         350     0.853332   0.00118735  0.000121553     -85.7154 
         350         1.08   0.00106733   0.00016377     -85.7154 
         350      1.33333  0.000881157  0.000201508     -85.7154 
         350      1.61333  0.000659228  0.000234013     -85.7154 
         350         1.92   0.00042925  0.000260535     -85.7155 
         350      2.25333  0.000201404  0.000278885     -85.7155 
         350      2.61333 -1.09286e-05  0.000287787     -85.7155 
         350            3 -0.000189864  0.000286676     -85.7155 
         400            0 -1.63163e-19  4.55364e-27     -79.3792 
         400     0.013333 -0.000152866 -2.17775e-07     -79.3792 
         400     0.053333 -0.000389211 -3.40371e-06     -79.3792 
         400         0.12 -0.000505639 -1.62304e-05     -79.3792 
         400     0.213332 -0.000358269  -4.5946e-05     -79.3792 
         400     0.333332 -2.75445e-05 -9.54538e-05     -79.3792 
         400         0.48  0.000293487 -0.000161985     -79.3792 
         400     0.653331  0.000473718  -0.00024071     -79.3792 
         400     0.853332  0.000489032 -0.000328008     -79.3792 
         400         1.08  0.000390718 -0.000420313     -79.3792 
         400      1.33333  0.000278271  -0.00051157     -79.3792 
         400      1.61333  0.000211013 -0.000594673     -79.3792 
         400         1.92  0.000151841 -0.000663999     -79.3792 
         400      2.25333  9.21689e-05 -0.000714641     -79.3792 
         400      2.61333  3.40473e-05 -0.000742516     -79.3792 
         400            3 -1.91686e-05 -0.000745414     -79.3792 
         450            0            0            0     -73.0425 
         450     0.013333 -3.44878e-05  2.00854e-07     -73.0425 
         450     0.053333 -8.33586e-05  2.92976e-06     -73.0425 
         450         0.12 -0.000262828  1.26657e-05     -73.0425 
         450     0.213332 -0.000548586  3.21156e-05     -73.0425 
         450     0.333332 -0.000825785  5.99729e-05     -73.0425 
         450         0.48  -0.00100542  9.30512e-05     -73.0425 
         450     0.653331  -0.00107323  0.000129922     -73.0425 
         450     0.853332  -0.00103396  0.000171814     -73.0425 
         450         1.08 -0.000888859  0.000219918     -73.0425 
         450      1.33333 -0.000692309   0.00027167     -73.0425 
         450      1.61333 -0.000523667  0.000321188     -73.0425 
         450         1.92 -0.000375038  0.000363972     -73.0425 
         450      2.25333 -0.000229646  0.000397297     -73.0425 
         450      2.61333 -8.82558e-05  0.000418765     -73.0425 
         450            3  3.90334e-05  0.000426734     -73.0425 
         500            0            0            0     -66.7045 
         500     0.013333 -1.01417e-05  2.72564e-07     -66.7045 
         500     0.053333 -3.21746e-05  4.15737e-06     -66.7045 
         500         0.12 -0.000283081  1.91249e-05     -66.7045 
         500     0.213332 -0.000787463  5.17861e-05     -66.7045 
         500     0.333332  -0.00134765  0.000102222     -66.7045 
         500         0.48  -0.00172844  0.000164129     -66.7045 
         500     0.653331  -0.00184695  0.000230805     -66.7045 
         500     0.853332  -0.00175527  0.000299084     -66.7045 
         500         1.08  -0.00155003  0.000367019     -66.7045 
         500      1.33333  -0.00133329  0.000430613     -66.7045 
         500      1.61333  -0.00114017  0.000485807     -66.7045 
         500         1.92 -0.000919259  0.000530606     -66.7045 
         500      2.25333 -0.000670009  0.000562421     -66.7045 
         500      2.61333 -0.000409954  0.000578516     -66.7045 
         500            3 -0.000158921  0.000577056     -66.7045 
         550            0           -0           -0     -60.3631 
         550     0.013333 -2.73175e-05 -3.81723e-07     -60.3631 
         550     0.053333  0.000107049 -5.64091e-06     -60.3631 
         550         0.12  0.000538763 -2.49029e-05     -60.3631 
         550     0.213332   0.00124669 -6.48366e-05     -60.3631 
         550     0.333332   0.00198267 -0.000124315     -60.3631 
         550         0.48     0.002506 -0.000196522      -60.363 
         550     0.653331   0.00274982 -0.000275676      -60.363 
         550     0.853332   0.00274887 -0.000361057      -60.363 
         550         1.08   0.00252264 -0.000455075      -60.363 
         550      1.33333   0.00212881 -0.000556427     -60.3631 
         550      1.61333   0.00171089 -0.000656512     -60.3631 
         550         1.92   0.00131646 -0.000745725     -60.3631 
         550      2.25333   0.00091228 -0.000818309     -60.3631 
         550      2.61333  0.000496404 -0.000869281     -60.3631 
         550            3  9.79647e-05 -0.000894653     -60.3631 
         600            0           -0           -0     -54.0199 
         600     0.013333  0.000157027  1.98672e-07     -54.0199 
         600     0.053333  0.000594049  3.20302e-06     -54.0199 
         600         0.12  0.000949642   1.5959e-05     -54.0199 
         600     0.213332   0.00097252  4.74478e-05     -54.0199 
         600     0.333332  0.000676166  0.000103351     -54.0199 
         600         0.48  0.000284693  0.000182568     -54.0199 
         600     0.653331  1.08419e-05  0.000279434     -54.0199 
         600     0.853332 -7.52253e-05  0.000387972     -54.0199 
         600         1.08 -3.00106e-05  0.000502826     -54.0199 
         600      1.33333  3.70023e-05  0.000618068     -54.0199 
         600      1.61333  5.52782e-05  0.000727618     -54.0199 
         600         1.92  3.95312e-05  0.000826058     -54.0199 
         600      2.25333  1.38301e-05   0.00090739     -54.0199 
         600      2.61333 -1.22605e-05  0.000966006     -54.0199 
         600            3 -3.76452e-05  0.000997379     -54.0199 
         650            0            0            0     -47.6727 
         650     0.013333 -0.000176658 -2.04443e-07     -47.6727 
         650     0.053333 -0.000479736 -3.21319e-06     -47.6727 
         650         0.12 -0.000691799 -1.54204e-05     -47.6727 
         650     0.213332 -0.000643945 -4.38776e-05     -47.6727 
         650     0.333332 -0.000396993 -9.14172e-05     -47.6727 
         650         0.48 -0.000142322 -0.000155315     -47.6727 
         650     0.653331 -2.06128e-05  -0.00023115     -47.6727 
         650     0.853332 -6.68271e-05 -0.000316264     -47.6727 
         650         1.08 -0.000230592 -0.000407913     -47.6727 
         650      1.33333 -0.000373035 -0.000499239     -47.6727 
         650      1.61333 -0.000382153 -0.000581869     -47.6727 
         650         1.92 -0.000324865 -0.000651983     -47.6728 
         650      2.25333 -0.000261814 -0.000707917     -47.6728 
         650      2.61333 -0.000202322  -0.00074632     -47.6728 
         650            3 -0.000139815 -0.000763759     -47.6728 
         700            0 -4.66482e-20  6.08786e-27     -41.3234 
         700     0.013333 -6.47091e-05  1.27113e-07     -41.3234 
         700     0.053333  -0.00017316  1.81733e-06     -41.3234 
         700         0.12  -0.00038187  7.58756e-06     -41.3234 
         700     0.213332 -0.000631432  1.82673e-05     -41.3234 
         700     0.333332 -0.000819655  3.18119e-05     -41.3234 
         700         0.48 -0.000898128  4.54093e-05     -41.3234 
         700     0.653331 -0.000896232  5.83707e-05     -41.3234 
         700     0.853332 -0.000846698  7.27993e-05     -41.3234 
         700         1.08 -0.000733993  9.19152e-05     -41.3234 
         700      1.33333 -0.000558268  0.000116256     -41.3234 
         700      1.61333 -0.000397726  0.000141535     -41.3234 
         700         1.92 -0.000294413  0.000163056     -41.3234 
         700      2.25333 -0.000205172  0.000180189     -41.3234 
         700      2.61333 -0.000111605  0.000192407     -41.3234 
         700            3  -2.2677e-05  0.000198961     -41.3233 
         750            0           -0           -0     -34.9718 
         750     0.013333  3.87661e-05  2.42642e-08     -34.9718 
         750     0.053333  0.000221115  4.90362e-07     -34.9718 
         750         0.12  0.000399895  3.04004e-06     -34.9718 
         750     0.213332  0.000470732  1.06409e-05     -34.9718 
         750     0.333332  0.000414863  2.57915e-05     -34.9718 
         750         0.48  0.000309182  4.84761e-05     -34.9718 
         750     0.653331  0.000243671   7.6443e-05     -34.9718 
         750     0.853332  0.000248552  0.000106836     -34.9718 
         750         1.08  0.000281419  0.000136492     -34.9718 
         750      1.33333  0.000267121  0.000161934     -34.9718 
         750      1.61333  0.000190394  0.000181717     -34.9718 
         750         1.92  0.000117521  0.000197772     -34.9718 
         750      2.25333  6.02776e-05  0.000210452     -34.9718 
         750      2.61333  8.65261e-06  0.000218985     -34.9718 
         750            3 -4.18634e-05  0.000222349     -34.9718 
         800            0            0            0     -28.6186 
         800     0.013333 -0.000171906 -1.54364e-07     -28.6186 
         800     0.053333 -0.000468139 -2.51671e-06     -28.6186 
         800         0.12 -0.000673133 -1.26985e-05     -28.6186 
         800     0.213332 -0.000587975 -3.81199e-05     -28.6186 
         800     0.333332 -0.000244361 -8.33478e-05     -28.6186 
         800         0.48  0.000142369 -0.000146754     -28.6186 
         800     0.653331  0.000377528 -0.000222489     -28.6186 
         800     0.853332  0.000411707 -0.000304791     -28.6186 
         800         1.08  0.000318433 -0.000389037     -28.6186 
         800      1.33333  0.000223928 -0.000470233     -28.6186 
         800      1.61333  0.000203507  -0.00054389     -28.6186 
         800         1.92  0.000207309 -0.000608615     -28.6186 
         800      2.25333  0.000192825 -0.000662996     -28.6186 
         800      2.61333  0.000160152 -0.000704129     -28.6186 
         800            3  0.000121956 -0.000728707     -28.6186 
         850            0           -0           -0     -22.2619 
         850     0.013333  0.000393121 -3.15857e-08     -22.2619 
         850     0.053333   0.00151559  1.47283e-08     -22.2619 
         850         0.12   0.00286052  3.41081e-06     -22.2619 
         850     0.213332   0.00384935  2.01224e-05     -22.2619 
         850     0.333332   0.00415235  6.32775e-05     -22.2619 
         850         0.48   0.00389519  0.000140215     -22.2619 
         850     0.653331   0.00346094  0.000247996     -22.2619 
         850     0.853332   0.00313296  0.000376788     -22.2619 
         850         1.08   0.00292695  0.000514497     -22.2619 
         850      1.33333   0.00268068  0.000649589     -22.2619 
         850      1.61333   0.00229254  0.000774839     -22.2619 
         850         1.92   0.00184862  0.000889226     -22.2619 
         850      2.25333   0.00139162   0.00099027     -22.2619 
         850      2.61333  0.000922529     0.001073      -22.262 
         850            3  0.000449186   0.00113172      -22.262 
         900            0            0            0     -15.9064 
         900     0.013333 -0.000174369  4.69977e-07     -15.9064 
         900     0.053333 -0.000681965   6.8442e-06     -15.9064 
         900         0.12  -0.00166386  2.95273e-05     -15.9064 
         900     0.213332  -0.00294384  7.45289e-05     -15.9064 
         900     0.333332  -0.00410365  0.000137448     -15.9064 
         900         0.48  -0.00482286  0.000207643     -15.9064 
         900     0.653331  -0.00508697  0.000277789     -15.9064 
         900     0.853332  -0.00503791  0.000348939     -15.9064 
         900         1.08  -0.00473712  0.000428139     -15.9064 
         900      1.33333  -0.00417982  0.000520471     -15.9064 
         900      1.61333  -0.00348617    0.0006213     -15.9064 
         900         1.92  -0.00284479  0.000719047     -15.9064 
         900      2.25333  -0.00223305  0.000805519     -15.9063 
         900      2.61333  -0.00159973  0.000876792     -15.9063 
         900            3 -0.000948747  0.000929752     -15.9063 
         950            0            0            0     -9.54454 
         950     0.013333 -0.000142894 -1.90341e-07     -9.54454 
         950     0.053333 -0.000364622  -2.9249e-06     -9.54454 
         950         0.12 -0.000501045 -1.36514e-05     -9.54454 
         950     0.213332 -0.000432517 -3.77968e-05     -9.54454 
         950     0.333332 -0.000227696 -7.68847e-05     -9.54454 
         950         0.48 -4.48787e-05 -0.000128045     -9.54454 
         950     0.653331  1.85124e-05 -0.000187663     -9.54454 
         950     0.853332 -5.15999e-05 -0.000254714     -9.54454 
         950         1.08 -0.000240965 -0.000329887     -9.54454 
         950      1.33333 -0.000482194 -0.000410869     -9.54454 
         950      1.61333 -0.000629804 -0.000489827     -9.54454 
         950         1.92  -0.00061069  -0.00055903     -9.54454 
         950      2.25333 -0.000530174 -0.000616592     -9.54454 
         950      2.61333 -0.000448414 -0.000661388     -9.54455 
         950            3 -0.000361075 -0.000691421     -9.54455 
        1000            0            0            0      -3.1818 
        1000     0.013333  0.000130473  1.10201e-07      -3.1818 
        1000     0.053333  0.000526666  1.82052e-06      -3.1818 
        1000         0.12  0.000897146  9.30554e-06      -3.1818 
        1000     0.213332   0.00101071  2.84446e-05      -3.1818 
        1000     0.333332   0.00081988  6.36858e-05      -3.1818 
        1000         0.48  0.000473007  0.000115315      -3.1818 
        1000     0.653331  0.000165169  0.000180123      -3.1818 
        1000     0.853332  5.99639e-06   0.00025435      -3.1818 
        1000         1.08  1.97369e-06  0.000335111      -3.1818 
        1000      1.33333  7.83945e-05  0.000418688      -3.1818 
        1000      1.61333  0.000122135  0.000499354      -3.1818 
        1000         1.92  9.48213e-05  0.000572802      -3.1818 
        1000      2.25333  5.85059e-05  0.000637226      -3.1818 
        1000      2.61333  3.85017e-05  0.000690631     -3.18181 
        1000            3  2.35629e-05  0.000730102     -3.18181 
