Variables = x, y, u, v, p

Zone, I=416, F=POINT
         -50            0            0            0      -46.707 
         -50     0.013333 -0.000193589 -4.05993e-08      -46.707 
         -50     0.053333  -0.00017643 -1.66772e-07      -46.707 
         -50         0.12 -0.000175677 -4.76425e-07      -46.707 
         -50     0.213332 -0.000175164 -1.18228e-06      -46.707 
         -50     0.333332 -0.000170625 -2.34581e-06      -46.707 
         -50         0.48 -0.000163777   -3.478e-06     -46.7069 
         -50     0.653331  -0.00015888 -4.67424e-06     -46.7067 
         -50     0.853332 -0.000156635 -7.28761e-06     -46.7065 
         -50         1.08 -0.000155311 -8.79342e-06     -46.7062 
         -50      1.33333 -0.000154311  -1.0299e-05     -46.7057 
         -50      1.61333 -0.000153402 -1.11665e-05     -46.7051 
         -50         1.92 -0.000150182 -1.17594e-05     -46.7042 
         -50      2.25333 -0.000149202 -1.26989e-05     -46.7032 
         -50      2.61333 -0.000153039 -1.56523e-05     -46.7019 
         -50            3 -0.000158354 -2.01155e-05     -46.7002 
         -25            0           -0           -0     -44.8505 
         -25     0.013333 -0.000141053 -3.25677e-08     -44.8505 
         -25     0.053333 -0.000125363 -2.92799e-07     -44.8505 
         -25         0.12 -0.000116856 -1.12045e-06     -44.8505 
         -25     0.213332 -0.000108859 -2.65683e-06     -44.8505 
         -25     0.333332 -0.000105126 -4.74873e-06     -44.8505 
         -25         0.48 -0.000107549 -7.17438e-06     -44.8504 
         -25     0.653331 -0.000115134 -9.78294e-06     -44.8504 
         -25     0.853332 -0.000123769 -1.24024e-05     -44.8503 
         -25         1.08 -0.000128743 -1.46799e-05     -44.8501 
         -25      1.33333 -0.000131822 -1.63866e-05       -44.85 
         -25      1.61333 -0.000136082 -1.72058e-05     -44.8497 
         -25         1.92 -0.000139521 -1.75926e-05     -44.8494 
         -25      2.25333 -0.000138432 -1.59338e-05      -44.849 
         -25      2.61333  -0.00013569  -1.4746e-05     -44.8485 
         -25            3 -0.000135702 -1.80888e-05     -44.8479 
           0            0            0            0     -43.3412 
           0     0.013333 -0.000341102  0.000198119     -43.3427 
           0     0.053333 -0.000203608   9.8638e-05      -43.345 
           0         0.12 -0.000177736  6.24256e-05     -43.3476 
           0     0.213332 -0.000179345  4.83246e-05     -43.3504 
           0     0.333332 -0.000183007  4.11712e-05     -43.3531 
           0         0.48 -0.000180551  3.67265e-05     -43.3558 
           0     0.653331 -0.000173316  3.42242e-05     -43.3584 
           0     0.853332  -0.00016232  3.30191e-05     -43.3609 
           0         1.08 -0.000151284  3.23595e-05     -43.3633 
           0      1.33333 -0.000140986  3.16361e-05     -43.3655 
           0      1.61333 -0.000129183  3.05578e-05     -43.3676 
           0         1.92 -0.000117009  2.89399e-05     -43.3696 
           0      2.25333 -0.000106402  2.68172e-05     -43.3714 
           0      2.61333 -9.92124e-05   2.3948e-05     -43.3731 
           0            3  -9.5945e-05  2.15856e-05     -43.3746 
          20            0 -0.000403245   0.00013813     -42.4078 
          20     0.013333 -0.000400903  0.000138859     -42.4078 
          20     0.053333 -0.000394451  0.000140743     -42.4078 
          20         0.12 -0.000386272  0.000142836     -42.4077 
          20     0.213332 -0.000382098  0.000143508     -42.4076 
          20     0.333332   -0.0003902   0.00014067     -42.4075 
          20         0.48 -0.000410311  0.000132826     -42.4073 
          20     0.653331 -0.000417456    0.0001207     -42.4071 
          20     0.853332 -0.000378615  0.000106917     -42.4068 
          20         1.08 -0.000300227  9.32056e-05     -42.4064 
          20      1.33333 -0.000207175  7.95459e-05      -42.406 
          20      1.61333 -0.000109037   6.6082e-05     -42.4054 
          20         1.92 -2.28393e-05   5.3114e-05     -42.4048 
          20      2.25333  3.58256e-05  4.09016e-05     -42.4041 
          20      2.61333  6.73713e-05  3.13244e-05     -42.4033 
          20            3   7.9819e-05  2.38122e-05     -42.4024 
          40            0           -0           -0     -41.4417 
          40     0.013333 -0.000146738  7.19371e-09     -41.4417 
          40     0.053333 -0.000246583  4.59935e-08     -41.4417 
          40         0.12 -0.000365055 -4.28566e-07     -41.4417 
          40     0.213332 -0.000437647  -2.9892e-06     -41.4417 
          40     0.333332 -0.000451262 -9.35419e-06     -41.4417 
          40         0.48 -0.000437685 -2.02228e-05     -41.4417 
          40     0.653331 -0.000424562 -3.47949e-05     -41.4417 
          40     0.853332 -0.000406504 -5.11579e-05     -41.4417 
          40         1.08 -0.000366346 -6.74516e-05     -41.4416 
          40      1.33333 -0.000292233 -8.12791e-05     -41.4416 
          40      1.61333 -0.000200792 -9.09627e-05     -41.4415 
          40         1.92 -0.000119082 -9.56969e-05     -41.4414 
          40      2.25333 -5.56163e-05 -9.49275e-05     -41.4413 
          40      2.61333 -1.29848e-05  -9.0106e-05     -41.4412 
          40            3  8.07169e-06 -8.31219e-05      -41.441 
          60            0           -0           -0     -40.5243 
          60     0.013333 -8.56405e-05  8.94334e-08     -40.5243 
          60     0.053333 -7.11708e-05  1.39467e-06     -40.5243 
          60         0.12 -0.000133567  6.43978e-06     -40.5243 
          60     0.213332 -0.000274518  1.73765e-05     -40.5243 
          60     0.333332  -0.00043442  3.41105e-05     -40.5243 
          60         0.48 -0.000548954  5.48041e-05     -40.5243 
          60     0.653331 -0.000587276  7.80188e-05     -40.5243 
          60     0.853332 -0.000548005  0.000103163     -40.5243 
          60         1.08 -0.000463748  0.000128736     -40.5243 
          60      1.33333 -0.000375004  0.000152106     -40.5243 
          60      1.61333 -0.000287651  0.000170522     -40.5242 
          60         1.92 -0.000184308  0.000181319     -40.5242 
          60      2.25333 -0.000100051  0.000183468     -40.5241 
          60      2.61333 -4.27459e-05  0.000177634     -40.5241 
          60            3 -7.80807e-06   0.00016611      -40.524 
          80            0           -0           -0     -39.6376 
          80     0.013333  -2.9878e-05   7.5897e-08     -39.6376 
          80     0.053333  0.000124652  1.28807e-06     -39.6376 
          80         0.12  0.000235633  6.58233e-06     -39.6376 
          80     0.213332  0.000242253  1.94757e-05     -39.6376 
          80     0.333332  0.000182945  4.13134e-05     -39.6376 
          80         0.48  0.000139128  7.06498e-05     -39.6376 
          80     0.653331   0.00015173  0.000104824     -39.6376 
          80     0.853332  0.000187577  0.000139838     -39.6376 
          80         1.08  0.000173619  0.000170483     -39.6376 
          80      1.33333  0.000108227  0.000193827     -39.6376 
          80      1.61333  3.80261e-05  0.000210111     -39.6376 
          80         1.92 -2.70998e-05  0.000217147     -39.6376 
          80      2.25333 -8.38399e-05  0.000214455     -39.6375 
          80      2.61333 -0.000126222  0.000203271     -39.6375 
          80            3 -0.000155314   0.00018515     -39.6375 
         100            0           -0           -0     -38.7695 
         100     0.013333 -2.43094e-05  5.50166e-08     -38.7695 
         100     0.053333  0.000141491  9.97816e-07     -38.7695 
         100         0.12  0.000263669  5.47204e-06     -38.7695 
         100     0.213332  0.000263824  1.71797e-05     -38.7695 
         100     0.333332  0.000169065  3.81343e-05     -38.7695 
         100         0.48  6.80106e-05  6.73294e-05     -38.7695 
         100     0.653331  1.86536e-05  0.000102096     -38.7695 
         100     0.853332  9.44033e-06  0.000138714     -38.7695 
         100         1.08 -1.16201e-05  0.000172655     -38.7695 
         100      1.33333   -4.823e-05  0.000201026     -38.7695 
         100      1.61333 -7.69266e-05  0.000223077     -38.7695 
         100         1.92 -0.000103651  0.000235546     -38.7695 
         100      2.25333 -0.000125663  0.000237223     -38.7695 
         100      2.61333 -0.000139763   0.00022891     -38.7694 
         100            3 -0.000150758  0.000212007     -38.7694 
         150            0  -1.0056e-19 -1.09493e-25     -36.6418 
         150     0.013333 -7.85537e-05  2.31636e-07     -36.6418 
         150     0.053333 -9.44862e-05  3.45716e-06     -36.6418 
         150         0.12 -0.000260394  1.53238e-05     -36.6418 
         150     0.213332   -0.0005458  3.95655e-05     -36.6418 
         150     0.333332 -0.000804354  7.43586e-05     -36.6418 
         150         0.48  -0.00092839  0.000114708     -36.6418 
         150     0.653331 -0.000914671  0.000157269     -36.6418 
         150     0.853332  -0.00080529  0.000200871     -36.6418 
         150         1.08 -0.000656574  0.000243087     -36.6418 
         150      1.33333 -0.000517691  0.000279906     -36.6418 
         150      1.61333 -0.000384283   0.00030786     -36.6418 
         150         1.92 -0.000231074  0.000323958     -36.6417 
         150      2.25333 -9.49657e-05  0.000326724     -36.6417 
         150      2.61333  1.24109e-05  0.000316466     -36.6417 
         150            3  8.84592e-05  0.000295246     -36.6417 
         200            0           -0           -0     -34.5406 
         200     0.013333  -0.00030116  2.42975e-07     -34.5406 
         200     0.053333 -0.000869395  3.05721e-06     -34.5406 
         200         0.12  -0.00160663    1.004e-05     -34.5406 
         200     0.213332  -0.00218289  1.58109e-05     -34.5406 
         200     0.333332  -0.00241709  1.09523e-05     -34.5406 
         200         0.48  -0.00240178 -8.83839e-06     -34.5406 
         200     0.653331  -0.00229981 -3.91026e-05     -34.5406 
         200     0.853332  -0.00212187 -6.95024e-05     -34.5406 
         200         1.08  -0.00179496  -9.1501e-05     -34.5406 
         200      1.33333   -0.0013816 -0.000105047     -34.5406 
         200      1.61333 -0.000971499 -0.000115441     -34.5406 
         200         1.92  -0.00053991 -0.000122013     -34.5406 
         200      2.25333 -0.000147408 -0.000123198     -34.5405 
         200      2.61333   0.00017205 -0.000120213     -34.5405 
         200            3  0.000406593 -0.000113235     -34.5404 
         250            0           -0           -0     -32.4472 
         250     0.013333 -0.000199984  -1.9269e-08     -32.4472 
         250     0.053333 -0.000458487 -4.84804e-07     -32.4472 
         250         0.12 -0.000739065 -3.39743e-06     -32.4472 
         250     0.213332 -0.000898177 -1.25297e-05     -32.4472 
         250     0.333332 -0.000909341 -3.10373e-05     -32.4472 
         250         0.48 -0.000850351 -5.92347e-05     -32.4472 
         250     0.653331 -0.000804157 -9.51332e-05     -32.4472 
         250     0.853332 -0.000788999 -0.000135488     -32.4472 
         250         1.08 -0.000752603 -0.000175562     -32.4472 
         250      1.33333 -0.000644248 -0.000210279     -32.4472 
         250      1.61333 -0.000493444 -0.000237858     -32.4472 
         250         1.92 -0.000336482  -0.00025723     -32.4472 
         250      2.25333 -0.000184317 -0.000266586     -32.4472 
         250      2.61333 -4.70389e-05 -0.000265725     -32.4472 
         250            3  6.30251e-05 -0.000255266     -32.4472 
         300            0            0            0     -30.3568 
         300     0.013333 -0.000182332  1.15957e-09     -30.3568 
         300     0.053333 -0.000398926 -1.86083e-07     -30.3568 
         300         0.12 -0.000633487  -2.1218e-06     -30.3568 
         300     0.213332 -0.000752696 -9.37376e-06     -30.3568 
         300     0.333332  -0.00073134 -2.51805e-05     -30.3568 
         300         0.48 -0.000650695 -4.96616e-05     -30.3568 
         300     0.653331 -0.000592944 -8.00328e-05     -30.3568 
         300     0.853332 -0.000563494 -0.000112181     -30.3568 
         300         1.08 -0.000510272 -0.000141859     -30.3568 
         300      1.33333 -0.000414698 -0.000166807     -30.3568 
         300      1.61333 -0.000312156 -0.000187406     -30.3568 
         300         1.92 -0.000213625 -0.000202867     -30.3568 
         300      2.25333 -0.000121063 -0.000211539     -30.3567 
         300      2.61333  -4.0404e-05 -0.000212864     -30.3567 
         300            3  2.21397e-05 -0.000206863     -30.3567 
         350            0            0            0      -28.267 
         350     0.013333 -0.000211445  5.72418e-08      -28.267 
         350     0.053333 -0.000520313  6.32344e-07      -28.267 
         350         0.12 -0.000904768  1.38374e-06      -28.267 
         350     0.213332  -0.00118739 -7.75294e-07      -28.267 
         350     0.333332  -0.00127865  -1.0252e-05      -28.267 
         350         0.48  -0.00122975 -2.92155e-05      -28.267 
         350     0.653331  -0.00114538 -5.62696e-05      -28.267 
         350     0.853332  -0.00107155 -8.76192e-05      -28.267 
         350         1.08 -0.000974236 -0.000118554      -28.267 
         350      1.33333 -0.000819801 -0.000145621      -28.267 
         350      1.61333 -0.000637158 -0.000168564      -28.267 
         350         1.92 -0.000449546 -0.000187169      -28.267 
         350      2.25333 -0.000263717 -0.000199941      -28.267 
         350      2.61333 -9.02878e-05 -0.000205934      -28.267 
         350            3  5.62085e-05 -0.000204715      -28.267 
         400            0 -1.62535e-19  1.84044e-27     -26.1766 
         400     0.013333 -2.35957e-05  9.91598e-08     -26.1766 
         400     0.053333  0.000133465  1.53836e-06     -26.1766 
         400         0.12  0.000244842   7.2691e-06     -26.1766 
         400     0.213332  0.000241198  2.04367e-05     -26.1766 
         400     0.333332  0.000144839  4.24184e-05     -26.1766 
         400         0.48  3.00488e-05  7.24992e-05     -26.1766 
         400     0.653331 -4.29926e-05  0.000109346     -26.1766 
         400     0.853332 -4.84586e-05  0.000152009     -26.1766 
         400         1.08 -7.77258e-07  0.000198862     -26.1766 
         400      1.33333   4.2094e-05  0.000246136     -26.1766 
         400      1.61333  4.07164e-05  0.000289377     -26.1766 
         400         1.92  2.15029e-05  0.000325624     -26.1766 
         400      2.25333 -3.32854e-06   0.00035249     -26.1766 
         400      2.61333 -3.04109e-05  0.000367989     -26.1766 
         400            3 -5.64806e-05  0.000370976     -26.1766 
         450            0            0            0     -24.0866 
         450     0.013333 -0.000146381  6.63203e-08     -24.0866 
         450     0.053333 -0.000299576  9.26985e-07     -24.0866 
         450         0.12  -0.00053944  3.70654e-06     -24.0866 
         450     0.213332 -0.000783517   8.2766e-06     -24.0866 
         450     0.333332 -0.000946498   1.2665e-05     -24.0866 
         450         0.48  -0.00100123  1.44898e-05     -24.0866 
         450     0.653331 -0.000981926  1.27909e-05     -24.0866 
         450     0.853332 -0.000929145  8.34105e-06     -24.0866 
         450         1.08 -0.000855031  2.58162e-06     -24.0866 
         450      1.33333 -0.000759099 -3.61853e-06     -24.0866 
         450      1.61333 -0.000644941 -1.01156e-05     -24.0866 
         450         1.92 -0.000512535 -1.65961e-05     -24.0866 
         450      2.25333 -0.000368953 -2.26756e-05     -24.0866 
         450      2.61333 -0.000223798 -2.79351e-05     -24.0866 
         450            3 -8.84552e-05 -3.20592e-05     -24.0866 
         500            0            0            0     -21.9955 
         500     0.013333 -5.82489e-05 -2.76212e-08     -21.9955 
         500     0.053333  4.30957e-05 -3.48668e-07     -21.9955 
         500         0.12  0.000168386 -1.17149e-06     -21.9955 
         500     0.213332  0.000284282 -2.01596e-06     -21.9955 
         500     0.333332  0.000368365 -2.05953e-06     -21.9955 
         500         0.48  0.000426509 -9.87645e-07     -21.9955 
         500     0.653331   0.00047391  7.77893e-07     -21.9955 
         500     0.853332  0.000508975  2.19815e-06     -21.9955 
         500         1.08  0.000504906  1.64326e-06     -21.9955 
         500      1.33333  0.000441907 -2.17012e-06     -21.9955 
         500      1.61333  0.000345347 -8.52811e-06     -21.9955 
         500         1.92  0.000247193 -1.58121e-05     -21.9955 
         500      2.25333  0.000147742 -2.30835e-05     -21.9955 
         500      2.61333  4.74727e-05 -2.99761e-05     -21.9955 
         500            3 -4.65693e-05 -3.62207e-05     -21.9955 
         550            0           -0           -0     -19.9039 
         550     0.013333 -1.99041e-05 -8.46848e-08     -19.9039 
         550     0.053333  0.000198212 -1.15951e-06     -19.9039 
         550         0.12  0.000503254 -4.48986e-06     -19.9039 
         550     0.213332  0.000804202 -9.63054e-06     -19.9039 
         550     0.333332    0.0010065 -1.40992e-05     -19.9039 
         550         0.48   0.00108927  -1.5459e-05     -19.9039 
         550     0.653331   0.00109696 -1.33373e-05     -19.9039 
         550     0.853332   0.00106625 -9.57583e-06     -19.9039 
         550         1.08  0.000987189 -6.95974e-06     -19.9039 
         550      1.33333  0.000850881 -6.76971e-06     -19.9039 
         550      1.61333  0.000690711 -7.71805e-06     -19.9039 
         550         1.92  0.000525176 -8.27749e-06     -19.9039 
         550      2.25333  0.000349229 -8.60075e-06     -19.9039 
         550      2.61333  0.000166844 -8.67647e-06     -19.9039 
         550            3 -8.63195e-06 -8.42242e-06     -19.9039 
         600            0           -0           -0     -17.8116 
         600     0.013333  -1.0225e-05 -1.11355e-07     -17.8116 
         600     0.053333  0.000241427 -1.57421e-06     -17.8116 
         600         0.12  0.000605623 -6.38941e-06     -17.8116 
         600     0.213332  0.000967322 -1.44777e-05     -17.8116 
         600     0.333332   0.00118499 -2.24196e-05     -17.8116 
         600         0.48   0.00120982 -2.59877e-05     -17.8116 
         600     0.653331    0.0011027 -2.37832e-05     -17.8116 
         600     0.853332  0.000941154 -1.76763e-05     -17.8116 
         600         1.08  0.000764688 -9.91451e-06     -17.8116 
         600      1.33333  0.000606988  -2.8098e-07     -17.8116 
         600      1.61333  0.000486245  1.23398e-05     -17.8116 
         600         1.92  0.000364648  2.69507e-05     -17.8116 
         600      2.25333  0.000227682  4.19387e-05     -17.8116 
         600      2.61333   8.2835e-05  5.61479e-05     -17.8116 
         600            3 -5.69999e-05   6.8833e-05     -17.8116 
         650            0            0            0     -15.7195 
         650     0.013333 -0.000286686  2.23006e-07     -15.7195 
         650     0.053333 -0.000847166  3.05324e-06     -15.7195 
         650         0.12   -0.0016731  1.18222e-05     -15.7195 
         650     0.213332  -0.00248788  2.53297e-05     -15.7195 
         650     0.333332  -0.00301967  3.68892e-05     -15.7195 
         650         0.48  -0.00320568  3.97844e-05     -15.7195 
         650     0.653331  -0.00317815  3.27028e-05     -15.7195 
         650     0.853332  -0.00306405  2.01471e-05     -15.7196 
         650         1.08  -0.00285681  9.61493e-06     -15.7196 
         650      1.33333  -0.00250733  6.14527e-06     -15.7196 
         650      1.61333  -0.00207756  7.94858e-06     -15.7195 
         650         1.92  -0.00165338  1.02085e-05     -15.7195 
         650      2.25333  -0.00121851  1.19138e-05     -15.7195 
         650      2.61333 -0.000767477  1.32456e-05     -15.7195 
         650            3 -0.000324875   1.4305e-05     -15.7195 
         700            0 -8.17652e-20  2.04035e-27     -13.6244 
         700     0.013333 -2.08128e-05 -5.94006e-08     -13.6244 
         700     0.053333  0.000183332 -7.47704e-07     -13.6244 
         700         0.12  0.000439096  -2.4573e-06     -13.6244 
         700     0.213332  0.000651642 -3.84666e-06     -13.6244 
         700     0.333332  0.000757764 -2.49556e-06     -13.6244 
         700         0.48  0.000779392   2.7988e-06     -13.6244 
         700     0.653331  0.000781309  1.10659e-05     -13.6244 
         700     0.853332  0.000795255  1.98743e-05     -13.6244 
         700         1.08  0.000784691  2.57388e-05     -13.6244 
         700      1.33333   0.00068654  2.52076e-05     -13.6244 
         700      1.61333   0.00051484  1.82308e-05     -13.6244 
         700         1.92  0.000356988  8.50475e-06     -13.6244 
         700      2.25333   0.00021772  -1.6446e-06     -13.6245 
         700      2.61333  8.33926e-05 -1.17575e-05     -13.6245 
         700            3 -4.70271e-05 -2.17379e-05     -13.6245 
         750            0           -0           -0     -11.5302 
         750     0.013333 -0.000152426 -9.44942e-08     -11.5302 
         750     0.053333 -0.000271112 -1.49606e-06     -11.5302 
         750         0.12 -0.000344504 -7.25698e-06     -11.5302 
         750     0.213332  -0.00028555 -2.08926e-05     -11.5302 
         750     0.333332 -0.000123693  -4.3966e-05     -11.5302 
         750         0.48  3.94128e-05 -7.51373e-05     -11.5302 
         750     0.653331  0.000125095 -0.000111902     -11.5302 
         750     0.853332  0.000115037 -0.000152529     -11.5302 
         750         1.08  3.80352e-05 -0.000195585     -11.5302 
         750      1.33333 -3.85694e-05 -0.000238125     -11.5302 
         750      1.61333 -6.00382e-05 -0.000276608     -11.5302 
         750         1.92 -5.35141e-05 -0.000309924     -11.5302 
         750      2.25333 -5.11227e-05 -0.000337307     -11.5302 
         750      2.61333 -5.59589e-05 -0.000357549     -11.5302 
         750            3 -6.08018e-05 -0.000369088     -11.5302 
         800            0            0            0     -9.43537 
         800     0.013333 -0.000105546  1.57563e-07     -9.43537 
         800     0.053333 -0.000182381  2.34992e-06     -9.43537 
         800         0.12 -0.000405794  1.04621e-05     -9.43537 
         800     0.213332 -0.000740927  2.72331e-05     -9.43537 
         800     0.333332  -0.00104854  5.14409e-05     -9.43537 
         800         0.48  -0.00120323  7.88827e-05     -9.43537 
         800     0.653331   -0.0011881  0.000106361     -9.43537 
         800     0.853332  -0.00105385  0.000133876     -9.43537 
         800         1.08 -0.000851478  0.000162599     -9.43537 
         800      1.33333 -0.000646693  0.000191185     -9.43537 
         800      1.61333 -0.000509471  0.000215814     -9.43537 
         800         1.92 -0.000422234  0.000234876     -9.43537 
         800      2.25333 -0.000332726  0.000248336     -9.43536 
         800      2.61333 -0.000230057  0.000256211     -9.43535 
         800            3 -0.000127831  0.000257915     -9.43534 
         850            0           -0           -0     -7.33863 
         850     0.013333 -0.000121059 -4.02079e-07     -7.33863 
         850     0.053333  -5.5866e-05 -6.09379e-06     -7.33863 
         850         0.12  0.000352479 -2.78808e-05     -7.33863 
         850     0.213332   0.00116202 -7.54236e-05     -7.33863 
         850     0.333332    0.0020884 -0.000149462     -7.33863 
         850         0.48    0.0027566 -0.000241539     -7.33863 
         850     0.653331   0.00300259 -0.000341978     -7.33863 
         850     0.853332   0.00288418 -0.000446678     -7.33863 
         850         1.08   0.00252569 -0.000555648     -7.33863 
         850      1.33333   0.00207958 -0.000665976     -7.33863 
         850      1.61333   0.00170593 -0.000769946     -7.33863 
         850         1.92   0.00141187  -0.00086156     -7.33863 
         850      2.25333   0.00110648 -0.000937953     -7.33864 
         850      2.61333  0.000763319 -0.000995883     -7.33866 
         850            3  0.000410937  -0.00103128     -7.33868 
         900            0            0            0     -5.24245 
         900     0.013333  0.000415556  3.25542e-07     -5.24245 
         900     0.053333   0.00163084  5.47014e-06     -5.24245 
         900         0.12   0.00277522  2.86819e-05     -5.24245 
         900     0.213332   0.00315522  8.96337e-05     -5.24245 
         900     0.333332   0.00265002  0.000203795     -5.24245 
         900         0.48   0.00173144   0.00037218     -5.24245 
         900     0.653331  0.000982262  0.000583031     -5.24244 
         900     0.853332  0.000681517  0.000821601     -5.24244 
         900         1.08  0.000751109    0.0010747     -5.24244 
         900      1.33333  0.000888776   0.00132773     -5.24244 
         900      1.61333  0.000826274   0.00156594     -5.24245 
         900         1.92  0.000617145   0.00178176     -5.24245 
         900      2.25333   0.00039607   0.00197011     -5.24246 
         900      2.61333  0.000198963   0.00212273     -5.24247 
         900            3  6.41034e-06   0.00222969     -5.24249 
         950            0            0            0     -3.14855 
         950     0.013333 -0.000673146  5.23948e-07     -3.14855 
         950     0.053333  -0.00234773  7.22597e-06     -3.14855 
         950         0.12  -0.00478872  2.82642e-05     -3.14855 
         950     0.213332   -0.0072354  6.11678e-05     -3.14855 
         950     0.333332  -0.00888965  8.91648e-05     -3.14855 
         950         0.48   -0.0094838  9.32712e-05     -3.14855 
         950     0.653331  -0.00935218  6.68925e-05     -3.14856 
         950     0.853332  -0.00895016   1.8829e-05     -3.14856 
         950         1.08  -0.00841679 -3.31993e-05     -3.14856 
         950      1.33333  -0.00761446 -7.27168e-05     -3.14856 
         950      1.61333  -0.00652423 -9.51175e-05     -3.14855 
         950         1.92   -0.0053868 -0.000109898     -3.14853 
         950      2.25333  -0.00426477 -0.000123061      -3.1485 
         950      2.61333   -0.0031204 -0.000135504     -3.14845 
         950            3  -0.00192926 -0.000145508     -3.14838 
        1000            0            0            0     -1.04771 
        1000     0.013333  -0.00045811 -6.22322e-07     -1.04771 
        1000     0.053333  -0.00119367 -9.67727e-06     -1.04771 
        1000         0.12  -0.00155361  -4.5755e-05     -1.04771 
        1000     0.213332  -0.00103589 -0.000129017     -1.04771 
        1000     0.333332   0.00016195 -0.000268256     -1.04771 
        1000         0.48   0.00139772 -0.000456345     -1.04771 
        1000     0.653331   0.00216643 -0.000679097     -1.04771 
        1000     0.853332   0.00233676 -0.000927006     -1.04771 
        1000         1.08   0.00199525  -0.00119685     -1.04771 
        1000      1.33333   0.00136451  -0.00148215     -1.04771 
        1000      1.61333  0.000804378  -0.00176566     -1.04771 
        1000         1.92  0.000530517  -0.00202778     -1.04772 
        1000      2.25333  0.000363089  -0.00225809     -1.04773 
        1000      2.61333  0.000178769  -0.00244801     -1.04774 
        1000            3  -1.9806e-05  -0.00258779     -1.04775 
