Variables = x, y, u, v, p

Zone, I=416, F=POINT
         -50            0            0            0      114.661 
         -50     0.013333 -9.67046e-05  1.59592e-08      114.661 
         -50     0.053333 -8.78173e-05 -3.75613e-08      114.661 
         -50         0.12 -9.34633e-05 -1.43756e-07      114.661 
         -50     0.213332 -9.86914e-05 -4.28743e-07      114.661 
         -50     0.333332  -0.00010056 -7.79749e-07      114.661 
         -50         0.48 -0.000100374 -1.30167e-06      114.661 
         -50     0.653331 -9.90447e-05 -1.84123e-06       114.66 
         -50     0.853332 -9.72358e-05  -2.8757e-06       114.66 
         -50         1.08 -9.63987e-05 -3.94566e-06      114.659 
         -50      1.33333 -9.46513e-05 -4.66801e-06      114.658 
         -50      1.61333 -9.07266e-05 -4.94939e-06      114.656 
         -50         1.92 -9.42344e-05 -6.64194e-06      114.654 
         -50      2.25333 -8.46573e-05 -4.62183e-06      114.652 
         -50      2.61333 -6.47944e-05 -5.27602e-07      114.649 
         -50            3 -5.67596e-05  -1.9888e-07      114.645 
         -25            0           -0           -0      110.121 
         -25     0.013333 -6.77505e-05 -6.81785e-09      110.121 
         -25     0.053333 -5.08749e-05 -2.11546e-07      110.121 
         -25         0.12 -3.83281e-05 -8.52672e-07      110.121 
         -25     0.213332  -2.7108e-05   -1.983e-06      110.121 
         -25     0.333332 -2.26165e-05 -3.38866e-06       110.12 
         -25         0.48 -2.61553e-05 -4.80995e-06       110.12 
         -25     0.653331 -3.51994e-05 -6.20033e-06       110.12 
         -25     0.853332 -4.65194e-05 -7.68269e-06       110.12 
         -25         1.08 -5.65709e-05 -9.05636e-06       110.12 
         -25      1.33333  -6.3977e-05 -1.00822e-05      110.119 
         -25      1.61333 -7.02806e-05 -1.09945e-05      110.119 
         -25         1.92 -7.45554e-05 -1.05467e-05      110.118 
         -25      2.25333 -8.17948e-05  -1.1415e-05      110.117 
         -25      2.61333 -8.89077e-05 -1.09719e-05      110.116 
         -25            3 -8.77018e-05 -5.06247e-06      110.114 
           0            0            0            0      106.429 
           0     0.013333 -0.000245105  0.000120388      106.432 
           0     0.053333 -8.64767e-05   5.6954e-05      106.437 
           0         0.12 -4.09663e-05  2.86166e-05      106.444 
           0     0.213332 -2.12936e-05  2.14615e-05       106.45 
           0     0.333332 -1.23731e-05  1.78352e-05      106.457 
           0         0.48  -6.9694e-06  1.60053e-05      106.463 
           0     0.653331 -2.29908e-06  1.55821e-05       106.47 
           0     0.853332  -5.2989e-07  1.60125e-05      106.476 
           0         1.08 -6.37072e-06   1.6668e-05      106.481 
           0      1.33333 -1.77591e-05  1.71555e-05      106.487 
           0      1.61333 -3.01717e-05  1.73248e-05      106.492 
           0         1.92 -4.33181e-05  1.70393e-05      106.497 
           0      2.25333 -5.30547e-05  1.63686e-05      106.501 
           0      2.61333 -6.06483e-05  1.46762e-05      106.505 
           0            3 -7.06982e-05  9.90453e-06      106.509 
          20            0 -2.91476e-06 -0.000104743      104.142 
          20     0.013333   6.2926e-06 -0.000105904      104.142 
          20     0.053333  3.50552e-05 -0.000109307      104.142 
          20         0.12  8.61515e-05 -0.000114744      104.142 
          20     0.213332  0.000160805 -0.000122064      104.141 
          20     0.333332  0.000250193 -0.000131507      104.141 
          20         0.48  0.000325654 -0.000143921      104.141 
          20     0.653331  0.000351192 -0.000159844       104.14 
          20     0.853332  0.000320559 -0.000177525      104.139 
          20         1.08  0.000261362 -0.000193276      104.139 
          20      1.33333  0.000191326 -0.000203844      104.137 
          20      1.61333  0.000113346 -0.000207129      104.136 
          20         1.92  3.68812e-05 -0.000202021      104.135 
          20      2.25333 -2.48012e-05 -0.000188969      104.133 
          20      2.61333 -6.22624e-05  -0.00017044      104.131 
          20            3 -8.42737e-05 -0.000151111      104.129 
          40            0           -0           -0      101.779 
          40     0.013333 -9.77872e-05 -1.03036e-07      101.779 
          40     0.053333 -0.000179988 -1.64793e-06      101.779 
          40         0.12 -0.000214194 -7.79668e-06      101.779 
          40     0.213332  -0.00015495 -2.16857e-05      101.779 
          40     0.333332 -5.57759e-05 -4.42114e-05      101.779 
          40         0.48  6.60075e-06  -7.4265e-05      101.779 
          40     0.653331  1.34763e-05  -0.00010996      101.779 
          40     0.853332  4.85013e-06 -0.000148554      101.779 
          40         1.08 -9.59031e-06 -0.000187256      101.779 
          40      1.33333 -2.64098e-05 -0.000222053      101.779 
          40      1.61333 -3.17516e-05 -0.000248042      101.778 
          40         1.92 -4.55905e-05 -0.000261368      101.778 
          40      2.25333  -4.9788e-05 -0.000261336      101.778 
          40      2.61333 -4.95714e-05 -0.000250405      101.778 
          40            3 -5.70621e-05 -0.000232586      101.777 
          60            0           -0           -0      99.5354 
          60     0.013333 -9.59423e-05  -6.8124e-08      99.5354 
          60     0.053333   -0.0001883 -1.12533e-06      99.5354 
          60         0.12 -0.000252987 -5.54285e-06      99.5354 
          60     0.213332 -0.000237297 -1.58866e-05      99.5354 
          60     0.333332 -0.000173045 -3.29259e-05      99.5354 
          60         0.48 -0.000123945  -5.5636e-05      99.5354 
          60     0.653331 -0.000128404 -8.26302e-05      99.5354 
          60     0.853332 -0.000172268 -0.000111605      99.5353 
          60         1.08 -0.000194373 -0.000138496      99.5353 
          60      1.33333 -0.000167354 -0.000159863      99.5352 
          60      1.61333 -0.000117395 -0.000174806      99.5352 
          60         1.92 -6.69525e-05 -0.000181259      99.5351 
          60      2.25333 -2.57497e-05 -0.000178733      99.5349 
          60      2.61333  6.35217e-07 -0.000168816      99.5348 
          60            3  1.61192e-05 -0.000153307      99.5346 
          80            0           -0           -0      97.3679 
          80     0.013333 -8.52532e-05  6.07623e-09      97.3679 
          80     0.053333  -0.00017486  1.40792e-08      97.3679 
          80         0.12  -0.00028539 -3.62144e-07      97.3679 
          80     0.213332 -0.000362002 -2.25451e-06      97.3679 
          80     0.333332 -0.000386303  -7.0301e-06      97.3679 
          80         0.48 -0.000379853 -1.54526e-05      97.3679 
          80     0.653331 -0.000373961 -2.73626e-05      97.3679 
          80     0.853332 -0.000371523 -4.13069e-05      97.3679 
          80         1.08  -0.00033736 -5.43679e-05      97.3679 
          80      1.33333 -0.000262093 -6.42892e-05      97.3678 
          80      1.61333 -0.000178544 -7.15471e-05      97.3678 
          80         1.92  -9.6458e-05  -7.5794e-05      97.3677 
          80      2.25333 -2.90746e-05 -7.64994e-05      97.3677 
          80      2.61333  1.87902e-05 -7.41879e-05      97.3676 
          80            3  4.96036e-05 -6.92687e-05      97.3675 
         100            0           -0           -0       95.246 
         100     0.013333 -4.72462e-05  6.05558e-08       95.246 
         100     0.053333 -5.47627e-05  8.65313e-07       95.246 
         100         0.12 -9.95575e-05  3.65445e-06       95.246 
         100     0.213332 -0.000164886  8.99578e-06       95.246 
         100     0.333332 -0.000221232  1.63536e-05       95.246 
         100         0.48 -0.000250852  2.50424e-05       95.246 
         100     0.653331 -0.000247302  3.51059e-05       95.246 
         100     0.853332 -0.000210158  4.67643e-05       95.246 
         100         1.08 -0.000160116  5.89716e-05       95.246 
         100      1.33333 -0.000120895  7.00451e-05       95.246 
         100      1.61333  -8.7571e-05  7.88176e-05      95.2459 
         100         1.92 -4.61414e-05  8.44482e-05      95.2459 
         100      2.25333 -9.54121e-06  8.65105e-05      95.2459 
         100      2.61333  1.23711e-05  8.46928e-05      95.2458 
         100            3  1.64037e-05  7.96598e-05      95.2457 
         150            0 -7.65041e-20  1.51394e-25      90.0452 
         150     0.013333  -0.00011861  5.48414e-08      90.0452 
         150     0.053333 -0.000307819  6.63529e-07      90.0452 
         150         0.12  -0.00055046  1.95975e-06      90.0452 
         150     0.213332 -0.000732615  2.04403e-06      90.0452 
         150     0.333332 -0.000794122  -2.2813e-06      90.0452 
         150         0.48 -0.000765962 -1.29241e-05      90.0452 
         150     0.653331 -0.000710831 -2.92162e-05      90.0452 
         150     0.853332 -0.000649372 -4.84897e-05      90.0452 
         150         1.08 -0.000563945 -6.79732e-05      90.0452 
         150      1.33333 -0.000451506 -8.59934e-05      90.0452 
         150      1.61333 -0.000322166 -0.000101893      90.0452 
         150         1.92 -0.000182229 -0.000114007      90.0452 
         150      2.25333 -5.63856e-05 -0.000121137      90.0452 
         150      2.61333  4.41978e-05 -0.000123403      90.0452 
         150            3  0.000116631 -0.000121126      90.0452 
         200            0           -0           -0       84.908 
         200     0.013333 -0.000133357  2.27141e-07       84.908 
         200     0.053333 -0.000401198  3.14787e-06       84.908 
         200         0.12 -0.000820925  1.24447e-05       84.908 
         200     0.213332  -0.00122621  2.76668e-05       84.908 
         200     0.333332  -0.00145447   4.3451e-05       84.908 
         200         0.48  -0.00148837  5.50091e-05       84.908 
         200     0.653331  -0.00140381  6.25293e-05       84.908 
         200     0.853332  -0.00124285  6.97069e-05       84.908 
         200         1.08  -0.00102202  7.83991e-05       84.908 
         200      1.33333 -0.000787149  8.69545e-05       84.908 
         200      1.61333 -0.000554597  9.28162e-05       84.908 
         200         1.92 -0.000303263  9.54831e-05       84.908 
         200      2.25333  -7.6092e-05  9.49345e-05       84.908 
         200      2.61333  0.000109142  9.07662e-05       84.908 
         200            3   0.00024843  8.37456e-05       84.908 
         250            0           -0           -0      79.7891 
         250     0.013333 -0.000252553  1.77661e-07      79.7891 
         250     0.053333 -0.000807748  2.17495e-06      79.7891 
         250         0.12  -0.00151122   6.6679e-06      79.7891 
         250     0.213332  -0.00205028  8.45685e-06      79.7891 
         250     0.333332  -0.00225748 -9.44242e-07      79.7891 
         250         0.48  -0.00222085 -2.56763e-05      79.7891 
         250     0.653331  -0.00210928 -6.24724e-05      79.7891 
         250     0.853332  -0.00196385 -0.000102875      79.7891 
         250         1.08  -0.00171036 -0.000138183      79.7891 
         250      1.33333  -0.00135353 -0.000165235      79.7891 
         250      1.61333  -0.00097797  -0.00018699      79.7892 
         250         1.92 -0.000586584 -0.000203031      79.7892 
         250      2.25333 -0.000216892 -0.000211158      79.7892 
         250      2.61333   0.00010237  -0.00021163      79.7892 
         250            3  0.000351544 -0.000204647      79.7893 
         300            0            0            0      74.6735 
         300     0.013333 -0.000116587  1.63944e-07      74.6735 
         300     0.053333 -0.000331936  2.27035e-06      74.6735 
         300         0.12 -0.000674976  9.02141e-06      74.6735 
         300     0.213332  -0.00102479   2.0412e-05      74.6735 
         300     0.333332  -0.00125772  3.31346e-05      74.6735 
         300         0.48  -0.00134759  4.38416e-05      74.6735 
         300     0.653331  -0.00134368  5.20564e-05      74.6735 
         300     0.853332  -0.00127465   6.0296e-05      74.6735 
         300         1.08  -0.00112266  7.18343e-05      74.6735 
         300      1.33333 -0.000903185  8.71505e-05      74.6735 
         300      1.61333 -0.000676177  0.000102682      74.6735 
         300         1.92 -0.000443319  0.000115695      74.6736 
         300      2.25333 -0.000218572  0.000125354      74.6736 
         300      2.61333 -1.54061e-05  0.000130683      74.6736 
         300            3  0.000153092  0.000131404      74.6736 
         350            0            0            0      69.5557 
         350     0.013333   2.7738e-05   2.2166e-07      69.5557 
         350     0.053333  0.000155166  3.42977e-06      69.5557 
         350         0.12  0.000133509  1.60666e-05      69.5557 
         350     0.213332 -0.000105682  4.43396e-05      69.5557 
         350     0.333332 -0.000437476  8.92853e-05      69.5557 
         350         0.48 -0.000681907  0.000146592      69.5557 
         350     0.653331 -0.000758536  0.000211218      69.5557 
         350     0.853332 -0.000691162  0.000279975      69.5557 
         350         1.08 -0.000559673  0.000349314      69.5557 
         350      1.33333 -0.000448843  0.000414076      69.5557 
         350      1.61333 -0.000369082  0.000469975      69.5557 
         350         1.92 -0.000276989  0.000513647      69.5557 
         350      2.25333 -0.000180125  0.000541606      69.5557 
         350      2.61333 -8.81159e-05  0.000551402      69.5557 
         350            3 -7.32907e-06  0.000542379      69.5557 
         400            0  2.55917e-20 -1.86656e-26      64.4352 
         400     0.013333  0.000126947  4.84726e-08      64.4352 
         400     0.053333  0.000554065  1.03221e-06      64.4352 
         400         0.12  0.000984598  6.56235e-06      64.4352 
         400     0.213332   0.00120314  2.30044e-05      64.4352 
         400     0.333332   0.00118172  5.52807e-05      64.4352 
         400         0.48   0.00106644  0.000103112      64.4352 
         400     0.653331   0.00100353  0.000162295      64.4352 
         400     0.853332   0.00101762  0.000227108      64.4352 
         400         1.08   0.00100783  0.000290051      64.4352 
         400      1.33333  0.000875269  0.000344094      64.4352 
         400      1.61333  0.000666412  0.000387634      64.4352 
         400         1.92  0.000458014  0.000421175      64.4352 
         400      2.25333  0.000253083  0.000442166      64.4352 
         400      2.61333  5.64254e-05  0.000448946      64.4352 
         400            3 -0.000115994   0.00044089      64.4352 
         450            0            0            0      59.3117 
         450     0.013333  6.91318e-05 -9.66442e-08      59.3117 
         450     0.053333  0.000392532 -1.23203e-06      59.3117 
         450         0.12  0.000812793 -4.15491e-06      59.3117 
         450     0.213332   0.00117486 -6.86058e-06      59.3117 
         450     0.333332   0.00136793 -5.32406e-06      59.3117 
         450         0.48   0.00141005  3.07299e-06      59.3117 
         450     0.653331    0.0013905  1.76748e-05      59.3117 
         450     0.853332   0.00135404  3.50073e-05      59.3117 
         450         1.08   0.00125725  4.99033e-05      59.3117 
         450      1.33333    0.0010615   5.8991e-05      59.3117 
         450      1.61333  0.000824845  6.40187e-05      59.3117 
         450         1.92  0.000591583  6.76015e-05      59.3117 
         450      2.25333  0.000356409   6.9572e-05      59.3117 
         450      2.61333  0.000124046  6.95515e-05      59.3117 
         450            3 -8.69664e-05  6.74177e-05      59.3117 
         500            0            0            0      54.1845 
         500     0.013333  5.48634e-05  6.39716e-08      54.1845 
         500     0.053333  0.000289918  1.15336e-06      54.1845 
         500         0.12  0.000474266  6.48918e-06      54.1845 
         500     0.213332  0.000461116  2.13173e-05      54.1845 
         500     0.333332   0.00025056  4.97367e-05      54.1845 
         500         0.48 -1.72009e-05  9.13751e-05      54.1845 
         500     0.653331 -0.000206138  0.000141937      54.1845 
         500     0.853332 -0.000286897  0.000196167      54.1845 
         500         1.08 -0.000314894  0.000249554      54.1845 
         500      1.33333 -0.000336659  0.000299536      54.1845 
         500      1.61333 -0.000339735  0.000345631      54.1845 
         500         1.92   -0.0003152  0.000386735      54.1845 
         500      2.25333 -0.000277872  0.000419284      54.1845 
         500      2.61333 -0.000233534  0.000440658      54.1845 
         500            3 -0.000182201  0.000449208      54.1845 
         550            0           -0           -0      49.0522 
         550     0.013333 -0.000231612 -2.87575e-07      49.0522 
         550     0.053333 -0.000619086 -4.52259e-06      49.0522 
         550         0.12 -0.000861297 -2.17753e-05      49.0522 
         550     0.213332 -0.000716464 -6.23684e-05      49.0522 
         550     0.333332  -0.00026754 -0.000131134      49.0522 
         550         0.48  0.000208101 -0.000224893      49.0522 
         550     0.653331  0.000497351 -0.000336937      49.0522 
         550     0.853332  0.000544081 -0.000462094      49.0522 
         550         1.08  0.000409892 -0.000595832      49.0523 
         550      1.33333  0.000244147 -0.000730218      49.0523 
         550      1.61333  0.000166386 -0.000855163      49.0523 
         550         1.92   0.00012868 -0.000963839      49.0523 
         550      2.25333  9.02099e-05  -0.00105041      49.0523 
         550      2.61333  4.62374e-05   -0.0011088      49.0523 
         550            3  2.84425e-06  -0.00113414      49.0523 
         600            0           -0           -0      43.9126 
         600     0.013333   0.00020339  1.47943e-07      43.9126 
         600     0.053333  0.000804591  2.49953e-06      43.9126 
         600         0.12   0.00138665  1.31714e-05      43.9126 
         600     0.213332   0.00162834  4.13041e-05      43.9126 
         600     0.333332   0.00146889  9.42063e-05      43.9126 
         600         0.48   0.00110735   0.00017283      43.9126 
         600     0.653331  0.000787899  0.000272554      43.9126 
         600     0.853332  0.000629316  0.000387213      43.9126 
         600         1.08   0.00060636  0.000510717      43.9126 
         600      1.33333   0.00060673  0.000635865      43.9126 
         600      1.61333  0.000535471   0.00075471      43.9126 
         600         1.92  0.000410296  0.000860965      43.9126 
         600      2.25333  0.000268559  0.000948788      43.9126 
         600      2.61333  0.000125951   0.00101244      43.9126 
         600            3 -1.10268e-05    0.0010471      43.9126 
         650            0            0            0      38.7638 
         650     0.013333  -0.00034615  1.32681e-07      38.7638 
         650     0.053333  -0.00116267  1.64299e-06      38.7638 
         650         0.12  -0.00224179  5.06899e-06      38.7638 
         650     0.213332  -0.00318509  5.92966e-06      38.7638 
         650     0.333332  -0.00369817 -4.57853e-06      38.7638 
         650         0.48  -0.00377648 -3.35465e-05      38.7638 
         650     0.653331  -0.00362886 -8.17938e-05      38.7638 
         650     0.853332  -0.00344444 -0.000144526      38.7638 
         650         1.08  -0.00325039 -0.000213836      38.7638 
         650      1.33333  -0.00295948 -0.000281621      38.7638 
         650      1.61333  -0.00253625 -0.000343151      38.7638 
         650         1.92  -0.00204675 -0.000397761      38.7638 
         650      2.25333  -0.00152073 -0.000443923      38.7638 
         650      2.61333 -0.000973744 -0.000478964      38.7638 
         650            3  -0.00043143 -0.000500356      38.7639 
         700            0 -4.19697e-20 -1.12963e-26      33.6124 
         700     0.013333 -1.42068e-05 -3.37355e-07      33.6124 
         700     0.053333  0.000176409  -4.9993e-06      33.6124 
         700         0.12  0.000661423 -2.21759e-05      33.6124 
         700     0.213332   0.00141398 -5.80554e-05      33.6124 
         700     0.333332   0.00218939 -0.000111769      33.6124 
         700         0.48   0.00273967 -0.000176763      33.6124 
         700     0.653331   0.00299035 -0.000246859      33.6124 
         700     0.853332   0.00299363 -0.000320372      33.6125 
         700         1.08   0.00280076 -0.000399046      33.6125 
         700      1.33333   0.00245655 -0.000483213      33.6125 
         700      1.61333   0.00205124  -0.00056844      33.6124 
         700         1.92   0.00165075 -0.000647755      33.6124 
         700      2.25333   0.00123811 -0.000715862      33.6124 
         700      2.61333  0.000805922 -0.000768455      33.6124 
         700            3  0.000371331 -0.000801756      33.6124 
         750            0           -0           -0      28.4546 
         750     0.013333   0.00013645  8.69971e-08      28.4546 
         750     0.053333  0.000592326  1.44789e-06      28.4546 
         750         0.12   0.00108409  7.50188e-06      28.4546 
         750     0.213332   0.00139989  2.32262e-05      28.4546 
         750     0.333332   0.00146685  5.27194e-05      28.4546 
         750         0.48   0.00136486  9.71901e-05      28.4546 
         750     0.653331   0.00122736  0.000155466      28.4546 
         750     0.853332   0.00115148  0.000225707      28.4546 
         750         1.08   0.00115972  0.000305357      28.4546 
         750      1.33333   0.00118233  0.000389501      28.4546 
         750      1.61333   0.00111597   0.00047101      28.4546 
         750         1.92  0.000953479  0.000544857      28.4546 
         750      2.25333  0.000751779   0.00060819      28.4546 
         750      2.61333  0.000536974  0.000657921      28.4546 
         750            3  0.000312832  0.000690892      28.4546 
         800            0            0            0      23.2922 
         800     0.013333  0.000112853  2.36182e-08      23.2922 
         800     0.053333  0.000518722   5.2642e-07      23.2922 
         800         0.12  0.000967003  3.59285e-06      23.2922 
         800     0.213332   0.00124121  1.37753e-05      23.2922 
         800     0.333332   0.00123387  3.64508e-05      23.2922 
         800         0.48   0.00101706  7.43465e-05      23.2923 
         800     0.653331  0.000753911   0.00012586      23.2923 
         800     0.853332  0.000556626  0.000186642      23.2923 
         800         1.08  0.000434271  0.000252031      23.2923 
         800      1.33333  0.000346593  0.000318671      23.2923 
         800      1.61333  0.000272222  0.000385069      23.2923 
         800         1.92  0.000204529  0.000449232      23.2922 
         800      2.25333  0.000130853  0.000507922      23.2922 
         800      2.61333  4.99088e-05   0.00055729      23.2922 
         800            3 -3.08173e-05  0.000593908      23.2922 
         850            0           -0           -0      18.1237 
         850     0.013333 -0.000132638    2.323e-07      18.1237 
         850     0.053333 -0.000427882  3.35007e-06      18.1237 
         850         0.12 -0.000967392  1.42234e-05      18.1237 
         850     0.213332  -0.00163129  3.51521e-05      18.1237 
         850     0.333332  -0.00220441  6.32647e-05      18.1237 
         850         0.48  -0.00254735  9.32128e-05      18.1237 
         850     0.653331  -0.00267598  0.000122009      18.1237 
         850     0.853332  -0.00266358  0.000151113      18.1237 
         850         1.08  -0.00252297  0.000184916      18.1237 
         850      1.33333  -0.00223655  0.000226418      18.1237 
         850      1.61333  -0.00187095  0.000272981      18.1237 
         850         1.92  -0.00153042  0.000318216      18.1237 
         850      2.25333  -0.00119773  0.000358597      18.1237 
         850      2.61333 -0.000849055  0.000391974      18.1237 
         850            3  -0.00049451  0.000416686      18.1238 
         900            0            0            0      12.9521 
         900     0.013333  9.52206e-06 -1.03454e-07      12.9521 
         900     0.053333  0.000184312  -1.4636e-06      12.9521 
         900         0.12  0.000450025 -5.97083e-06      12.9521 
         900     0.213332  0.000721769 -1.37553e-05      12.9521 
         900     0.333332  0.000880746 -2.21357e-05      12.9521 
         900         0.48  0.000882364 -2.77482e-05      12.9521 
         900     0.653331  0.000781689 -2.96046e-05      12.9521 
         900     0.853332  0.000648672 -2.98265e-05      12.9521 
         900         1.08  0.000495648 -3.19186e-05      12.9521 
         900      1.33333  0.000314484 -3.75983e-05      12.9521 
         900      1.61333    0.0001519 -4.45162e-05      12.9521 
         900         1.92  6.15832e-05 -4.90337e-05      12.9521 
         900      2.25333  1.96079e-06 -5.05311e-05      12.9521 
         900      2.61333 -5.68963e-05 -4.96003e-05      12.9521 
         900            3 -0.000113033 -4.68221e-05      12.9521 
         950            0            0            0      7.77366 
         950     0.013333  2.04209e-05  1.89162e-07      7.77366 
         950     0.053333  0.000132489  2.89022e-06      7.77366 
         950         0.12  9.91196e-05  1.33987e-05      7.77366 
         950     0.213332 -0.000170655  3.70248e-05      7.77366 
         950     0.333332 -0.000596233  7.56127e-05      7.77366 
         950         0.48  -0.00100479  0.000126821      7.77366 
         950     0.653331  -0.00127482  0.000186857      7.77366 
         950     0.853332  -0.00137721  0.000253571      7.77366 
         950         1.08  -0.00132325  0.000326859      7.77366 
         950      1.33333  -0.00115057  0.000405885      7.77366 
         950      1.61333 -0.000947917  0.000486327      7.77366 
         950         1.92 -0.000792213  0.000562135      7.77367 
         950      2.25333 -0.000653378  0.000629766      7.77367 
         950      2.61333  -0.00050403  0.000686361      7.77368 
         950            3 -0.000342906  0.000728815      7.77369 
        1000            0            0            0      2.59133 
        1000     0.013333  3.96507e-05  7.98921e-08      2.59133 
        1000     0.053333  0.000227782  1.31292e-06      2.59133 
        1000         0.12   0.00034081   6.6121e-06      2.59133 
        1000     0.213332  0.000232993  2.01237e-05      2.59133 
        1000     0.333332 -0.000111647  4.53139e-05      2.59133 
        1000         0.48  -0.00055699  8.26803e-05      2.59133 
        1000     0.653331 -0.000930509   0.00012918      2.59133 
        1000     0.853332  -0.00115433  0.000180147      2.59133 
        1000         1.08  -0.00125447   0.00023195      2.59133 
        1000      1.33333  -0.00126918  0.000283615      2.59133 
        1000      1.61333  -0.00119712  0.000336086      2.59133 
        1000         1.92  -0.00104843   0.00038894      2.59133 
        1000      2.25333 -0.000868979  0.000438812      2.59133 
        1000      2.61333 -0.000678268  0.000482218      2.59133 
        1000            3  -0.00047378  0.000516197      2.59134 
