Variables = x, y, u, v, p

Zone, I=416, F=POINT
         -50            0            0            0     -70.0645 
         -50     0.013333 -7.10964e-05 -3.33087e-08     -70.0645 
         -50     0.053333 -7.34106e-05 -8.55891e-08     -70.0645 
         -50         0.12 -7.89035e-05 -2.65539e-07     -70.0644 
         -50     0.213332 -7.98397e-05  -7.3076e-07     -70.0644 
         -50     0.333332 -7.68225e-05 -1.25726e-06     -70.0643 
         -50         0.48  -7.2068e-05 -2.15415e-06     -70.0642 
         -50     0.653331 -6.82215e-05 -4.34907e-06      -70.064 
         -50     0.853332 -6.47443e-05 -5.38396e-06     -70.0636 
         -50         1.08 -5.98956e-05 -6.44669e-06     -70.0631 
         -50      1.33333 -5.45322e-05 -7.63086e-06     -70.0624 
         -50      1.61333 -5.00488e-05 -8.48369e-06     -70.0615 
         -50         1.92 -4.78445e-05 -9.46951e-06     -70.0603 
         -50      2.25333 -4.83987e-05 -1.00276e-05     -70.0587 
         -50      2.61333 -4.96353e-05 -9.61089e-06     -70.0567 
         -50            3 -4.97876e-05 -8.53793e-06     -70.0543 
         -25            0           -0           -0     -67.2862 
         -25     0.013333 -4.70124e-05 -2.33249e-08     -67.2862 
         -25     0.053333  -3.4343e-05 -1.86824e-07     -67.2862 
         -25         0.12 -1.98371e-05 -6.70058e-07     -67.2862 
         -25     0.213332 -7.37496e-06 -1.42697e-06     -67.2862 
         -25     0.333332 -2.13873e-06 -2.23755e-06     -67.2862 
         -25         0.48 -2.59422e-06 -2.86684e-06     -67.2861 
         -25     0.653331 -7.09465e-06 -3.43009e-06     -67.2861 
         -25     0.853332 -1.52325e-05 -4.23549e-06     -67.2859 
         -25         1.08  -2.4826e-05 -5.01148e-06     -67.2857 
         -25      1.33333 -3.42788e-05 -5.50363e-06     -67.2855 
         -25      1.61333 -4.43018e-05 -5.73498e-06     -67.2851 
         -25         1.92  -5.3239e-05 -5.80646e-06     -67.2846 
         -25      2.25333 -5.23124e-05 -4.19128e-06      -67.284 
         -25      2.61333 -4.35004e-05  -1.4932e-06     -67.2833 
         -25            3  -3.6579e-05  6.54432e-08     -67.2824 
           0            0            0            0     -65.0252 
           0     0.013333 -8.82928e-05  6.21316e-05     -65.0271 
           0     0.053333  -8.2751e-05  3.19696e-05     -65.0306 
           0         0.12 -8.74436e-05  2.44852e-05     -65.0345 
           0     0.213332 -9.23793e-05  1.94096e-05     -65.0386 
           0     0.333332 -9.33221e-05  1.65112e-05     -65.0427 
           0         0.48 -9.05361e-05  1.41444e-05     -65.0467 
           0     0.653331 -8.68852e-05  1.21873e-05     -65.0506 
           0     0.853332 -8.15414e-05  1.05762e-05     -65.0543 
           0         1.08 -7.40804e-05  9.19011e-06     -65.0579 
           0      1.33333 -6.47807e-05  7.84071e-06     -65.0612 
           0      1.61333  -5.3114e-05  6.48888e-06     -65.0644 
           0         1.92 -4.05937e-05  5.20201e-06     -65.0673 
           0      2.25333 -3.21796e-05  4.13714e-06       -65.07 
           0      2.61333  -2.6648e-05  3.43771e-06     -65.0725 
           0            3 -2.31692e-05  2.66151e-06     -65.0748 
          20            0 -0.000194294  9.73562e-05     -63.6252 
          20     0.013333 -0.000196461  9.80536e-05     -63.6252 
          20     0.053333 -0.000203621  9.99734e-05     -63.6251 
          20         0.12 -0.000217874  0.000102598      -63.625 
          20     0.213332 -0.000242417  0.000105117     -63.6249 
          20     0.333332 -0.000278003   0.00010669     -63.6247 
          20         0.48 -0.000314002  0.000107015     -63.6244 
          20     0.653331 -0.000326106  0.000106677      -63.624 
          20     0.853332 -0.000297676  0.000106186     -63.6236 
          20         1.08 -0.000240982  0.000105075     -63.6231 
          20      1.33333  -0.00017336  0.000102323     -63.6224 
          20      1.61333 -0.000100654  9.73217e-05     -63.6216 
          20         1.92 -3.29457e-05  9.00223e-05     -63.6207 
          20      2.25333  1.93542e-05  8.08373e-05     -63.6196 
          20      2.61333  5.33126e-05  7.14735e-05     -63.6184 
          20            3  7.44273e-05  6.45534e-05     -63.6171 
          40            0           -0           -0     -62.1773 
          40     0.013333 -0.000115909  6.50091e-08     -62.1773 
          40     0.053333 -0.000311478  6.64396e-07     -62.1773 
          40         0.12 -0.000506544  8.44534e-07     -62.1773 
          40     0.213332 -0.000572819   -3.723e-06     -62.1772 
          40     0.333332 -0.000509796 -1.72979e-05     -62.1772 
          40         0.48 -0.000415753 -3.92372e-05     -62.1772 
          40     0.653331 -0.000339868 -6.43317e-05     -62.1772 
          40     0.853332 -0.000267797   -8.856e-05     -62.1772 
          40         1.08 -0.000197188 -0.000111841     -62.1771 
          40      1.33333 -0.000110736 -0.000132199      -62.177 
          40      1.61333 -2.31909e-05 -0.000147257     -62.1769 
          40         1.92  4.81681e-05 -0.000154755     -62.1768 
          40      2.25333   9.0214e-05 -0.000154615     -62.1766 
          40      2.61333  0.000101839  -0.00014822     -62.1764 
          40            3  9.62381e-05 -0.000136034     -62.1761 
          60            0           -0           -0     -60.8024 
          60     0.013333 -0.000213196 -2.96951e-08     -60.8024 
          60     0.053333 -0.000637179 -9.37048e-07     -60.8024 
          60         0.12  -0.00103931  -7.2635e-06     -60.8024 
          60     0.213332  -0.00118677 -2.75374e-05     -60.8024 
          60     0.333332  -0.00109851 -6.79179e-05     -60.8024 
          60         0.48 -0.000974917 -0.000127431     -60.8024 
          60     0.653331 -0.000957476 -0.000199466     -60.8024 
          60     0.853332 -0.000981574 -0.000272386     -60.8024 
          60         1.08 -0.000885065 -0.000334306     -60.8023 
          60      1.33333 -0.000668149 -0.000380885     -60.8023 
          60      1.61333 -0.000412318 -0.000414069     -60.8023 
          60         1.92 -0.000148773 -0.000428514     -60.8022 
          60      2.25333  6.30415e-05 -0.000423205     -60.8021 
          60      2.61333  0.000195591 -0.000402466      -60.802 
          60            3  0.000263119 -0.000369461     -60.8018 
          80            0           -0           -0     -59.4737 
          80     0.013333 -0.000185368 -2.39987e-08     -59.4737 
          80     0.053333 -0.000547403 -7.56729e-07     -59.4737 
          80         0.12 -0.000900224 -5.82759e-06     -59.4737 
          80     0.213332  -0.00104927 -2.20065e-05     -59.4737 
          80     0.333332 -0.000999624 -5.41852e-05     -59.4737 
          80         0.48 -0.000901994 -0.000101624     -59.4737 
          80     0.653331 -0.000864422 -0.000159003     -59.4736 
          80     0.853332 -0.000829491  -0.00021641     -59.4736 
          80         1.08 -0.000663693 -0.000262572     -59.4736 
          80      1.33333  -0.00042409 -0.000294256     -59.4736 
          80      1.61333 -0.000226066 -0.000315817     -59.4736 
          80         1.92 -4.91123e-05 -0.000324294     -59.4735 
          80      2.25333  9.04478e-05 -0.000317781     -59.4734 
          80      2.61333  0.000180537 -0.000299714     -59.4734 
          80            3  0.000224823 -0.000273867     -59.4733 
         100            0           -0           -0     -58.1726 
         100     0.013333 -0.000139747  4.48069e-08     -58.1726 
         100     0.053333 -0.000411199  3.98598e-07     -58.1726 
         100         0.12 -0.000723047  9.91564e-08     -58.1726 
         100     0.213332 -0.000933382 -4.42692e-06     -58.1726 
         100     0.333332  -0.00100481   -1.692e-05     -58.1726 
         100         0.48  -0.00100378 -3.81104e-05     -58.1726 
         100     0.653331 -0.000989572 -6.52944e-05     -58.1726 
         100     0.853332 -0.000931588 -9.27477e-05     -58.1726 
         100         1.08 -0.000773721 -0.000114816     -58.1726 
         100      1.33333 -0.000572875 -0.000130583     -58.1726 
         100      1.61333 -0.000383732 -0.000142399     -58.1725 
         100         1.92 -0.000176589 -0.000147621     -58.1725 
         100      2.25333  1.50547e-06 -0.000145697     -58.1725 
         100      2.61333  0.000125942 -0.000138147     -58.1724 
         100            3  0.000201614 -0.000125488     -58.1723 
         150            0 -3.26415e-20 -1.31038e-25     -54.9832 
         150     0.013333 -1.14295e-05 -5.38673e-08     -54.9832 
         150     0.053333  5.86379e-05 -7.49182e-07     -54.9832 
         150         0.12  0.000167618 -3.01676e-06     -54.9832 
         150     0.213332  0.000284595 -6.96999e-06     -54.9832 
         150     0.333332  0.000371924 -1.16376e-05     -54.9832 
         150         0.48  0.000418649 -1.59036e-05     -54.9832 
         150     0.653331  0.000433022 -1.94751e-05     -54.9832 
         150     0.853332  0.000415657 -2.31192e-05     -54.9832 
         150         1.08  0.000359292 -2.77653e-05     -54.9832 
         150      1.33333  0.000278902 -3.31544e-05     -54.9832 
         150      1.61333  0.000193401 -3.78747e-05     -54.9832 
         150         1.92     9.93e-05  -4.1328e-05     -54.9832 
         150      2.25333  1.49729e-05 -4.32659e-05     -54.9832 
         150      2.61333 -5.23119e-05  -4.3394e-05     -54.9832 
         150            3  -0.00010029 -4.16474e-05     -54.9832 
         200            0           -0           -0     -51.8339 
         200     0.013333 -7.25581e-06  5.26554e-08     -51.8339 
         200     0.053333  4.18473e-05  8.51143e-07     -51.8339 
         200         0.12  5.05543e-05  4.19126e-06     -51.8339 
         200     0.213332 -9.61873e-06  1.20806e-05     -51.8339 
         200     0.333332 -0.000107458  2.51274e-05     -51.8339 
         200         0.48 -0.000187646  4.21709e-05     -51.8339 
         200     0.653331  -0.00022225  6.15325e-05     -51.8339 
         200     0.853332 -0.000217493  8.17455e-05     -51.8339 
         200         1.08 -0.000197493  0.000101221     -51.8339 
         200      1.33333 -0.000177158  0.000118556     -51.8339 
         200      1.61333 -0.000152225  0.000132891     -51.8339 
         200         1.92  -0.00011744  0.000142891     -51.8339 
         200      2.25333 -8.21094e-05  0.000147486     -51.8339 
         200      2.61333 -4.89091e-05  0.000146548     -51.8339 
         200            3 -1.96134e-05   0.00014046     -51.8339 
         250            0           -0           -0     -48.6973 
         250     0.013333 -5.40444e-05  1.20988e-07     -48.6973 
         250     0.053333  -0.00013667  1.74231e-06     -48.6973 
         250         0.12 -0.000299053  7.31938e-06     -48.6973 
         250     0.213332 -0.000486062  1.76503e-05     -48.6973 
         250     0.333332 -0.000610209  3.06381e-05     -48.6973 
         250         0.48 -0.000636197  4.34625e-05     -48.6973 
         250     0.653331 -0.000589907  5.52583e-05     -48.6973 
         250     0.853332 -0.000502033  6.68998e-05     -48.6973 
         250         1.08 -0.000397593  7.84122e-05     -48.6973 
         250      1.33333 -0.000305877  8.81499e-05     -48.6973 
         250      1.61333  -0.00022587  9.47267e-05     -48.6973 
         250         1.92 -0.000138121  9.78485e-05     -48.6973 
         250      2.25333 -5.57958e-05  9.73264e-05     -48.6973 
         250      2.61333  1.55939e-05  9.31538e-05     -48.6972 
         250            3  7.49909e-05  8.59534e-05     -48.6972 
         300            0            0            0     -45.5638 
         300     0.013333  4.00525e-05  2.34861e-07     -45.5638 
         300     0.053333  0.000159313  3.60719e-06     -45.5638 
         300         0.12   0.00012615  1.67704e-05     -45.5638 
         300     0.213332 -0.000134378  4.60864e-05     -45.5638 
         300     0.333332 -0.000501455  9.28493e-05     -45.5638 
         300         0.48 -0.000795351  0.000153109     -45.5638 
         300     0.653331 -0.000927919  0.000222041     -45.5638 
         300     0.853332 -0.000903417  0.000296774     -45.5638 
         300         1.08 -0.000775397  0.000374445     -45.5638 
         300      1.33333 -0.000627712  0.000449685     -45.5638 
         300      1.61333 -0.000500517  0.000516117     -45.5638 
         300         1.92 -0.000359664  0.000568301     -45.5638 
         300      2.25333 -0.000219322  0.000601932     -45.5638 
         300      2.61333  -8.9958e-05  0.000614267     -45.5638 
         300            3  2.13009e-05  0.000604864     -45.5638 
         350            0            0            0     -42.4297 
         350     0.013333  0.000113544 -1.69571e-07     -42.4297 
         350     0.053333  0.000533002 -2.26603e-06     -42.4297 
         350         0.12   0.00111423 -8.41699e-06     -42.4297 
         350     0.213332   0.00165224 -1.69505e-05     -42.4297 
         350     0.333332   0.00197688 -2.24884e-05     -42.4297 
         350         0.48     0.002082  -2.0583e-05     -42.4297 
         350     0.653331   0.00206626 -1.11696e-05     -42.4297 
         350     0.853332   0.00198575  1.69315e-06     -42.4297 
         350         1.08   0.00180743  1.23932e-05     -42.4297 
         350      1.33333    0.0015164  1.79419e-05     -42.4297 
         350      1.61333   0.00117575  2.02728e-05     -42.4297 
         350         1.92  0.000813896  2.12717e-05     -42.4298 
         350      2.25333   0.00045004  2.09037e-05     -42.4298 
         350      2.61333  0.000105345  1.94086e-05     -42.4298 
         350            3 -0.000194317  1.68703e-05     -42.4298 
         400            0 -9.71458e-20  3.18032e-27     -39.2964 
         400     0.013333 -5.42649e-05 -1.24177e-07     -39.2964 
         400     0.053333 -7.45032e-05 -1.86847e-06     -39.2964 
         400         0.12 -2.34009e-05 -8.40459e-06     -39.2964 
         400     0.213332  0.000106842 -2.21185e-05     -39.2964 
         400     0.333332   0.00023931 -4.24262e-05     -39.2964 
         400         0.48  0.000301016 -6.66986e-05     -39.2964 
         400     0.653331  0.000278746 -9.30722e-05     -39.2964 
         400     0.853332  0.000195677 -0.000121196     -39.2964 
         400         1.08  9.17328e-05 -0.000150114     -39.2964 
         400      1.33333   1.9476e-05 -0.000176958     -39.2964 
         400      1.61333 -8.69407e-06 -0.000199026     -39.2964 
         400         1.92 -3.03849e-05 -0.000215338     -39.2964 
         400      2.25333 -5.14793e-05 -0.000224987     -39.2964 
         400      2.61333 -6.90139e-05  -0.00022716     -39.2965 
         400            3  -8.1427e-05 -0.000221622     -39.2965 
         450            0            0            0     -36.1624 
         450     0.013333 -0.000259556 -9.60186e-08     -36.1624 
         450     0.053333  -0.00080169 -1.81763e-06     -36.1624 
         450         0.12  -0.00132479 -1.06584e-05     -36.1624 
         450     0.213332  -0.00151485 -3.59487e-05     -36.1624 
         450     0.333332   -0.0013321 -8.52881e-05     -36.1624 
         450         0.48 -0.000997636 -0.000158818     -36.1624 
         450     0.653331 -0.000746575 -0.000250221     -36.1624 
         450     0.853332 -0.000646705 -0.000351261     -36.1624 
         450         1.08 -0.000608604 -0.000453521     -36.1624 
         450      1.33333 -0.000520316 -0.000549537     -36.1624 
         450      1.61333 -0.000380228 -0.000635299     -36.1624 
         450         1.92 -0.000244264 -0.000707791     -36.1624 
         450      2.25333 -0.000114528 -0.000762027     -36.1624 
         450      2.61333  8.12807e-06 -0.000793507     -36.1624 
         450            3  0.000113495 -0.000799542     -36.1623 
         500            0            0            0     -33.0273 
         500     0.013333  5.27121e-05  5.09284e-07     -33.0273 
         500     0.053333  0.000126968  7.67702e-06     -33.0273 
         500         0.12 -0.000146566  3.47881e-05     -33.0273 
         500     0.213332 -0.000835731  9.29451e-05     -33.0273 
         500     0.333332   -0.0016389   0.00018212     -33.0273 
         500         0.48  -0.00219848  0.000292839     -33.0273 
         500     0.653331  -0.00238335  0.000416273     -33.0273 
         500     0.853332   -0.0022374   0.00054976     -33.0273 
         500         1.08  -0.00186487  0.000691765     -33.0273 
         500      1.33333  -0.00144849  0.000834018     -33.0273 
         500      1.61333  -0.00113454  0.000964029     -33.0273 
         500         1.92 -0.000854695   0.00107324     -33.0273 
         500      2.25333 -0.000563482    0.0011557     -33.0273 
         500      2.61333  -0.00026818   0.00120518     -33.0273 
         500            3  4.77134e-06   0.00121715     -33.0272 
         550            0           -0           -0     -29.8888 
         550     0.013333   0.00016866 -3.73049e-07     -29.8888 
         550     0.053333  0.000791855 -5.21715e-06     -29.8888 
         550         0.12   0.00175925 -2.10223e-05     -29.8888 
         550     0.213332   0.00277382 -4.82111e-05     -29.8888 
         550     0.333332   0.00348214 -7.87754e-05     -29.8888 
         550         0.48   0.00376954 -0.000103508     -29.8888 
         550     0.653331   0.00376885  -0.00011999     -29.8888 
         550     0.853332   0.00361351 -0.000133701     -29.8888 
         550         1.08   0.00328904 -0.000153559     -29.8888 
         550      1.33333   0.00277751 -0.000183561     -29.8888 
         550      1.61333   0.00220871 -0.000217874     -29.8888 
         550         1.92   0.00166391 -0.000248396     -29.8888 
         550      2.25333   0.00111074 -0.000272978     -29.8888 
         550      2.61333  0.000548578 -0.000290136     -29.8888 
         550            3  1.70177e-05 -0.000298527     -29.8889 
         600            0           -0           -0      -26.751 
         600     0.013333 -0.000143809  4.75581e-08      -26.751 
         600     0.053333 -0.000437237  5.16051e-07      -26.751 
         600         0.12 -0.000800909  1.07647e-06      -26.751 
         600     0.213332  -0.00108338 -8.14838e-07      -26.751 
         600     0.333332  -0.00120909 -8.51491e-06      -26.751 
         600         0.48   -0.0012226 -2.32966e-05      -26.751 
         600     0.653331  -0.00121492 -4.36562e-05      -26.751 
         600     0.853332  -0.00122626  -6.6473e-05      -26.751 
         600         1.08  -0.00121095 -8.73206e-05      -26.751 
         600      1.33333  -0.00109119 -0.000101492      -26.751 
         600      1.61333 -0.000878562 -0.000107855      -26.751 
         600         1.92 -0.000665461 -0.000109574      -26.751 
         600      2.25333 -0.000461093 -0.000108047      -26.751 
         600      2.61333  -0.00025842 -0.000103396      -26.751 
         600            3 -6.51004e-05 -9.55215e-05     -26.7509 
         650            0            0            0     -23.6091 
         650     0.013333  1.42879e-05  1.13268e-07     -23.6091 
         650     0.053333  0.000103153  1.75043e-06     -23.6091 
         650         0.12  0.000118966  8.21932e-06     -23.6091 
         650     0.213332  6.78678e-06  2.28651e-05     -23.6091 
         650     0.333332 -0.000180469  4.66299e-05     -23.6091 
         650         0.48 -0.000340893  7.76726e-05     -23.6091 
         650     0.653331 -0.000414212  0.000113527     -23.6091 
         650     0.853332 -0.000395824  0.000152912     -23.6091 
         650         1.08 -0.000312172  0.000194954     -23.6091 
         650      1.33333 -0.000218932  0.000237237     -23.6091 
         650      1.61333 -0.000167016   0.00027622     -23.6091 
         650         1.92 -0.000139217  0.000309751     -23.6091 
         650      2.25333 -0.000110469  0.000336774     -23.6091 
         650      2.61333 -7.64698e-05  0.000355637     -23.6091 
         650            3 -4.24599e-05  0.000364689     -23.6091 
         700            0 -3.05517e-20  5.23949e-27     -20.4655 
         700     0.013333 -1.65196e-06 -1.79316e-07     -20.4655 
         700     0.053333  0.000136202  -2.6476e-06     -20.4655 
         700         0.12  0.000433044  -1.1622e-05     -20.4655 
         700     0.213332  0.000840092 -2.97937e-05     -20.4655 
         700     0.333332   0.00120056 -5.54982e-05     -20.4655 
         700         0.48    0.0013886  -8.4152e-05     -20.4655 
         700     0.653331   0.00139726  -0.00011247     -20.4655 
         700     0.853332   0.00128468 -0.000140514     -20.4655 
         700         1.08   0.00109914 -0.000169698     -20.4655 
         700      1.33333  0.000891401 -0.000199304     -20.4655 
         700      1.61333  0.000716354 -0.000226118     -20.4655 
         700         1.92  0.000565577 -0.000247857     -20.4655 
         700      2.25333  0.000407826 -0.000264312     -20.4655 
         700      2.61333  0.000238632  -0.00027431     -20.4655 
         700            3  7.10516e-05 -0.000276687     -20.4655 
         750            0           -0           -0     -17.3219 
         750     0.013333 -4.74908e-05  2.80687e-07     -17.3219 
         750     0.053333 -0.000168811  4.15712e-06     -17.3219 
         750         0.12 -0.000525408  1.83799e-05     -17.3219 
         750     0.213332  -0.00108589   4.7755e-05     -17.3219 
         750     0.333332   -0.0016432   9.0867e-05     -17.3219 
         750         0.48  -0.00200095   0.00014182     -17.3219 
         750     0.653331  -0.00211734  0.000196056     -17.3219 
         750     0.853332  -0.00204304  0.000253642     -17.3219 
         750         1.08  -0.00181632  0.000316999      -17.322 
         750      1.33333  -0.00149626  0.000385333     -17.3219 
         750      1.61333  -0.00119774  0.000452472     -17.3219 
         750         1.92 -0.000959372  0.000512155     -17.3219 
         750      2.25333 -0.000724269  0.000561975     -17.3219 
         750      2.61333 -0.000473081  0.000599379     -17.3219 
         750            3 -0.000222222  0.000621641     -17.3219 
         800            0            0            0     -14.1752 
         800     0.013333 -4.54699e-05 -1.95388e-07     -14.1752 
         800     0.053333 -1.90028e-05 -2.89642e-06     -14.1752 
         800         0.12  0.000147602 -1.28242e-05     -14.1752 
         800     0.213332  0.000457776 -3.34063e-05     -14.1752 
         800     0.333332  0.000785844 -6.38786e-05     -14.1752 
         800         0.48   0.00100561 -0.000100548     -14.1752 
         800     0.653331   0.00108589 -0.000140765     -14.1752 
         800     0.853332   0.00104907 -0.000185112     -14.1752 
         800         1.08  0.000900678   -0.0002359     -14.1752 
         800      1.33333  0.000670451 -0.000292644     -14.1752 
         800      1.61333  0.000463211 -0.000349628     -14.1752 
         800         1.92  0.000337102 -0.000400729     -14.1752 
         800      2.25333  0.000232295 -0.000443404     -14.1752 
         800      2.61333  0.000119843 -0.000476277     -14.1753 
         800            3  9.27716e-06 -0.000497556     -14.1753 
         850            0           -0           -0     -11.0283 
         850     0.013333 -0.000126535   8.2409e-08     -11.0283 
         850     0.053333 -0.000385759  1.07766e-06     -11.0283 
         850         0.12 -0.000730384  3.75259e-06     -11.0283 
         850     0.213332  -0.00100516  6.27871e-06     -11.0283 
         850     0.333332  -0.00108456  4.22955e-06     -11.0283 
         850         0.48 -0.000979596  -5.8419e-06     -11.0283 
         850     0.653331  -0.00080683 -2.31449e-05     -11.0283 
         850     0.853332 -0.000650581 -4.31118e-05     -11.0283 
         850         1.08 -0.000496798 -6.04246e-05     -11.0283 
         850      1.33333  -0.00031368 -7.26835e-05     -11.0283 
         850      1.61333 -0.000148016 -8.23005e-05     -11.0283 
         850         1.92 -5.65603e-05 -9.29213e-05     -11.0283 
         850      2.25333  3.78557e-06 -0.000104147     -11.0283 
         850      2.61333   6.1555e-05 -0.000114641     -11.0283 
         850            3  0.000112803 -0.000123265     -11.0282 
         900            0            0            0     -7.87738 
         900     0.013333  0.000231488 -4.91942e-07     -7.87738 
         900     0.053333   0.00108591 -7.13843e-06     -7.87738 
         900         0.12   0.00252532 -3.05132e-05     -7.87738 
         900     0.213332   0.00421989 -7.55467e-05     -7.87738 
         900     0.333332   0.00559809 -0.000134583     -7.87738 
         900         0.48   0.00627953 -0.000192618     -7.87738 
         900     0.653331   0.00631322 -0.000239539     -7.87738 
         900     0.853332   0.00596545 -0.000276328     -7.87738 
         900         1.08   0.00541073 -0.000310839     -7.87737 
         900      1.33333   0.00471819 -0.000348142     -7.87738 
         900      1.61333   0.00399426 -0.000385006     -7.87738 
         900         1.92   0.00331802 -0.000415407     -7.87739 
         900      2.25333   0.00262328 -0.000436814     -7.87742 
         900      2.61333   0.00187554 -0.000449049     -7.87745 
         900            3   0.00110307 -0.000451636      -7.8775 
         950            0            0            0     -4.72794 
         950     0.013333  0.000617623  5.06919e-07     -4.72794 
         950     0.053333   0.00214555  8.27114e-06     -4.72794 
         950         0.12   0.00353822  4.19733e-05     -4.72794 
         950     0.213332   0.00390658  0.000127528     -4.72794 
         950     0.333332   0.00312941  0.000284067     -4.72794 
         950         0.48   0.00183462  0.000512108     -4.72794 
         950     0.653331  0.000771495  0.000796883     -4.72794 
         950     0.853332  0.000309467    0.0011211     -4.72793 
         950         1.08  0.000393218   0.00147047     -4.72793 
         950      1.33333  0.000676301   0.00182832     -4.72793 
         950      1.61333  0.000775732   0.00217407     -4.72794 
         950         1.92  0.000632988   0.00249269     -4.72794 
         950      2.25333  0.000434723   0.00277508     -4.72795 
         950      2.61333   0.00025821   0.00300985     -4.72796 
         950            3  8.58264e-05   0.00318302     -4.72798 
        1000            0            0            0     -1.57924 
        1000     0.013333 -0.000403123  6.25055e-07     -1.57924 
        1000     0.053333  -0.00158524  8.96114e-06     -1.57924 
        1000         0.12  -0.00356571  3.76536e-05     -1.57924 
        1000     0.213332  -0.00589389  9.16438e-05     -1.57924 
        1000     0.333332  -0.00784013  0.000161267     -1.57924 
        1000         0.48  -0.00894378  0.000229909     -1.57924 
        1000     0.653331   -0.0092834  0.000287522     -1.57924 
        1000     0.853332   -0.0091838  0.000336783     -1.57924 
        1000         1.08  -0.00879352  0.000390038     -1.57925 
        1000      1.33333  -0.00803194  0.000460454     -1.57925 
        1000      1.61333  -0.00692566  0.000550205     -1.57924 
        1000         1.92   -0.0057629  0.000645741     -1.57922 
        1000      2.25333  -0.00462741  0.000734735     -1.57919 
        1000      2.61333  -0.00347187  0.000811159     -1.57915 
        1000            3  -0.00226034  0.000871997     -1.57908 
