Variables = x, y, u, v, p

Zone, I=416, F=POINT
         -50            0            0            0     -67.8686 
         -50     0.013333  -0.00011634 -4.38234e-08     -67.8686 
         -50     0.053333 -0.000116404 -2.32482e-07     -67.8686 
         -50         0.12 -0.000111696 -7.74339e-07     -67.8685 
         -50     0.213332 -0.000102668 -1.73632e-06     -67.8685 
         -50     0.333332  -9.3183e-05 -3.12188e-06     -67.8684 
         -50         0.48 -8.59667e-05 -5.15321e-06     -67.8683 
         -50     0.653331 -8.31224e-05 -7.02877e-06     -67.8681 
         -50     0.853332 -8.46583e-05 -9.25856e-06     -67.8678 
         -50         1.08 -8.85541e-05 -1.08549e-05     -67.8673 
         -50      1.33333 -9.33027e-05 -1.19517e-05     -67.8666 
         -50      1.61333 -9.86494e-05  -1.3061e-05     -67.8657 
         -50         1.92 -0.000102756 -1.16877e-05     -67.8645 
         -50      2.25333  -0.00010274 -1.20902e-05      -67.863 
         -50      2.61333  -0.00010369 -1.41193e-05     -67.8611 
         -50            3 -0.000107468 -1.42239e-05     -67.8587 
         -25            0           -0           -0     -65.1717 
         -25     0.013333 -8.23391e-05 -1.84177e-08     -65.1717 
         -25     0.053333 -7.69488e-05  -9.6958e-08     -65.1717 
         -25         0.12 -7.09338e-05 -2.75824e-07     -65.1717 
         -25     0.213332 -6.79031e-05 -4.96683e-07     -65.1717 
         -25     0.333332 -6.86794e-05 -6.78058e-07     -65.1716 
         -25         0.48 -7.16598e-05 -8.73026e-07     -65.1716 
         -25     0.653331 -7.68196e-05 -1.29666e-06     -65.1715 
         -25     0.853332 -8.42556e-05  -1.9437e-06     -65.1714 
         -25         1.08 -9.12723e-05 -2.72988e-06     -65.1712 
         -25      1.33333 -9.57121e-05 -3.62886e-06     -65.1709 
         -25      1.61333 -9.96448e-05 -4.64273e-06     -65.1706 
         -25         1.92 -0.000101728 -4.91205e-06     -65.1701 
         -25      2.25333 -0.000102822 -6.62491e-06     -65.1696 
         -25      2.61333 -0.000102695 -7.65871e-06     -65.1688 
         -25            3 -9.80258e-05  -2.9935e-06     -65.1679 
           0            0            0            0     -62.9762 
           0     0.013333 -0.000159855   0.00010908     -62.9783 
           0     0.053333 -0.000108694   5.7171e-05     -62.9818 
           0         0.12 -7.63682e-05  4.04498e-05     -62.9856 
           0     0.213332 -6.16482e-05  3.00628e-05     -62.9896 
           0     0.333332 -5.71886e-05  2.42285e-05     -62.9936 
           0         0.48 -5.43279e-05  2.03097e-05     -62.9975 
           0     0.653331 -5.21416e-05  1.77754e-05     -63.0013 
           0     0.853332 -5.21294e-05  1.61261e-05     -63.0049 
           0         1.08 -5.55402e-05  1.50583e-05     -63.0084 
           0      1.33333  -6.2422e-05  1.43342e-05     -63.0117 
           0      1.61333 -7.03124e-05   1.3694e-05     -63.0148 
           0         1.92 -7.61396e-05  1.28024e-05     -63.0176 
           0      2.25333 -7.64324e-05  1.14012e-05     -63.0203 
           0      2.61333 -8.01905e-05  8.35706e-06     -63.0227 
           0            3 -8.88859e-05  7.43784e-06     -63.0249 
          20            0  0.000222199  4.10249e-05     -61.6175 
          20     0.013333   0.00020492   4.2277e-05     -61.6175 
          20     0.053333  0.000152238  4.61859e-05     -61.6174 
          20         0.12   6.3142e-05  5.32917e-05     -61.6173 
          20     0.213332 -5.77371e-05  6.47786e-05     -61.6172 
          20     0.333332 -0.000189102  8.27534e-05      -61.617 
          20         0.48 -0.000288386  0.000109714     -61.6167 
          20     0.653331  -0.00032306  0.000145939     -61.6164 
          20     0.853332  -0.00031286  0.000186627      -61.616 
          20         1.08 -0.000298065  0.000224403     -61.6155 
          20      1.33333 -0.000287436  0.000253982     -61.6148 
          20      1.61333 -0.000275825  0.000271683     -61.6141 
          20         1.92 -0.000259528  0.000275327     -61.6132 
          20      2.25333 -0.000237566  0.000265844     -61.6122 
          20      2.61333 -0.000212378  0.000246026     -61.6111 
          20            3 -0.000185799   0.00022138     -61.6098 
          40            0           -0           -0     -60.2116 
          40     0.013333 -2.54685e-05  7.10512e-09     -60.2116 
          40     0.053333  7.03519e-05  1.28936e-07     -60.2116 
          40         0.12  0.000194099  5.45052e-07     -60.2116 
          40     0.213332   0.00030733  1.69693e-06     -60.2116 
          40     0.333332   0.00038007  4.80212e-06     -60.2116 
          40         0.48  0.000410301  1.14744e-05     -60.2116 
          40     0.653331   0.00041957  2.27697e-05     -60.2116 
          40     0.853332  0.000420891  3.84581e-05     -60.2116 
          40         1.08  0.000393901  5.63526e-05     -60.2115 
          40      1.33333  0.000318651  7.31733e-05     -60.2114 
          40      1.61333  0.000205304  8.64058e-05     -60.2113 
          40         1.92   8.2541e-05  9.41999e-05     -60.2112 
          40      2.25333 -3.35536e-05  9.63305e-05     -60.2111 
          40      2.61333 -0.000121252   9.3963e-05     -60.2109 
          40            3 -0.000167263  8.78758e-05     -60.2106 
          60            0           -0           -0     -58.8763 
          60     0.013333 -3.32781e-05 -1.62277e-07     -58.8763 
          60     0.053333  6.32361e-05 -2.23416e-06     -58.8763 
          60         0.12  0.000231488 -8.82956e-06     -58.8763 
          60     0.213332  0.000397627 -1.97021e-05     -58.8763 
          60     0.333332  0.000485292 -3.16406e-05     -58.8763 
          60         0.48  0.000491453 -4.27997e-05     -58.8762 
          60     0.653331  0.000431876 -5.53744e-05     -58.8762 
          60     0.853332   0.00030258 -7.25493e-05     -58.8762 
          60         1.08   0.00015708 -9.20936e-05     -58.8762 
          60      1.33333  6.02427e-05 -0.000108909     -58.8762 
          60      1.61333 -1.00326e-05 -0.000120633     -58.8761 
          60         1.92 -8.72036e-05 -0.000126174     -58.8761 
          60      2.25333 -0.000141808 -0.000125426      -58.876 
          60      2.61333 -0.000171297 -0.000118884     -58.8759 
          60            3 -0.000184129  -0.00010899     -58.8758 
          80            0           -0           -0     -57.5856 
          80     0.013333   2.0032e-05 -8.99414e-08     -57.5856 
          80     0.053333  0.000228581 -1.05861e-06     -57.5856 
          80         0.12  0.000478971 -3.03475e-06     -57.5856 
          80     0.213332  0.000648339 -3.18582e-06     -57.5856 
          80     0.333332  0.000690537  2.38222e-06     -57.5856 
          80         0.48  0.000663975  1.47653e-05     -57.5856 
          80     0.653331  0.000622464  3.08855e-05     -57.5856 
          80     0.853332  0.000529301  4.44647e-05     -57.5856 
          80         1.08  0.000359637  5.21307e-05     -57.5856 
          80      1.33333  0.000205135  5.71448e-05     -57.5856 
          80      1.61333  8.71957e-05  6.24016e-05     -57.5856 
          80         1.92 -3.58188e-05  6.55454e-05     -57.5855 
          80      2.25333 -0.000133878  6.57076e-05     -57.5855 
          80      2.61333  -0.00020091   6.3388e-05     -57.5855 
          80            3 -0.000243664   5.9106e-05     -57.5854 
         100            0           -0           -0     -56.3219 
         100     0.013333  -2.7179e-05 -6.85888e-08     -56.3219 
         100     0.053333  6.27069e-05  -9.1686e-07     -56.3219 
         100         0.12  0.000199341 -3.51865e-06     -56.3219 
         100     0.213332  0.000341002 -7.76042e-06     -56.3219 
         100     0.333332  0.000450131 -1.25317e-05     -56.3219 
         100         0.48   0.00051916   -1.689e-05     -56.3219 
         100     0.653331  0.000549094 -2.10888e-05     -56.3219 
         100     0.853332  0.000516802 -2.71576e-05     -56.3219 
         100         1.08  0.000410896 -3.66126e-05     -56.3219 
         100      1.33333  0.000293276 -4.73376e-05     -56.3219 
         100      1.61333  0.000187731 -5.62649e-05     -56.3218 
         100         1.92  6.26714e-05 -6.32837e-05     -56.3218 
         100      2.25333 -4.56886e-05 -6.78424e-05     -56.3218 
         100      2.61333 -0.000122817 -6.92332e-05     -56.3218 
         100            3 -0.000171445 -6.82089e-05     -56.3217 
         150            0 -8.30105e-20 -1.45256e-25     -53.2241 
         150     0.013333  -0.00010872 -1.83194e-07     -53.2241 
         150     0.053333 -0.000196724 -2.79356e-06     -53.2241 
         150         0.12 -0.000186615 -1.28012e-05     -53.2241 
         150     0.213332 -4.06635e-05  -3.4409e-05     -53.2241 
         150     0.333332  0.000149615 -6.76753e-05     -53.2241 
         150         0.48  0.000276942 -0.000109597     -53.2241 
         150     0.653331  0.000298008  -0.00015759     -53.2241 
         150     0.853332  0.000228561 -0.000209609     -53.2241 
         150         1.08  0.000135812 -0.000261255     -53.2241 
         150      1.33333  7.73482e-05 -0.000306928     -53.2241 
         150      1.61333  3.69644e-05 -0.000343032     -53.2241 
         150         1.92 -1.39188e-05 -0.000365928     -53.2241 
         150      2.25333 -5.46921e-05 -0.000373497     -53.2241 
         150      2.61333 -8.65245e-05  -0.00036632     -53.2241 
         150            3 -0.000114782 -0.000346834     -53.2241 
         200            0           -0           -0     -50.1652 
         200     0.013333 -8.61142e-05  -2.1604e-08     -50.1652 
         200     0.053333 -0.000158604 -3.76341e-07     -50.1652 
         200         0.12  -0.00022329 -2.04187e-06     -50.1652 
         200     0.213332 -0.000239664 -6.49029e-06     -50.1652 
         200     0.333332 -0.000208097 -1.47779e-05     -50.1652 
         200         0.48 -0.000161336 -2.68259e-05     -50.1652 
         200     0.653331 -0.000128717  -4.1679e-05     -50.1652 
         200     0.853332 -0.000114512 -5.80479e-05     -50.1652 
         200         1.08 -0.000107635  -7.4755e-05     -50.1652 
         200      1.33333 -9.95869e-05 -9.08295e-05     -50.1652 
         200      1.61333 -8.54225e-05 -0.000105049     -50.1652 
         200         1.92 -6.97508e-05  -0.00011583     -50.1652 
         200      2.25333 -5.59046e-05 -0.000122198     -50.1652 
         200      2.61333 -4.58587e-05 -0.000123856     -50.1652 
         200            3 -3.92404e-05 -0.000120976     -50.1652 
         250            0           -0           -0     -47.1195 
         250     0.013333   2.9637e-05  3.52542e-08     -47.1195 
         250     0.053333  0.000230831  6.94157e-07     -47.1195 
         250         0.12  0.000419874  4.18062e-06     -47.1195 
         250     0.213332  0.000481989   1.4246e-05     -47.1195 
         250     0.333332  0.000410378  3.38106e-05     -47.1195 
         250         0.48  0.000291982  6.28167e-05     -47.1195 
         250     0.653331  0.000208606  9.88338e-05     -47.1195 
         250     0.853332  0.000174012  0.000138423     -47.1195 
         250         1.08  0.000147965  0.000177881     -47.1195 
         250      1.33333  0.000103676  0.000214455     -47.1195 
         250      1.61333  4.99952e-05  0.000246625     -47.1195 
         250         1.92 -3.40396e-06  0.000271747     -47.1195 
         250      2.25333 -5.46431e-05  0.000287347     -47.1195 
         250      2.61333 -9.74793e-05  0.000292583     -47.1195 
         250            3 -0.000126392  0.000287546     -47.1195 
         300            0            0            0     -44.0786 
         300     0.013333 -9.46748e-05  9.25901e-08     -44.0786 
         300     0.053333 -0.000220592  1.30266e-06     -44.0786 
         300         0.12 -0.000419173  5.25245e-06     -44.0786 
         300     0.213332    -0.000621    1.189e-05     -44.0786 
         300     0.333332 -0.000745114  1.88357e-05     -44.0786 
         300         0.48 -0.000772575  2.36447e-05     -44.0786 
         300     0.653331 -0.000737292  2.61196e-05     -44.0786 
         300     0.853332 -0.000664407  2.78679e-05     -44.0786 
         300         1.08 -0.000567691  2.95944e-05     -44.0786 
         300      1.33333 -0.000473655  3.00265e-05     -44.0786 
         300      1.61333 -0.000383173  2.83082e-05     -44.0786 
         300         1.92 -0.000277437  2.51604e-05     -44.0786 
         300      2.25333 -0.000169079  2.08978e-05     -44.0786 
         300      2.61333 -6.94445e-05  1.57617e-05     -44.0786 
         300            3  1.43008e-05  1.02709e-05     -44.0786 
         350            0            0            0     -41.0389 
         350     0.013333 -0.000120039 -3.68911e-08     -41.0389 
         350     0.053333 -0.000268198 -7.27642e-07     -41.0389 
         350         0.12 -0.000383695 -4.36883e-06     -41.0389 
         350     0.213332 -0.000372168 -1.47228e-05     -41.0389 
         350     0.333332 -0.000251235 -3.42334e-05     -41.0389 
         350         0.48 -0.000123358  -6.1749e-05     -41.0389 
         350     0.653331 -6.36416e-05  -9.3645e-05     -41.0389 
         350     0.853332 -5.93565e-05 -0.000125704     -41.0389 
         350         1.08 -4.49559e-05 -0.000153961     -41.0389 
         350      1.33333 -1.97515e-06 -0.000176913     -41.0389 
         350      1.61333  2.59622e-05 -0.000195962     -41.0389 
         350         1.92  3.37456e-05 -0.000210746     -41.0389 
         350      2.25333  3.43474e-05 -0.000219567     -41.0389 
         350      2.61333  3.04044e-05 -0.000221484     -41.0389 
         350            3   2.1292e-05 -0.000216278     -41.0389 
         400            0 -2.17558e-19 -8.65945e-28          -38 
         400     0.013333 -0.000185329  -2.3927e-08          -38 
         400     0.053333 -0.000507688 -6.00116e-07          -38 
         400         0.12 -0.000845136 -4.21148e-06          -38 
         400     0.213332  -0.00102749 -1.55567e-05          -38 
         400     0.333332  -0.00102528  -3.8453e-05          -38 
         400         0.48 -0.000944813 -7.28899e-05          -38 
         400     0.653331 -0.000899301  -0.00011587          -38 
         400     0.853332  -0.00091027 -0.000163039          -38 
         400         1.08 -0.000896102 -0.000208269          -38 
         400      1.33333 -0.000778637 -0.000245959          -38 
         400      1.61333 -0.000605788 -0.000275603          -38 
         400         1.92 -0.000438906 -0.000298309          -38 
         400      2.25333 -0.000275513 -0.000312252          -38 
         400      2.61333 -0.000117579 -0.000316246     -37.9999 
         400            3  2.17436e-05 -0.000309901     -37.9999 
         450            0            0            0     -34.9609 
         450     0.013333 -0.000111234  7.10475e-09     -34.9609 
         450     0.053333 -0.000255407 -1.37876e-09     -34.9609 
         450         0.12 -0.000417939 -6.84583e-07     -34.9609 
         450     0.213332 -0.000521916 -3.79639e-06     -34.9609 
         450     0.333332 -0.000541531 -1.11059e-05     -34.9609 
         450         0.48 -0.000513525  -2.2995e-05     -34.9609 
         450     0.653331 -0.000489501 -3.85107e-05     -34.9609 
         450     0.853332 -0.000487577 -5.59564e-05     -34.9609 
         450         1.08 -0.000476287  -7.2641e-05     -34.9609 
         450      1.33333 -0.000415306 -8.58323e-05     -34.9609 
         450      1.61333 -0.000325364 -9.54469e-05     -34.9609 
         450         1.92 -0.000243105 -0.000102759     -34.9609 
         450      2.25333 -0.000165166 -0.000107438     -34.9609 
         450      2.61333 -9.01911e-05 -0.000109006     -34.9609 
         450            3 -2.42749e-05 -0.000107222     -34.9608 
         500            0            0            0     -31.9217 
         500     0.013333 -2.75187e-05 -1.90078e-08     -31.9217 
         500     0.053333  4.70098e-05 -2.43795e-07     -31.9217 
         500         0.12  0.000142286 -8.04291e-07     -31.9217 
         500     0.213332  0.000216675 -1.13456e-06     -31.9217 
         500     0.333332  0.000240838 -2.42126e-08     -31.9217 
         500         0.48  0.000220975  3.36856e-06     -31.9217 
         500     0.653331  0.000182796  8.69955e-06     -31.9217 
         500     0.853332  0.000141021   1.4851e-05     -31.9217 
         500         1.08  9.92154e-05  2.11222e-05     -31.9217 
         500      1.33333  6.67906e-05  2.78184e-05     -31.9217 
         500      1.61333  4.42636e-05  3.49852e-05     -31.9217 
         500         1.92  1.79263e-05  4.17341e-05     -31.9217 
         500      2.25333 -1.18844e-05  4.75477e-05     -31.9217 
         500      2.61333 -4.24881e-05   5.1969e-05     -31.9217 
         500            3 -7.17319e-05  5.45968e-05     -31.9217 
         550            0           -0           -0     -28.8827 
         550     0.013333 -0.000168413 -1.23947e-07     -28.8827 
         550     0.053333 -0.000418525 -2.03368e-06     -28.8827 
         550         0.12  -0.00059929 -1.03107e-05     -28.8827 
         550     0.213332 -0.000555608  -3.0978e-05     -28.8827 
         550     0.333332 -0.000315573  -6.7592e-05     -28.8827 
         550         0.48  -4.2276e-05 -0.000118757     -28.8827 
         550     0.653331  0.000125636 -0.000180044     -28.8827 
         550     0.853332    0.0001577 -0.000247101     -28.8827 
         550         1.08  0.000112249  -0.00031587     -28.8827 
         550      1.33333  7.67503e-05 -0.000381744     -28.8827 
         550      1.61333  7.98669e-05 -0.000441283     -28.8827 
         550         1.92  7.98532e-05 -0.000492765     -28.8827 
         550      2.25333  6.99735e-05 -0.000533134     -28.8827 
         550      2.61333  5.40628e-05 -0.000559494     -28.8827 
         550            3  3.33397e-05 -0.000569591     -28.8827 
         600            0           -0           -0     -25.8432 
         600     0.013333  0.000109481  1.80496e-07     -25.8432 
         600     0.053333  0.000478217  2.88913e-06     -25.8432 
         600         0.12  0.000771155  1.42492e-05     -25.8432 
         600     0.213332  0.000774934  4.19037e-05     -25.8432 
         600     0.333332  0.000508756  9.03956e-05     -25.8432 
         600         0.48  0.000165408  0.000158567     -25.8432 
         600     0.653331 -7.76113e-05  0.000241844     -25.8432 
         600     0.853332 -0.000155293  0.000335919     -25.8432 
         600         1.08 -0.000100729   0.00043702     -25.8432 
         600      1.33333 -1.56295e-05  0.000539482     -25.8432 
         600      1.61333  7.55531e-06  0.000636051     -25.8432 
         600         1.92 -1.03382e-05  0.000721486     -25.8432 
         600      2.25333 -3.32199e-05   0.00079135     -25.8432 
         600      2.61333  -5.1809e-05  0.000841083     -25.8432 
         600            3 -6.90324e-05  0.000866758     -25.8432 
         650            0            0            0     -22.8041 
         650     0.013333 -0.000266165  1.80829e-08     -22.8041 
         650     0.053333 -0.000820923  4.43286e-08     -22.8041 
         650         0.12  -0.00149834 -1.33272e-06     -22.8041 
         650     0.213332  -0.00202705 -8.54624e-06     -22.8041 
         650     0.333332  -0.00224945 -2.75123e-05     -22.8041 
         650         0.48  -0.00220856 -6.18616e-05     -22.8041 
         650     0.653331  -0.00206315 -0.000111119     -22.8041 
         650     0.853332   -0.0019381 -0.000171887     -22.8041 
         650         1.08  -0.00184754 -0.000239135     -22.8041 
         650      1.33333  -0.00171974 -0.000307005     -22.8041 
         650      1.61333  -0.00150268 -0.000370628     -22.8041 
         650         1.92  -0.00122787 -0.000427494     -22.8041 
         650      2.25333 -0.000924988 -0.000475566     -22.8041 
         650      2.61333 -0.000608857   -0.0005119     -22.8041 
         650            3 -0.000294048 -0.000533791      -22.804 
         700            0 -7.25737e-20  1.19412e-27     -19.7633 
         700     0.013333 -8.05327e-05 -1.64282e-07     -19.7633 
         700     0.053333 -9.39345e-05  -2.4823e-06     -19.7633 
         700         0.12  2.68847e-05 -1.13641e-05     -19.7633 
         700     0.213332  0.000328974 -3.10285e-05     -19.7633 
         700     0.333332  0.000728515 -6.27423e-05     -19.7633 
         700         0.48   0.00108751 -0.000104393     -19.7633 
         700     0.653331   0.00132021 -0.000152662     -19.7633 
         700     0.853332   0.00141412 -0.000205446     -19.7633 
         700         1.08   0.00138277 -0.000262385     -19.7633 
         700      1.33333   0.00124735  -0.00032315     -19.7633 
         700      1.61333   0.00105587 -0.000385276     -19.7633 
         700         1.92  0.000856845 -0.000444405     -19.7633 
         700      2.25333  0.000651196 -0.000496455     -19.7633 
         700      2.61333  0.000435988 -0.000538031     -19.7633 
         700            3  0.000217743 -0.000566255     -19.7633 
         750            0           -0           -0      -16.723 
         750     0.013333  8.15019e-05 -1.37602e-07      -16.723 
         750     0.053333  0.000485204 -1.94997e-06      -16.723 
         750         0.12   0.00109647 -8.02095e-06      -16.723 
         750     0.213332   0.00175385  -1.8811e-05      -16.723 
         750     0.333332   0.00225828 -3.10791e-05      -16.723 
         750         0.48   0.00250762 -3.98846e-05      -16.723 
         750     0.653331   0.00254364 -4.20507e-05      -16.723 
         750     0.853332   0.00246797  -3.7677e-05     -16.7229 
         750         1.08   0.00233758 -2.93408e-05     -16.7229 
         750      1.33333   0.00214568 -2.01454e-05      -16.723 
         750      1.61333   0.00188062 -1.19245e-05      -16.723 
         750         1.92   0.00156391 -4.73956e-06      -16.723 
         750      2.25333    0.0012116  2.10339e-06      -16.723 
         750      2.61333  0.000834892  8.35408e-06      -16.723 
         750            3   0.00044784  1.36843e-05      -16.723 
         800            0            0            0     -13.6833 
         800     0.013333  0.000177612  1.69273e-07     -13.6833 
         800     0.053333  0.000726393  2.79149e-06     -13.6833 
         800         0.12   0.00123629  1.43368e-05     -13.6833 
         800     0.213332   0.00138962   4.4044e-05     -13.6833 
         800     0.333332    0.0011377  9.89966e-05     -13.6833 
         800         0.48  0.000696712  0.000179703     -13.6833 
         800     0.653331  0.000327039  0.000280987     -13.6833 
         800     0.853332  0.000153967  0.000396361     -13.6833 
         800         1.08  0.000150052  0.000519936     -13.6833 
         800      1.33333  0.000198602  0.000645579     -13.6833 
         800      1.61333  0.000196462  0.000766913     -13.6833 
         800         1.92  0.000143997   0.00087886     -13.6833 
         800      2.25333  8.00207e-05  0.000976954     -13.6833 
         800      2.61333  1.74337e-05   0.00105562     -13.6833 
         800            3 -4.57279e-05    0.0011094     -13.6833 
         850            0           -0           -0     -10.6441 
         850     0.013333 -0.000266914  2.05729e-07     -10.6441 
         850     0.053333 -0.000885463  2.84846e-06     -10.6441 
         850         0.12  -0.00179643   1.1269e-05     -10.6441 
         850     0.213332  -0.00273452   2.5003e-05     -10.6441 
         850     0.333332  -0.00341096  3.83662e-05     -10.6441 
         850         0.48  -0.00371694  4.46301e-05     -10.6441 
         850     0.653331  -0.00375448   4.1008e-05     -10.6441 
         850     0.853332   -0.0036741  2.98742e-05     -10.6441 
         850         1.08   -0.0035189  1.71805e-05     -10.6441 
         850      1.33333  -0.00323042  9.26977e-06     -10.6441 
         850      1.61333  -0.00279885  8.35584e-06     -10.6441 
         850         1.92  -0.00232453   1.0852e-05     -10.6441 
         850      2.25333  -0.00183362  1.40982e-05     -10.6441 
         850      2.61333  -0.00132017  1.73272e-05     -10.6441 
         850            3 -0.000795327  2.05707e-05      -10.644 
         900            0            0            0     -7.60264 
         900     0.013333 -0.000180072 -8.66415e-08     -7.60264 
         900     0.053333 -0.000483348 -1.38122e-06     -7.60264 
         900         0.12 -0.000796004 -6.82317e-06     -7.60264 
         900     0.213332 -0.000965512 -2.02793e-05     -7.60264 
         900     0.333332 -0.000951651 -4.46458e-05     -7.60264 
         900         0.48 -0.000824427 -8.04995e-05     -7.60264 
         900     0.653331 -0.000684777 -0.000126565     -7.60264 
         900     0.853332 -0.000599374 -0.000181191     -7.60264 
         900         1.08 -0.000588983 -0.000243003     -7.60264 
         900      1.33333 -0.000629304 -0.000309983     -7.60264 
         900      1.61333 -0.000653554 -0.000378178     -7.60264 
         900         1.92 -0.000610514 -0.000442637     -7.60264 
         900      2.25333 -0.000525064 -0.000500019     -7.60264 
         900      2.61333 -0.000424674 -0.000547678     -7.60264 
         900            3 -0.000317677 -0.000583209     -7.60264 
         950            0            0            0     -4.56163 
         950     0.013333 -0.000103754 -2.59531e-08     -4.56163 
         950     0.053333 -0.000224559 -4.11354e-07     -4.56163 
         950         0.12 -0.000355679  -2.0414e-06     -4.56163 
         950     0.213332 -0.000434089 -6.19024e-06     -4.56163 
         950     0.333332 -0.000430466 -1.41083e-05     -4.56163 
         950         0.48 -0.000359968 -2.65358e-05     -4.56163 
         950     0.653331 -0.000263396  -4.3491e-05     -4.56163 
         950     0.853332 -0.000179342 -6.45731e-05     -4.56163 
         950         1.08 -0.000132143 -8.93618e-05     -4.56163 
         950      1.33333 -0.000126598 -0.000117356     -4.56163 
         950      1.61333  -0.00014147 -0.000147316     -4.56163 
         950         1.92 -0.000146574 -0.000177175     -4.56163 
         950      2.25333 -0.000138335 -0.000205225     -4.56163 
         950      2.61333 -0.000123227 -0.000230071     -4.56163 
         950            3 -0.000106442 -0.000250391     -4.56163 
        1000            0            0            0     -1.52039 
        1000     0.013333 -0.000197562 -8.77509e-08     -1.52039 
        1000     0.053333 -0.000532034 -1.50589e-06     -1.52039 
        1000         0.12 -0.000832225 -7.92253e-06     -1.52039 
        1000     0.213332 -0.000888126  -2.4878e-05     -1.52039 
        1000     0.333332 -0.000665645 -5.69402e-05     -1.52039 
        1000         0.48 -0.000321625 -0.000104581     -1.52039 
        1000     0.653331 -5.11237e-05 -0.000164113     -1.52039 
        1000     0.853332  6.13061e-05 -0.000230421     -1.52039 
        1000         1.08  5.63178e-05 -0.000298978     -1.52039 
        1000      1.33333  2.51835e-05 -0.000366165     -1.52039 
        1000      1.61333  2.01434e-05 -0.000429729     -1.52039 
        1000         1.92  2.27988e-05 -0.000488892     -1.52039 
        1000      2.25333  1.63267e-05 -0.000542048     -1.52039 
        1000      2.61333  1.01773e-06 -0.000586505     -1.52038 
        1000            3  -1.7916e-05 -0.000619253     -1.52038 
