Variables = x, y, u, v, p

Zone, I=800, F=POINT
         900            0            0            0  -1.7977e-05 
         900     0.000234  6.98027e-05  3.34736e-12 -1.79769e-05 
         900     0.000939  0.000280106  5.34961e-11 -1.79769e-05 
         900     0.002113  0.000630312  2.70511e-10 -1.79767e-05 
         900     0.003759   0.00112132  8.55697e-10 -1.79765e-05 
         900     0.005872   0.00175163  2.08762e-09 -1.79763e-05 
         900     0.008457   0.00252274  4.32973e-09 -1.79759e-05 
         900      0.01151   0.00343346  8.01951e-09 -1.79756e-05 
         900     0.015036   0.00448528  1.36849e-08 -1.79752e-05 
         900     0.019031     0.005677  2.19221e-08 -1.79747e-05 
         900     0.023493   0.00700802   3.3406e-08 -1.79741e-05 
         900     0.028429   0.00848045  4.89169e-08 -1.79735e-05 
         900     0.033831    0.0100919  6.92718e-08 -1.79729e-05 
         900     0.039706    0.0118444  9.54181e-08 -1.79722e-05 
         900     0.046047     0.013736  1.28326e-07 -1.79714e-05 
         900     0.052863    0.0157692  1.69125e-07 -1.79706e-05 
         900      0.06015     0.017943  2.18961e-07 -1.79697e-05 
         900       0.0679    0.0202548  2.79015e-07 -1.79688e-05 
         900     0.076126    0.0227087  3.50709e-07 -1.79678e-05 
         900     0.084816    0.0253009   4.3534e-07 -1.79667e-05 
         900     0.093982    0.0280352  5.34508e-07 -1.79656e-05 
         900     0.103611    0.0309075  6.49633e-07 -1.79644e-05 
         900     0.113718    0.0339225  7.82538e-07 -1.79632e-05 
         900     0.124286    0.0370749   9.3472e-07 -1.79619e-05 
         900     0.135333    0.0403702  1.10824e-06 -1.79606e-05 
         900      0.14685    0.0438056  1.30486e-06 -1.79592e-05 
         900     0.158827    0.0473782  1.52635e-06 -1.79578e-05 
         900     0.171284     0.051094  1.77511e-06 -1.79562e-05 
         900     0.184201    0.0549468  2.05287e-06 -1.79547e-05 
         900     0.197599    0.0589431  2.36228e-06 -1.79531e-05 
         900     0.211455    0.0630758  2.70509e-06 -1.79514e-05 
         900     0.225792    0.0673519  3.08422e-06 -1.79497e-05 
         900       0.2406    0.0717682  3.50187e-06 -1.79479e-05 
         900     0.255865    0.0763206  3.96015e-06  -1.7946e-05 
         900     0.271613    0.0810168  4.46238e-06 -1.79441e-05 
         900     0.287818    0.0858489  5.01044e-06 -1.79421e-05 
         900     0.304506    0.0908247  5.60796e-06 -1.79401e-05 
         900      0.32165     0.095936   6.2568e-06 -1.79381e-05 
         900     0.339278     0.101191  6.96088e-06 -1.79359e-05 
         900     0.357377     0.106586  7.72272e-06 -1.79337e-05 
         900      0.37593     0.112115  8.54459e-06 -1.79315e-05 
         900     0.394968     0.117788    9.431e-06 -1.79292e-05 
         900     0.414461     0.123596  1.03838e-05 -1.79268e-05 
         900      0.43444     0.129547  1.14077e-05 -1.79244e-05 
         900     0.454872     0.135631  1.25043e-05 -1.79219e-05 
         900     0.475791     0.141859   1.3679e-05 -1.79194e-05 
         900     0.497163     0.148221  1.49332e-05 -1.79168e-05 
         900     0.519021     0.154724  1.62723e-05 -1.79141e-05 
         900      0.54135     0.161366  1.76993e-05 -1.79114e-05 
         900     0.564131     0.168139  1.92164e-05 -1.79087e-05 
         900       0.5874     0.175055  2.08298e-05 -1.79058e-05 
         900     0.611121     0.182101  2.25405e-05  -1.7903e-05 
         900      0.63533     0.189288  2.43555e-05    -1.79e-05 
         900      0.65999     0.196605  2.62757e-05  -1.7897e-05 
         900     0.685139     0.204063  2.83079e-05 -1.78939e-05 
         900     0.710759     0.211654  3.04544e-05 -1.78908e-05 
         900     0.736828     0.219372  3.27173e-05 -1.78876e-05 
         900     0.763387     0.227229  3.51044e-05 -1.78844e-05 
         900     0.790396     0.235212  3.76161e-05  -1.7881e-05 
         900     0.817896     0.243331  4.02604e-05 -1.78777e-05 
         900     0.845843     0.251573  4.30373e-05 -1.78742e-05 
         900     0.874283      0.25995  4.59553e-05 -1.78707e-05 
         900      0.90317     0.268448   4.9014e-05 -1.78671e-05 
         900     0.932551     0.277079  5.22222e-05 -1.78635e-05 
         900     0.962401     0.285834  5.55814e-05 -1.78598e-05 
         900     0.992697     0.294705   5.9093e-05  -1.7856e-05 
         900      1.02349     0.303704  6.27665e-05 -1.78522e-05 
         900      1.05472     0.312816  6.65998e-05 -1.78483e-05 
         900      1.08645     0.322053  7.06034e-05 -1.78443e-05 
         900      1.11863     0.331397  7.47744e-05 -1.78402e-05 
         900       1.1513     0.340863  7.91236e-05 -1.78361e-05 
         900      1.18444      0.35044  8.36513e-05 -1.78319e-05 
         900      1.21802     0.360118  8.83574e-05 -1.78276e-05 
         900      1.25211      0.36991  9.32529e-05 -1.78232e-05 
         900      1.28663     0.379796  9.83327e-05 -1.78188e-05 
         900      1.32165     0.389791  0.000103609 -1.78144e-05 
         900      1.35712     0.399874  0.000109074 -1.78099e-05 
         900      1.39308     0.410059  0.000114741 -1.78053e-05 
         900      1.42951     0.420334   0.00012061 -1.78007e-05 
         900      1.46638     0.430686  0.000126678  -1.7796e-05 
         900      1.50375     0.441129  0.000132963 -1.77911e-05 
         900      1.54156     0.451641  0.000139423 -1.77859e-05 
         900      1.57987     0.462234  0.000146109 -1.77802e-05 
         900      1.61863     0.472887  0.000153009 -1.77744e-05 
         900      1.65788     0.483613  0.000160129 -1.77684e-05 
         900      1.69757     0.494389  0.000167452 -1.77625e-05 
         900      1.73776     0.505225   0.00017499 -1.77566e-05 
         900      1.77842      0.51611  0.000182735 -1.77509e-05 
         900      1.81952     0.527026   0.00019068 -1.77452e-05 
         900      1.86113     0.537987  0.000198836 -1.77396e-05 
         900      1.90316     0.548967   0.00020719  -1.7734e-05 
         900      1.94571     0.559979  0.000215755 -1.77284e-05 
         900      1.98869     0.570996  0.000224516 -1.77227e-05 
         900      2.03217     0.582031  0.000233484 -1.77167e-05 
         900      2.07612     0.593066   0.00024265 -1.77106e-05 
         900      2.12051     0.604085  0.000252003 -1.77042e-05 
         900       2.1654     0.615099  0.000261552 -1.76974e-05 
         900      2.21073      0.62608  0.000271276 -1.76902e-05 
         900      2.25656     0.637039  0.000281185 -1.76827e-05 
         900      2.30283      0.64795  0.000291255 -1.76748e-05 
         900       2.3496     0.658822  0.000301493 -1.76665e-05 
         900      2.39685     0.669636  0.000311883 -1.76578e-05 
         900      2.44452     0.680377  0.000322406  -1.7649e-05 
         900      2.49271     0.691051  0.000333068 -1.76399e-05 
         900      2.54132     0.701632  0.000343842 -1.76306e-05 
         900      2.59044      0.71213  0.000354734 -1.76213e-05 
         900         2.64     0.722517  0.000365715  -1.7612e-05 
         900      2.69006     0.732801  0.000376791 -1.76027e-05 
         900      2.74056     0.742956  0.000387933 -1.75936e-05 
         900      2.79156      0.75299  0.000399147 -1.75846e-05 
         900      2.84304     0.762885  0.000410411 -1.75757e-05 
         900      2.89494     0.772624  0.000421704 -1.75669e-05 
         900      2.94735     0.782216  0.000433032 -1.75581e-05 
         900       3.0002     0.791635  0.000444361 -1.75493e-05 
         900      3.05355     0.800888  0.000455695 -1.75403e-05 
         900      3.10733     0.809953     0.000467 -1.75309e-05 
         900      3.16163     0.818836  0.000478275 -1.75209e-05 
         900      3.21639     0.827523  0.000489494 -1.75103e-05 
         900      3.27158     0.835999  0.000500627 -1.74989e-05 
         900      3.32729     0.844272  0.000511672 -1.74867e-05 
         900      3.38342     0.852323  0.000522591 -1.74738e-05 
         900      3.44007     0.860158  0.000533382 -1.74604e-05 
         900      3.49714     0.867759  0.000544013 -1.74473e-05 
         900      3.55472     0.875135  0.000554493 -1.74352e-05 
         900      3.61273     0.882269   0.00056481 -1.74259e-05 
         900      3.67125      0.88917  0.000574997 -1.74213e-05 
         900      3.73025     0.895828  0.000585093 -1.74247e-05 
         900      3.78967     0.902236   0.00059488 -1.74265e-05 
         900      3.84961     0.908404  0.000604368 -1.74207e-05 
         900      3.90996      0.91432  0.000613629 -1.74114e-05 
         900      3.97084     0.919995   0.00062266  -1.7399e-05 
         900      4.03214     0.925419  0.000631433 -1.73839e-05 
         900      4.09395     0.930601  0.000639947 -1.73664e-05 
         900      4.15624     0.935538  0.000648185 -1.73467e-05 
         900      4.21895      0.94023  0.000656132 -1.73252e-05 
         900      4.28217     0.944687  0.000663792 -1.73021e-05 
         900      4.34582     0.948905  0.000671148 -1.72777e-05 
         900      4.40998     0.952895  0.000678208  -1.7252e-05 
         900      4.47457     0.956655  0.000684958 -1.72254e-05 
         900      4.53968     0.960198  0.000691407  -1.7198e-05 
         900      4.60525     0.963525  0.000697551 -1.71701e-05 
         900      4.67125     0.966641  0.000703387  -1.7142e-05 
         900      4.73777     0.969556  0.000708925 -1.71139e-05 
         900       4.8047     0.972274  0.000714161 -1.70862e-05 
         900      4.87216     0.974805  0.000719108 -1.70591e-05 
         900      4.94003     0.977153  0.000723762  -1.7033e-05 
         900      5.00843      0.97933  0.000728137 -1.70085e-05 
         900      5.07724      0.98134  0.000732232  -1.6986e-05 
         900      5.14658     0.983194   0.00073606 -1.69661e-05 
         900      5.21639     0.984898  0.000739626 -1.69493e-05 
         900      5.28661     0.986459  0.000742935 -1.69365e-05 
         900      5.35736     0.987888     0.000746 -1.69284e-05 
         900      5.42852      0.98919  0.000748825 -1.69259e-05 
         900      5.50021     0.990374  0.000751422 -1.69299e-05 
         900      5.57231     0.991448  0.000753822 -1.69211e-05 
         900      5.64493     0.992419  0.000756081 -1.68603e-05 
         900      5.71803     0.993295  0.000758134   -1.681e-05 
         900      5.79154     0.994082  0.000759994 -1.67687e-05 
         900      5.86558     0.994788  0.000761679  -1.6735e-05 
         900      5.94003     0.995419  0.000763198 -1.67077e-05 
         900      6.01501     0.995981  0.000764566 -1.66854e-05 
         900       6.0904      0.99648  0.000765795 -1.66671e-05 
         900      6.16632     0.996923  0.000766895 -1.66518e-05 
         900      6.24271     0.997313  0.000767878 -1.66385e-05 
         900       6.3195     0.997657  0.000768752 -1.66263e-05 
         900      6.39683     0.997959  0.000769528 -1.66145e-05 
         900      6.47457     0.998223  0.000770213 -1.66024e-05 
         900      6.55284     0.998453  0.000770817 -1.65895e-05 
         900      6.63152     0.998653  0.000771345 -1.65752e-05 
         900      6.71073     0.998826  0.000771808 -1.65593e-05 
         900      6.79034     0.998976  0.000772209 -1.65415e-05 
         900      6.87049     0.999105  0.000772557 -1.65216e-05 
         900      6.95111     0.999215  0.000772858 -1.64996e-05 
         900      7.03214      0.99931  0.000773116 -1.64756e-05 
         900       7.1137      0.99939  0.000773339 -1.64496e-05 
         900      7.19566     0.999458   0.00077353 -1.64221e-05 
         900      7.27816     0.999515  0.000773695 -1.63931e-05 
         900      7.36106     0.999563  0.000773839 -1.63633e-05 
         900      7.44451     0.999603  0.000773964 -1.63331e-05 
         900      7.52842     0.999637  0.000774075 -1.63029e-05 
         900      7.61273     0.999664  0.000774172 -1.62734e-05 
         900      7.69758     0.999687  0.000774258 -1.62451e-05 
         900      7.78283     0.999706  0.000774333 -1.62185e-05 
         900      7.86862     0.999722  0.000774394 -1.61941e-05 
         900      7.95481     0.999735  0.000774438 -1.61721e-05 
         900      8.04155     0.999745   0.00077446 -1.61527e-05 
         900      8.12868     0.999754  0.000774483 -1.61276e-05 
         900      8.21635     0.999762  0.000774506 -1.61018e-05 
         900      8.30449     0.999768  0.000774528 -1.60767e-05 
         900      8.39303     0.999772  0.000774549 -1.60519e-05 
         900      8.48211     0.999776  0.000774571  -1.6027e-05 
         900      8.57159     0.999779  0.000774593 -1.60017e-05 
         900      8.66161     0.999782  0.000774616 -1.59758e-05 
         900      8.75203     0.999784  0.000774637 -1.59489e-05 
         900      8.84299     0.999785  0.000774656 -1.59209e-05 
         900      8.93443     0.999786   0.00077467 -1.58915e-05 
         900      9.02626     0.999787  0.000774678 -1.58609e-05 
         900      9.11863     0.999788  0.000774678  -1.5829e-05 
         900      9.21139     0.999789  0.000774671 -1.57963e-05 
         900      9.30471      0.99979  0.000774657 -1.57634e-05 
         900      9.39841      0.99979  0.000774641 -1.57312e-05 
         900      9.49267     0.999791  0.000774632 -1.57012e-05 
         900      9.58739     0.999791  0.000774644 -1.56752e-05 
         900      9.68251     0.999792  0.000774698 -1.56561e-05 
         900      9.77817     0.999792  0.000774823 -1.56471e-05 
         900      9.87422     0.999793  0.000774883 -1.56299e-05 
         900      9.97083     0.999793  0.000774743 -1.55853e-05 
         900      10.0678     0.999794  0.000774661 -1.55466e-05 
         900      10.1654     0.999794  0.000774624 -1.55124e-05 
         900      10.2633     0.999794  0.000774621 -1.54818e-05 
         900      10.3618     0.999795  0.000774641 -1.54535e-05 
         900      10.4607     0.999795  0.000774675 -1.54267e-05 
         900      10.5601     0.999795  0.000774718 -1.54006e-05 
         900        10.66     0.999795  0.000774763 -1.53746e-05 
         900      10.7603     0.999796  0.000774806 -1.53481e-05 
         900      10.8611     0.999796  0.000774844 -1.53208e-05 
         900      10.9623     0.999796  0.000774874 -1.52924e-05 
         900      11.0641     0.999796  0.000774896 -1.52628e-05 
         900      11.1663     0.999797   0.00077491 -1.52319e-05 
         900       11.269     0.999797  0.000774916 -1.51999e-05 
         900      11.3721     0.999798  0.000774914 -1.51668e-05 
         900      11.4757     0.999798  0.000774907  -1.5133e-05 
         900      11.5798     0.999798  0.000774895 -1.50986e-05 
         900      11.6844     0.999799   0.00077488  -1.5064e-05 
         900      11.7894     0.999799  0.000774864 -1.50295e-05 
         900       11.895       0.9998  0.000774849 -1.49955e-05 
         900      12.0009       0.9998  0.000774835 -1.49622e-05 
         900      12.1073       0.9998  0.000774825 -1.49298e-05 
         900      12.2142     0.999801  0.000774819 -1.48988e-05 
         900      12.3216     0.999801  0.000774816 -1.48691e-05 
         900      12.4294     0.999801  0.000774819  -1.4841e-05 
         900      12.5378     0.999802  0.000774826 -1.48145e-05 
         900      12.6465     0.999802  0.000774836 -1.47895e-05 
         900      12.7558     0.999802  0.000774849 -1.47659e-05 
         900      12.8656     0.999802  0.000774863 -1.47437e-05 
         900      12.9757     0.999803  0.000774876 -1.47226e-05 
         900      13.0864     0.999803  0.000774887 -1.47024e-05 
         900      13.1975     0.999804  0.000774892 -1.46831e-05 
         900      13.3092     0.999805  0.000774889 -1.46646e-05 
         900      13.4212     0.999805  0.000774874 -1.46471e-05 
         900      13.5338     0.999805  0.000774841 -1.46309e-05 
         900      13.6468     0.999805  0.000774787 -1.46167e-05 
         900      13.7603     0.999806    0.0007748 -1.45717e-05 
         900      13.8743     0.999806   0.00077483 -1.45237e-05 
         900      13.9886     0.999806   0.00077486 -1.44766e-05 
         900      14.1036     0.999807  0.000774887 -1.44299e-05 
         900      14.2189     0.999807  0.000774907 -1.43834e-05 
         900      14.3348     0.999808  0.000774923  -1.4337e-05 
         900       14.451     0.999808  0.000774933 -1.42911e-05 
         900      14.5678     0.999808  0.000774941 -1.42458e-05 
         900      14.6851     0.999809  0.000774948 -1.42014e-05 
         900      14.8028     0.999809  0.000774955 -1.41585e-05 
         900       14.921     0.999809  0.000774965 -1.41173e-05 
         900      15.0396      0.99981  0.000774978 -1.40782e-05 
         900      15.1588      0.99981  0.000774994 -1.40414e-05 
         900      15.2783     0.999811  0.000775014 -1.40073e-05 
         900      15.3984     0.999811  0.000775038 -1.39757e-05 
         900       15.519     0.999811  0.000775063 -1.39468e-05 
         900        15.64     0.999812  0.000775089 -1.39204e-05 
         900      15.7615     0.999812  0.000775114 -1.38962e-05 
         900      15.8834     0.999813  0.000775137 -1.38739e-05 
         900      16.0058     0.999813  0.000775156 -1.38531e-05 
         900      16.1286     0.999814  0.000775169  -1.3833e-05 
         900       16.252     0.999814  0.000775175 -1.38132e-05 
         900      16.3759     0.999814  0.000775173 -1.37928e-05 
         900      16.5002     0.999815  0.000775164 -1.37711e-05 
         900       16.625     0.999815  0.000775147 -1.37473e-05 
         900      16.7501     0.999816  0.000775124 -1.37206e-05 
         900      16.8759     0.999816  0.000775095 -1.36903e-05 
         900       17.002     0.999817  0.000775064 -1.36558e-05 
         900      17.1287     0.999817  0.000775033 -1.36166e-05 
         900      17.2557     0.999817  0.000775004 -1.35724e-05 
         900      17.3834     0.999818  0.000774982 -1.35229e-05 
         900      17.5115     0.999818  0.000774968 -1.34682e-05 
         900      17.6399     0.999819  0.000774966 -1.34089e-05 
         900       17.769     0.999819  0.000774977 -1.33455e-05 
         900      17.8984     0.999819  0.000775004 -1.32792e-05 
         900      18.0284      0.99982  0.000775046 -1.32113e-05 
         900      18.1587      0.99982  0.000775102 -1.31439e-05 
         900      18.2896      0.99982  0.000775168 -1.30792e-05 
         900       18.421     0.999821   0.00077524 -1.30201e-05 
         900      18.5528     0.999821  0.000775311 -1.29698e-05 
         900      18.6851     0.999822  0.000775372 -1.29322e-05 
         900      18.8178     0.999822  0.000775412 -1.29114e-05 
         900      18.9511     0.999823   0.00077542 -1.29123e-05 
         900      19.0847     0.999823  0.000775381   -1.294e-05 
         900      19.2189     0.999824  0.000775283     -1.3e-05 
         900      19.3535     0.999825  0.000775114 -1.30981e-05 
         900      19.4886     0.999825  0.000774867 -1.32406e-05 
         900      19.6242     0.999826  0.000774883 -1.31874e-05 
         900      19.7602     0.999826  0.000775125 -1.29639e-05 
         900      19.8968     0.999826  0.000775281 -1.27811e-05 
         900      20.0337     0.999827  0.000775329 -1.26355e-05 
         900      20.1712     0.999827  0.000775238  -1.2525e-05 
         900      20.3091     0.999828  0.000775271 -1.25357e-05 
         900      20.4475     0.999828  0.000775406 -1.25846e-05 
         900      20.5864     0.999829  0.000775614 -1.26556e-05 
         900      20.7257      0.99983  0.000775886 -1.27406e-05 
         900      20.8655      0.99983  0.000776032 -1.27756e-05 
         900      21.0058      0.99983  0.000775645 -1.26376e-05 
         900      21.1465      0.99983   0.00077535 -1.25164e-05 
         900      21.2877     0.999831   0.00077515 -1.24121e-05 
         900      21.4294     0.999831  0.000775041 -1.23235e-05 
         900      21.5716     0.999831   0.00077501 -1.22496e-05 
         900      21.7142     0.999832  0.000775043 -1.21887e-05 
         900      21.8573     0.999832   0.00077512 -1.21387e-05 
         900      22.0008     0.999833  0.000775225 -1.20977e-05 
         900      22.1449     0.999833  0.000775341 -1.20635e-05 
         900      22.2893     0.999834  0.000775454  -1.2034e-05 
         900      22.4344     0.999834  0.000775553 -1.20073e-05 
         900      22.5797     0.999835  0.000775628 -1.19816e-05 
         900      22.7257     0.999835  0.000775675 -1.19551e-05 
         900      22.8721     0.999836  0.000775692 -1.19265e-05 
         900      23.0189     0.999837  0.000775681 -1.18948e-05 
         900      23.1663     0.999837  0.000775644  -1.1859e-05 
         900       23.314     0.999838  0.000775587 -1.18186e-05 
         900      23.4623     0.999838  0.000775517 -1.17734e-05 
         900       23.611     0.999838  0.000775442 -1.17235e-05 
         900      23.7602     0.999839  0.000775369 -1.16691e-05 
         900        23.91     0.999839  0.000775306 -1.16108e-05 
         900        24.06      0.99984  0.000775259 -1.15493e-05 
         900      24.2107      0.99984  0.000775233 -1.14856e-05 
         900      24.3617     0.999841  0.000775231 -1.14207e-05 
         900      24.5133     0.999841  0.000775253 -1.13556e-05 
         900      24.6653     0.999842  0.000775299 -1.12917e-05 
         900      24.8178     0.999842  0.000775366 -1.12299e-05 
         900      24.9708     0.999843  0.000775448 -1.11712e-05 
         900      25.1242     0.999843  0.000775538 -1.11167e-05 
         900      25.2781     0.999844  0.000775628  -1.1067e-05 
         900      25.4324     0.999844   0.00077571 -1.10226e-05 
         900      25.5873     0.999845  0.000775776 -1.09836e-05 
         900      25.7426     0.999845  0.000775819 -1.09502e-05 
         900      25.8984     0.999846  0.000775833 -1.09217e-05 
         900      26.0546     0.999847  0.000775815 -1.08976e-05 
         900      26.2114     0.999847  0.000775766 -1.08769e-05 
         900      26.3686     0.999848   0.00077569 -1.08581e-05 
         900      26.5262     0.999848  0.000775595 -1.08397e-05 
         900      26.6844     0.999849  0.000775493 -1.08201e-05 
         900      26.8429     0.999849  0.000775399 -1.07974e-05 
         900       27.002      0.99985   0.00077533 -1.07698e-05 
         900      27.1615      0.99985  0.000775304 -1.07358e-05 
         900      27.3216     0.999851  0.000775336 -1.06942e-05 
         900      27.4821     0.999851  0.000775431 -1.06445e-05 
         900       27.643     0.999852  0.000775586 -1.05873e-05 
         900      27.8044     0.999852  0.000775775  -1.0524e-05 
         900      27.9663     0.999853  0.000775946 -1.04581e-05 
         900      28.1287     0.999853  0.000776006 -1.03949e-05 
         900      28.2914     0.999854  0.000775808 -1.03425e-05 
         900      28.4548     0.999854  0.000775138 -1.03119e-05 
         900      28.6185     0.999855  0.000775311  -1.0236e-05 
         900      28.7828     0.999855  0.000775873 -1.01434e-05 
         900      28.9475     0.999856  0.000776084  -1.0074e-05 
         900      29.1126     0.999856  0.000776086 -1.00206e-05 
         900      29.2784     0.999857  0.000775983  -9.9776e-06 
         900      29.4444     0.999857  0.000775846 -9.94053e-06 
         900       29.611     0.999858   0.00077572 -9.90607e-06 
         900       29.778     0.999859  0.000775633 -9.87194e-06 
         900      29.9456      0.99986  0.000775595 -9.83652e-06 
         900      30.1137      0.99986  0.000775607 -9.79894e-06 
         900      30.2821     0.999861  0.000775661 -9.75887e-06 
         900      30.4511     0.999861  0.000775746 -9.71627e-06 
         900      30.6204     0.999862  0.000775848 -9.67153e-06 
         900      30.7903     0.999862  0.000775955 -9.62509e-06 
         900      30.9606     0.999863  0.000776052 -9.57767e-06 
         900      31.1315     0.999863  0.000776131 -9.52985e-06 
         900      31.3028     0.999864  0.000776182 -9.48231e-06 
         900      31.4745     0.999864  0.000776202 -9.43564e-06 
         900      31.6468     0.999865   0.00077619 -9.39021e-06 
         900      31.8194     0.999865  0.000776146 -9.34638e-06 
         900      31.9926     0.999866  0.000776076 -9.30418e-06 
         900      32.1662     0.999867  0.000775984 -9.26362e-06 
         900      32.3404     0.999867  0.000775878 -9.22437e-06 
         900      32.5149     0.999868  0.000775767 -9.18607e-06 
         900        32.69     0.999868  0.000775659 -9.14809e-06 
         900      32.8655     0.999869  0.000775562 -9.10974e-06 
         900      33.0414     0.999869  0.000775484 -9.07026e-06 
         900       33.218      0.99987  0.000775428 -9.02874e-06 
         900      33.3948     0.999871  0.000775399 -8.98439e-06 
         900      33.5723     0.999871  0.000775399 -8.93637e-06 
         900        33.75     0.999872  0.000775427 -8.88406e-06 
         900      33.9284     0.999873  0.000775479  -8.8269e-06 
         900      34.1073     0.999873  0.000775552 -8.76467e-06 
         900      34.2865     0.999874  0.000775639 -8.69751e-06 
         900      34.4663     0.999875  0.000775733 -8.62575e-06 
         900      34.6465     0.999875  0.000775827 -8.55044e-06 
         900      34.8272     0.999876  0.000775914 -8.47288e-06 
         900      35.0083     0.999876  0.000775988 -8.39524e-06 
         900        35.19     0.999877  0.000776044 -8.32006e-06 
         900      35.3721     0.999878  0.000776082 -8.25079e-06 
         900      35.5546     0.999878  0.000776103  -8.1916e-06 
         900      35.7377     0.999879  0.000776111 -8.14731e-06 
         900      35.9211     0.999879  0.000776115 -8.12371e-06 
         900      36.1052      0.99988  0.000776123 -8.12728e-06 
         900      36.2895     0.999881  0.000776147 -8.16535e-06 
         900      36.4745     0.999881  0.000776198 -8.24611e-06 
         900      36.6598     0.999882  0.000776281 -8.37826e-06 
         900      36.8457     0.999882  0.000776332 -8.21091e-06 
         900      37.0321     0.999883  0.000776353  -8.0012e-06 
         900      37.2188     0.999883  0.000776351 -7.80911e-06 
         900      37.4062     0.999884  0.000776327 -7.63313e-06 
         900      37.5938     0.999885  0.000776292  -7.4757e-06 
         900      37.7821     0.999885  0.000776259 -7.34269e-06 
         900      37.9707     0.999886  0.000776255 -7.24514e-06 
         900      38.1599     0.999887  0.000776316 -7.19926e-06 
         900      38.3496     0.999888  0.000776494 -7.22791e-06 
         900      38.5396     0.999888  0.000776711 -7.19166e-06 
         900      38.7302     0.999889  0.000776765 -7.06832e-06 
         900      38.9211     0.999889  0.000776753 -7.01785e-06 
         900      39.1127      0.99989  0.000776689 -7.01855e-06 
         900      39.3046      0.99989  0.000776579 -7.05243e-06 
         900      39.4971     0.999891  0.000776426 -7.10485e-06 
         900      39.6899     0.999891  0.000776228 -7.16402e-06 
         900      39.8833     0.999892  0.000775982 -7.22102e-06 
         900      40.0772     0.999893  0.000775687 -7.26922e-06 
         900      40.2714     0.999894  0.000775338 -7.30415e-06 
         900      40.4663     0.999895  0.000775228 -7.23438e-06 
         900      40.6615     0.999895  0.000775532  -7.0482e-06 
         900      40.8573     0.999896  0.000775775  -6.9047e-06 
         900      41.0534     0.999897  0.000775969 -6.79531e-06 
         900      41.2501     0.999897  0.000776121 -6.71184e-06 
         900      41.4473     0.999898  0.000776236 -6.64724e-06 
         900      41.6448     0.999899  0.000776317 -6.59524e-06 
         900      41.8429     0.999899  0.000776368 -6.55041e-06 
         900      42.0414       0.9999  0.000776393 -6.50837e-06 
         900      42.2405     0.999901  0.000776395 -6.46552e-06 
         900      42.4399     0.999901  0.000776378 -6.41927e-06 
         900      42.6399     0.999902  0.000776348 -6.36772e-06 
         900      42.8404     0.999902   0.00077631 -6.30985e-06 
         900      43.0412     0.999903  0.000776268 -6.24537e-06 
         900      43.2426     0.999903  0.000776229 -6.17446e-06 
         900      43.4444     0.999904  0.000776195 -6.09806e-06 
         900      43.6467     0.999905  0.000776172 -6.01728e-06 
         900      43.8494     0.999905  0.000776162 -5.93384e-06 
         900      44.0527     0.999906  0.000776166 -5.84939e-06 
         900      44.2563     0.999907  0.000776184   -5.766e-06 
         900      44.4606     0.999907  0.000776214 -5.68541e-06 
         900      44.6653     0.999908  0.000776254 -5.60949e-06 
         900      44.8704     0.999909    0.0007763 -5.53988e-06 
         900       45.076     0.999909  0.000776346 -5.47772e-06 
         900       45.282      0.99991  0.000776387 -5.42399e-06 
         900      45.4886     0.999911  0.000776418   -5.379e-06 
         900      45.6955     0.999912  0.000776433 -5.34269e-06 
         900       45.903     0.999912  0.000776428 -5.31435e-06 
         900      46.1111     0.999913    0.0007764 -5.29275e-06 
         900      46.3194     0.999914  0.000776349 -5.27611e-06 
         900      46.5283     0.999914  0.000776277 -5.26212e-06 
         900      46.7376     0.999915  0.000776189 -5.24809e-06 
         900      46.9475     0.999915  0.000776092 -5.23101e-06 
         900      47.1577     0.999916  0.000775998 -5.20778e-06 
         900      47.3685     0.999917  0.000775918 -5.17534e-06 
         900      47.5798     0.999917  0.000775867 -5.13105e-06 
         900      47.7914     0.999918  0.000775859 -5.07299e-06 
         900      48.0037     0.999919  0.000775904 -5.00022e-06 