Variables = x, y, u, v, p

Zone, I=416, F=POINT
         -50            0            0            0      174.562 
         -50     0.013333  0.000342772  4.42786e-08      174.562 
         -50     0.053333  0.000329502  1.32608e-07      174.562 
         -50         0.12  0.000338466  3.40273e-07      174.562 
         -50     0.213332  0.000351679  1.00108e-06      174.562 
         -50     0.333332  0.000360531  2.04408e-06      174.562 
         -50         0.48  0.000366099  3.28892e-06      174.562 
         -50     0.653331  0.000368848  4.74927e-06      174.562 
         -50     0.853332  0.000364985  7.02814e-06      174.562 
         -50         1.08  0.000354609  8.37144e-06      174.561 
         -50      1.33333   0.00034146  9.82665e-06       174.56 
         -50      1.61333  0.000328179   1.1148e-05       174.56 
         -50         1.92  0.000316539  1.28328e-05      174.558 
         -50      2.25333  0.000308695  1.28346e-05      174.557 
         -50      2.61333  0.000301485  1.15217e-05      174.555 
         -50            3   0.00029336  1.11094e-05      174.553 
         -25            0           -0           -0       169.93 
         -25     0.013333  0.000286865  3.63485e-09       169.93 
         -25     0.053333  0.000265334 -1.02319e-07       169.93 
         -25         0.12  0.000266491 -5.62133e-07       169.93 
         -25     0.213332  0.000279027 -1.51965e-06       169.93 
         -25     0.333332  0.000290738 -2.82759e-06       169.93 
         -25         0.48  0.000296691  -4.2516e-06       169.93 
         -25     0.653331  0.000297053 -5.84745e-06       169.93 
         -25     0.853332  0.000293086 -7.21842e-06       169.93 
         -25         1.08  0.000286752 -8.30762e-06       169.93 
         -25      1.33333  0.000279049 -8.79569e-06       169.93 
         -25      1.61333  0.000270762 -8.75347e-06      169.929 
         -25         1.92  0.000263527 -8.12494e-06      169.929 
         -25      2.25333  0.000256745 -6.80291e-06      169.929 
         -25      2.61333  0.000248808 -6.77834e-06      169.928 
         -25            3  0.000241395 -8.90473e-06      169.927 
           0            0            0            0      165.581 
           0     0.013333  0.000776895 -0.000456205      165.585 
           0     0.053333  0.000475433 -0.000237579      165.593 
           0         0.12  0.000374184  -0.00015487      165.601 
           0     0.213332   0.00033192 -0.000117632      165.609 
           0     0.333332  0.000310183 -9.40065e-05      165.618 
           0         0.48  0.000294836  -7.6551e-05      165.626 
           0     0.653331  0.000283427 -6.32953e-05      165.634 
           0     0.853332   0.00027253 -5.30927e-05      165.642 
           0         1.08   0.00026165  -4.5027e-05      165.649 
           0      1.33333  0.000251733  -3.8615e-05      165.657 
           0      1.61333  0.000243014 -3.29394e-05      165.664 
           0         1.92  0.000236131 -2.92124e-05       165.67 
           0      2.25333  0.000236403  -2.5563e-05      165.676 
           0      2.61333  0.000239337 -2.28619e-05      165.682 
           0            3  0.000237499 -2.26508e-05      165.688 
          20            0  0.000204072  1.25607e-05      162.583 
          20     0.013333  0.000195878  1.33039e-05      162.583 
          20     0.053333   0.00017212  1.56584e-05      162.583 
          20         0.12  0.000136379  1.99631e-05      162.583 
          20     0.213332  9.71963e-05  2.67628e-05      162.583 
          20     0.333332   7.0429e-05  3.59487e-05      162.583 
          20         0.48  5.74393e-05  5.15612e-05      162.583 
          20     0.653331  5.49141e-05  6.84167e-05      162.583 
          20     0.853332  6.14464e-05  8.52257e-05      162.583 
          20         1.08  7.38524e-05  0.000100436      162.583 
          20      1.33333  8.89075e-05  0.000112465      162.583 
          20      1.61333  0.000105019  0.000120041      162.583 
          20         1.92  0.000122827  0.000122614      162.583 
          20      2.25333   0.00014392  0.000120683      162.583 
          20      2.61333  0.000167727  0.000115808      162.583 
          20            3  0.000188733  0.000109886      162.583 
          40            0  0.000252613   0.00049018      159.501 
          40     0.013333  0.000180715  0.000499735      159.501 
          40     0.053333 -2.61473e-05   0.00052927      159.501 
          40         0.12 -0.000333568  0.000581629      159.501 
          40     0.213332 -0.000666417  0.000661706      159.501 
          40     0.333332 -0.000918866  0.000774329      159.501 
          40         0.48  -0.00101334   0.00091907      159.501 
          40     0.653331 -0.000995642   0.00108367      159.501 
          40     0.853332 -0.000945509   0.00124755        159.5 
          40         1.08  -0.00090181   0.00138811        159.5 
          40      1.33333 -0.000838915   0.00148806        159.5 
          40      1.61333  -0.00073141   0.00153396      159.499 
          40         1.92 -0.000606493   0.00152125      159.499 
          40      2.25333 -0.000463934   0.00145612      159.498 
          40      2.61333 -0.000322348   0.00135269      159.497 
          40            3 -0.000200964   0.00122893      159.496 
          60            0            0            0      156.345 
          60     0.013333  0.000722153  3.79042e-07      156.345 
          60     0.053333   0.00172218  6.46319e-06      156.345 
          60         0.12    0.0025778  3.41488e-05      156.345 
          60     0.213332   0.00286136  0.000105059      156.345 
          60     0.333332   0.00283647  0.000235166      156.345 
          60         0.48   0.00302546  0.000428534      156.345 
          60     0.653331   0.00334302  0.000664175      156.345 
          60     0.853332   0.00324447  0.000905871      156.345 
          60         1.08   0.00290728   0.00114859      156.345 
          60      1.33333   0.00237367   0.00136796      156.345 
          60      1.61333   0.00161918    0.0015231      156.344 
          60         1.92  0.000840422   0.00159629      156.344 
          60      2.25333  0.000180072   0.00158382      156.344 
          60      2.61333 -0.000275385   0.00150138      156.343 
          60            3 -0.000503804   0.00137374      156.343 
          80            0            0            0      153.152 
          80     0.013333   0.00022295  2.04819e-07      153.152 
          80     0.053333   7.3619e-05  2.68003e-06      153.152 
          80         0.12   -9.826e-05  9.33443e-06      153.152 
          80     0.213332 -0.000153516  1.60674e-05      153.152 
          80     0.333332 -1.95796e-05  1.50995e-05      153.152 
          80         0.48  0.000212284  5.10804e-06      153.152 
          80     0.653331  0.000467044  -4.5549e-06      153.152 
          80     0.853332  0.000757566 -3.94725e-06      153.152 
          80         1.08    0.0009355 -6.15566e-07      153.152 
          80      1.33333  0.000873732 -8.42669e-06      153.152 
          80      1.61333  0.000704647 -2.58096e-05      153.152 
          80         1.92  0.000526347 -4.68938e-05      153.152 
          80      2.25333    0.0003642 -6.83564e-05      153.152 
          80      2.61333  0.000237457 -8.72866e-05      153.152 
          80            3  0.000158595 -0.000102582      153.152 
         100            0           -0           -0      149.984 
         100     0.013333 -0.000110124 -1.59871e-07      149.984 
         100     0.053333 -0.000993262 -3.54872e-06      149.984 
         100         0.12   -0.0017366 -2.28218e-05      149.984 
         100     0.213332  -0.00187392 -7.88986e-05      149.984 
         100     0.333332  -0.00152046 -0.000184371      149.984 
         100         0.48  -0.00115496 -0.000332297      149.984 
         100     0.653331  -0.00103207 -0.000500479      149.984 
         100     0.853332 -0.000879732 -0.000654623      149.984 
         100         1.08 -0.000387951 -0.000769145      149.984 
         100      1.33333  8.20341e-05 -0.000851465      149.984 
         100      1.61333  0.000288441  -0.00091375      149.984 
         100         1.92  0.000429893 -0.000945216      149.984 
         100      2.25333  0.000543003 -0.000936237      149.984 
         100      2.61333  0.000611366 -0.000891479      149.984 
         100            3  0.000622207 -0.000819842      149.984 
         150            0           -0           -0      142.087 
         150     0.013333  0.000230111 -4.07001e-07      142.087 
         150     0.053333  0.000250671 -6.19483e-06      142.087 
         150         0.12  0.000603027 -2.85006e-05      142.087 
         150     0.213332    0.0013085 -7.74471e-05      142.087 
         150     0.333332   0.00209787 -0.000153772      142.087 
         150         0.48   0.00267546 -0.000248419      142.087 
         150     0.653331   0.00294667 -0.000350681      142.087 
         150     0.853332   0.00294838 -0.000455383      142.087 
         150         1.08   0.00269468 -0.000562296      142.087 
         150      1.33333   0.00220301 -0.000669617      142.087 
         150      1.61333   0.00159327 -0.000765697      142.087 
         150         1.92   0.00103722 -0.000834771      142.087 
         150      2.25333  0.000537924 -0.000869428      142.087 
         150      2.61333  0.000111572 -0.000868276      142.086 
         150            3 -0.000188069 -0.000836906      142.086 
         200            0           -0           -0      134.192 
         200     0.013333  0.000239921 -7.86787e-07      134.192 
         200     0.053333  0.000351029 -1.14675e-05      134.192 
         200         0.12  0.000912613  -4.9337e-05      134.192 
         200     0.213332    0.0018027  -0.00012386      134.192 
         200     0.333332   0.00259008 -0.000228291      134.192 
         200         0.48   0.00299715 -0.000349784      134.192 
         200     0.653331   0.00300956 -0.000483323      134.192 
         200     0.853332   0.00266982 -0.000631786      134.192 
         200         1.08   0.00210109 -0.000790431      134.192 
         200      1.33333   0.00156197 -0.000940682      134.192 
         200      1.61333   0.00112016  -0.00106364      134.192 
         200         1.92   0.00067222  -0.00114974      134.192 
         200      2.25333  0.000251584  -0.00119121      134.192 
         200      2.61333 -8.71078e-05  -0.00118387      134.192 
         200            3 -0.000312662  -0.00113307      134.192 
         250            0           -0           -0      126.298 
         250     0.013333  0.000348729 -1.15203e-07      126.298 
         250     0.053333  0.000568633 -1.46073e-06      126.298 
         250         0.12  0.000873418  -4.9247e-06      126.298 
         250     0.213332   0.00111576 -8.40843e-06      126.298 
         250     0.333332   0.00121074 -8.08245e-06      126.298 
         250         0.48   0.00119726 -2.06848e-06      126.298 
         250     0.653331   0.00115367   8.1459e-06      126.298 
         250     0.853332   0.00108898  1.80678e-05      126.298 
         250         1.08  0.000947485  2.25328e-05      126.298 
         250      1.33333  0.000745612  2.06745e-05      126.298 
         250      1.61333  0.000563078  1.68648e-05      126.298 
         250         1.92   0.00039765  1.31876e-05      126.298 
         250      2.25333  0.000244317  9.13848e-06      126.298 
         250      2.61333  0.000112378  5.33661e-06      126.298 
         250            3  1.55175e-05  1.76705e-06      126.298 
         300            0            0            0      118.403 
         300     0.013333  0.000166342 -3.40826e-07      118.403 
         300     0.053333 -1.51423e-07  -5.2655e-06      118.403 
         300         0.12    7.069e-05 -2.45816e-05      118.403 
         300     0.213332  0.000459399 -6.74482e-05      118.403 
         300     0.333332  0.000959449 -0.000134816      118.403 
         300         0.48   0.00130494 -0.000219706      118.403 
         300     0.653331   0.00139072 -0.000314583      118.403 
         300     0.853332     0.001267 -0.000414519      118.403 
         300         1.08   0.00106858 -0.000513291      118.403 
         300      1.33333  0.000906574 -0.000603272      118.403 
         300      1.61333  0.000767367 -0.000679426      118.403 
         300         1.92  0.000611515 -0.000737431      118.403 
         300      2.25333  0.000446165 -0.000771588      118.403 
         300      2.61333  0.000289528 -0.000778472      118.403 
         300            3  0.000159845 -0.000758281      118.403 
         350            0           -0           -0      110.509 
         350     0.013333  2.05965e-05 -9.71111e-08      110.509 
         350     0.053333 -0.000597569  -1.7202e-06      110.509 
         350         0.12  -0.00124529 -9.43091e-06      110.509 
         350     0.213332  -0.00163903 -3.02692e-05      110.509 
         350     0.333332  -0.00169908 -7.01465e-05      110.509 
         350         0.48  -0.00154924 -0.000131326      110.509 
         350     0.653331  -0.00138139 -0.000213364      110.509 
         350     0.853332  -0.00132096 -0.000313561      110.509 
         350         1.08  -0.00131722 -0.000423662      110.509 
         350      1.33333  -0.00119172 -0.000529694      110.509 
         350      1.61333 -0.000913362 -0.000621801      110.509 
         350         1.92 -0.000593728  -0.00069689      110.509 
         350      2.25333  -0.00026007 -0.000749897      110.509 
         350      2.61333   6.7074e-05 -0.000776557      110.509 
         350            3  0.000351181  -0.00077524      110.509 
         400            0   5.4888e-19 -5.69756e-27      102.618 
         400     0.013333  0.000980896 -5.63741e-07      102.618 
         400     0.053333   0.00294613 -7.25435e-06      102.618 
         400         0.12   0.00555658 -2.46507e-05      102.618 
         400     0.213332   0.00777131 -4.00625e-05      102.618 
         400     0.333332   0.00883762 -2.59317e-05      102.618 
         400         0.48   0.00884372  3.79213e-05      102.618 
         400     0.653331   0.00837515  0.000148943      102.618 
         400     0.853332   0.00778822  0.000286342      102.618 
         400         1.08   0.00701003  0.000425884      102.618 
         400      1.33333   0.00596124   0.00055472      102.618 
         400      1.61333   0.00477677  0.000672957      102.618 
         400         1.92   0.00351847  0.000778622      102.618 
         400      2.25333   0.00219022  0.000862971      102.618 
         400      2.61333  0.000875561  0.000919255      102.618 
         400            3 -0.000279945  0.000943399      102.617 
         450            0            0            0      94.7222 
         450     0.013333 -0.000188906 -7.92182e-07      94.7222 
         450     0.053333  -0.00113976  -1.2398e-05      94.7222 
         450         0.12  -0.00167163 -5.90488e-05      94.7222 
         450     0.213332  -0.00129437 -0.000166254      94.7222 
         450     0.333332  -0.00033128 -0.000342289      94.7222 
         450         0.48   0.00052805 -0.000574997      94.7222 
         450     0.653331  0.000862697 -0.000847219      94.7222 
         450     0.853332  0.000643541  -0.00114766      94.7222 
         450         1.08  0.000133429  -0.00146246      94.7222 
         450      1.33333 -0.000215958  -0.00176517      94.7222 
         450      1.61333 -0.000217927   -0.0020297      94.7222 
         450         1.92 -0.000128325  -0.00224468      94.7222 
         450      2.25333 -4.54151e-05  -0.00239806      94.7222 
         450      2.61333  3.35714e-05  -0.00247698      94.7222 
         450            3  0.000116394  -0.00247372      94.7222 
         500            0            0            0      86.8279 
         500     0.013333  8.05593e-05  7.66452e-07      86.8279 
         500     0.053333 -0.000637435  1.11564e-05      86.8279 
         500         0.12  -0.00202146  4.80889e-05      86.8279 
         500     0.213332  -0.00381681  0.000121301      86.8279 
         500     0.333332  -0.00541264  0.000223798      86.8279 
         500         0.48  -0.00636873   0.00033858      86.8279 
         500     0.653331  -0.00668476  0.000453274      86.8279 
         500     0.853332  -0.00654545  0.000567633      86.8279 
         500         1.08  -0.00601566  0.000689656      86.8279 
         500      1.33333  -0.00514024  0.000822249      86.8279 
         500      1.61333  -0.00413286   0.00095426      86.8279 
         500         1.92  -0.00312729   0.00106961       86.828 
         500      2.25333  -0.00206778   0.00115991       86.828 
         500      2.61333 -0.000971627   0.00121782      86.8281 
         500            3  5.73802e-05   0.00123795      86.8281 
         550            0            0            0      78.9386 
         550     0.013333 -9.17906e-05 -1.18086e-06      78.9386 
         550     0.053333 -0.000648373 -1.82121e-05      78.9386 
         550         0.12 -0.000314538 -8.54392e-05      78.9386 
         550     0.213332   0.00138489 -0.000238006      78.9386 
         550     0.333332    0.0038185 -0.000486696      78.9386 
         550         0.48   0.00588478 -0.000811962      78.9386 
         550     0.653331   0.00694869  -0.00118394      78.9386 
         550     0.853332   0.00702223  -0.00158242      78.9386 
         550         1.08    0.0064246  -0.00199545      78.9386 
         550      1.33333   0.00555584  -0.00240644      78.9386 
         550      1.61333   0.00469224  -0.00279289      78.9386 
         550         1.92    0.0038321  -0.00313334      78.9386 
         550      2.25333   0.00289242  -0.00340607      78.9386 
         550      2.61333   0.00188552  -0.00358984      78.9386 
         550            3  0.000902376   -0.0036681      78.9385 
         600            0            0            0      71.0433 
         600     0.013333   0.00107641  1.68653e-06      71.0433 
         600     0.053333   0.00264009  2.61622e-05      71.0433 
         600         0.12   0.00320252  0.000123704      71.0433 
         600     0.213332    0.0017264   0.00034774      71.0433 
         600     0.333332  -0.00113479  0.000718555      71.0433 
         600         0.48  -0.00384606   0.00121365      71.0433 
         600     0.653331  -0.00536112   0.00179528      71.0433 
         600     0.853332   -0.0054953   0.00243801      71.0433 
         600         1.08  -0.00460508   0.00312338      71.0433 
         600      1.33333  -0.00342834   0.00381603      71.0433 
         600      1.61333  -0.00260717   0.00446674      71.0433 
         600         1.92  -0.00204698   0.00503937      71.0433 
         600      2.25333  -0.00146584   0.00550519      71.0434 
         600      2.61333  -0.00081381   0.00583197      71.0434 
         600            3 -0.000178447   0.00599126      71.0434 
         650            0            0            0      63.1498 
         650     0.013333  -0.00065332 -6.88425e-07      63.1498 
         650     0.053333  -0.00286465 -1.10631e-05      63.1498 
         650         0.12  -0.00504308 -5.48995e-05      63.1498 
         650     0.213332  -0.00608856 -0.000162947      63.1498 
         650     0.333332  -0.00581332 -0.000356425      63.1498 
         650         0.48  -0.00482773 -0.000637351      63.1498 
         650     0.653331  -0.00388586 -0.000995395      63.1498 
         650     0.853332  -0.00345609  -0.00141954      63.1498 
         650         1.08  -0.00360733  -0.00189671      63.1498 
         650      1.33333  -0.00390717  -0.00239788      63.1498 
         650      1.61333  -0.00375304  -0.00287899      63.1498 
         650         1.92  -0.00313574  -0.00330827      63.1498 
         650      2.25333  -0.00236753  -0.00366834      63.1498 
         650      2.61333  -0.00156665  -0.00393794      63.1498 
         650            3 -0.000739697  -0.00409614      63.1499 
         700            0           -0           -0      55.2587 
         700     0.013333  4.61587e-05  -8.5089e-07      55.2587 
         700     0.053333 -0.000242468 -1.31392e-05      55.2587 
         700         0.12  0.000212166 -6.19011e-05      55.2587 
         700     0.213332    0.0017879 -0.000173811      55.2587 
         700     0.333332   0.00403227 -0.000359142      55.2587 
         700         0.48   0.00606123 -0.000605315      55.2587 
         700     0.653331   0.00728359 -0.000889385      55.2587 
         700     0.853332   0.00763489  -0.00119405      55.2587 
         700         1.08   0.00733959   -0.0015101      55.2587 
         700      1.33333   0.00669353  -0.00182799      55.2587 
         700      1.61333   0.00590853  -0.00213574      55.2587 
         700         1.92   0.00502992  -0.00242074      55.2587 
         700      2.25333   0.00404454  -0.00266757      55.2587 
         700      2.61333   0.00296285  -0.00285897      55.2586 
         700            3    0.0018392  -0.00297907      55.2586 
         750            0            0            0      47.3662 
         750     0.013333   0.00137592 -2.11853e-07      47.3662 
         750     0.053333   0.00432739 -2.05601e-06      47.3662 
         750         0.12   0.00808121 -1.66008e-06      47.3662 
         750     0.213332    0.0112158  2.05618e-05      47.3662 
         750     0.333332    0.0127876  9.46517e-05      47.3662 
         750         0.48    0.0128778  0.000241959      47.3662 
         750     0.653331    0.0122585  0.000463114      47.3663 
         750     0.853332    0.0116221  0.000742339      47.3663 
         750         1.08    0.0111189   0.00105502      47.3663 
         750      1.33333    0.0104188   0.00137213      47.3663 
         750      1.61333   0.00922309   0.00166833      47.3662 
         750         1.92   0.00768156   0.00193403      47.3662 
         750      2.25333   0.00598962   0.00216371      47.3662 
         750      2.61333   0.00420083   0.00234568      47.3661 
         750            3   0.00235508   0.00246654       47.366 
         800            0            0            0      39.4663 
         800     0.013333  0.000295453  1.25245e-06      39.4663 
         800     0.053333 -4.03051e-05   1.8801e-05      39.4663 
         800         0.12  -0.00143449  8.49553e-05      39.4663 
         800     0.213332  -0.00396543  0.000227096      39.4663 
         800     0.333332  -0.00676889  0.000446031      39.4663 
         800         0.48  -0.00879595  0.000717332      39.4663 
         800     0.653331  -0.00962706    0.0010143      39.4663 
         800     0.853332  -0.00944081   0.00132611      39.4663 
         800         1.08   -0.0085494    0.0016543      39.4663 
         800      1.33333  -0.00727379    0.0019948      39.4663 
         800      1.61333  -0.00597494   0.00233009      39.4663 
         800         1.92  -0.00482227   0.00263884      39.4664 
         800      2.25333     -0.00367    0.0029047      39.4664 
         800      2.61333    -0.002434   0.00311277      39.4665 
         800            3  -0.00115872   0.00324784      39.4665 
         850            0            0            0      31.5738 
         850     0.013333 -0.000982868 -8.64344e-07      31.5738 
         850     0.053333  -0.00395057 -1.43772e-05      31.5738 
         850         0.12  -0.00671175   -7.449e-05      31.5738 
         850     0.213332  -0.00757615 -0.000230184      31.5738 
         850     0.333332  -0.00629806 -0.000518553      31.5738 
         850         0.48  -0.00405394 -0.000940787      31.5738 
         850     0.653331  -0.00224386  -0.00146806      31.5738 
         850     0.853332  -0.00152367  -0.00206578      31.5738 
         850         1.08  -0.00170467  -0.00270273      31.5738 
         850      1.33333  -0.00206026  -0.00334262      31.5738 
         850      1.61333  -0.00195641  -0.00394702      31.5738 
         850         1.92  -0.00147085  -0.00449333      31.5738 
         850      2.25333 -0.000943341  -0.00496902      31.5739 
         850      2.61333  -0.00046647  -0.00534992      31.5739 
         850            3  7.56481e-06  -0.00560749      31.5739 
         900            0  7.28063e-19 -3.03561e-26      23.6863 
         900     0.013333    0.0014969  -9.5241e-07      23.6863 
         900     0.053333    0.0049941 -1.28918e-05      23.6863 
         900         0.12   0.00997068  -4.8793e-05      23.6863 
         900     0.213332    0.0148328 -9.98968e-05      23.6863 
         900     0.333332    0.0180439 -0.000131558      23.6863 
         900         0.48    0.0191961 -0.000108408      23.6863 
         900     0.653331    0.0190202 -2.04312e-05      23.6863 
         900     0.853332     0.018402  0.000113903      23.6863 
         900         1.08    0.0175552  0.000259019      23.6864 
         900      1.33333     0.016102  0.000378419      23.6863 
         900      1.61333    0.0139126  0.000456597      23.6863 
         900         1.92     0.011508  0.000509957      23.6863 
         900      2.25333   0.00909769  0.000552543      23.6862 
         900      2.61333   0.00660585  0.000586022      23.6861 
         900            3   0.00398759   0.00060548       23.686 
         950            0            0            0      15.7865 
         950     0.013333  0.000570257  1.00369e-06      15.7865 
         950     0.053333   0.00104333  1.52016e-05      15.7865 
         950         0.12  0.000876286  6.96121e-05      15.7865 
         950     0.213332 -0.000311009  0.000189315      15.7865 
         950     0.333332  -0.00204234  0.000379682      15.7865 
         950         0.48  -0.00350224   0.00062562      15.7865 
         950     0.653331  -0.00423568  0.000908479      15.7865 
         950     0.853332   -0.0042273   0.00122126      15.7865 
         950         1.08  -0.00358513    0.0015668      15.7865 
         950      1.33333  -0.00251874   0.00194142      15.7865 
         950      1.61333   -0.0014938    0.0023221      15.7865 
         950         1.92 -0.000912489   0.00267573      15.7865 
         950      2.25333 -0.000545943    0.0029869      15.7865 
         950      2.61333 -0.000184567   0.00324157      15.7865 
         950            3  0.000195591   0.00342531      15.7866 
        1000            0            0            0      7.89302 
        1000     0.013333 -0.000372748 -3.36837e-07      7.89302 
        1000     0.053333   -0.0019321 -5.75614e-06      7.89302 
        1000         0.12   -0.0034634 -3.10883e-05      7.89302 
        1000     0.213332  -0.00408612 -9.97886e-05      7.89302 
        1000     0.333332  -0.00358606 -0.000231624      7.89302 
        1000         0.48  -0.00250377  -0.00042911      7.89301 
        1000     0.653331  -0.00157865 -0.000678057      7.89301 
        1000     0.853332  -0.00119848 -0.000959757      7.89301 
        1000         1.08   -0.0012866  -0.00125738      7.89301 
        1000      1.33333  -0.00145358  -0.00155226      7.89301 
        1000      1.61333  -0.00133201    -0.001825      7.89301 
        1000         1.92 -0.000952074  -0.00206772      7.89302 
        1000      2.25333 -0.000564869  -0.00227839      7.89303 
        1000      2.61333 -0.000236787   -0.0024514      7.89305 
        1000            3  8.42603e-05  -0.00257608      7.89308 
