Variables = x, y, u, v, p

Zone, I=800, F=POINT
         850            0            0            0  -2.5085e-05 
         850     0.000117  3.56488e-05  8.42251e-13  -2.5085e-05 
         850     0.000469    0.0001429  1.39791e-11  -2.5085e-05 
         850     0.001056  0.000321754  7.12866e-11 -2.50849e-05 
         850     0.001879  0.000572514  2.26162e-10 -2.50848e-05 
         850     0.002936  0.000894573  5.52695e-10 -2.50846e-05 
         850     0.004228   0.00128823  1.14674e-09 -2.50845e-05 
         850     0.005755    0.0017535  2.12528e-09 -2.50843e-05 
         850     0.007518   0.00229067  3.62755e-09 -2.50841e-05 
         850     0.009515   0.00289913  5.81143e-09 -2.50838e-05 
         850     0.011746    0.0035789  8.85698e-09 -2.50835e-05 
         850     0.014214   0.00433088  1.29708e-08 -2.50832e-05 
         850     0.016915   0.00515385  1.83696e-08 -2.50828e-05 
         850     0.019853   0.00604903  2.53061e-08 -2.50825e-05 
         850     0.023023    0.0070149  3.40337e-08 -2.50821e-05 
         850     0.026431   0.00805329  4.48562e-08 -2.50816e-05 
         850     0.030075   0.00916358  5.80783e-08 -2.50812e-05 
         850      0.03395    0.0103443  7.40096e-08 -2.50807e-05 
         850     0.038063    0.0115975  9.30292e-08 -2.50801e-05 
         850     0.042408    0.0129213  1.15481e-07 -2.50796e-05 
         850     0.046991    0.0143177  1.41791e-07  -2.5079e-05 
         850     0.051805    0.0157845  1.72331e-07 -2.50784e-05 
         850     0.056859    0.0173244  2.07596e-07 -2.50777e-05 
         850     0.062143    0.0189344  2.47974e-07  -2.5077e-05 
         850     0.067666    0.0206172   2.9401e-07 -2.50763e-05 
         850     0.073425    0.0223719  3.46186e-07 -2.50756e-05 
         850     0.079413    0.0241964  4.04952e-07 -2.50748e-05 
         850     0.085642    0.0260943   4.7097e-07  -2.5074e-05 
         850       0.0921    0.0280619  5.44674e-07 -2.50732e-05 
         850     0.098799     0.030103  6.26788e-07 -2.50723e-05 
         850     0.105727    0.0322139  7.17771e-07 -2.50714e-05 
         850     0.112896    0.0343981  8.18406e-07 -2.50705e-05 
         850       0.1203     0.036654  9.29268e-07 -2.50696e-05 
         850     0.127932    0.0389793  1.05091e-06 -2.50686e-05 
         850     0.135806    0.0413783  1.18425e-06 -2.50676e-05 
         850     0.143909    0.0438471  1.32977e-06 -2.50665e-05 
         850     0.152253    0.0463893  1.48843e-06 -2.50655e-05 
         850     0.160825    0.0490009  1.66074e-06 -2.50644e-05 
         850     0.169639    0.0516862  1.84774e-06 -2.50632e-05 
         850     0.178688     0.054443  2.05011e-06 -2.50621e-05 
         850     0.187965    0.0572692  2.26848e-06 -2.50609e-05 
         850     0.197484    0.0601692  2.50403e-06 -2.50597e-05 
         850      0.20723    0.0631382  2.75724e-06 -2.50584e-05 
         850      0.21722    0.0661814  3.02945e-06 -2.50571e-05 
         850     0.227436    0.0692934  3.32105e-06 -2.50558e-05 
         850     0.237895    0.0724793  3.63347e-06 -2.50545e-05 
         850     0.248581    0.0757342  3.96715e-06 -2.50531e-05 
         850      0.25951     0.079063  4.32356e-06 -2.50517e-05 
         850     0.270675    0.0824636   4.7035e-06 -2.50503e-05 
         850     0.282065    0.0859324  5.10756e-06 -2.50488e-05 
         850       0.2937    0.0894757  5.53748e-06 -2.50473e-05 
         850      0.30556    0.0930873  5.99356e-06 -2.50458e-05 
         850     0.317665    0.0967732  6.47764e-06 -2.50442e-05 
         850     0.329995     0.100527  6.99001e-06 -2.50427e-05 
         850     0.342569     0.104355  7.53257e-06 -2.50411e-05 
         850     0.355379     0.108255  8.10612e-06 -2.50394e-05 
         850     0.368414     0.112223  8.71131e-06 -2.50377e-05 
         850     0.381693     0.116264  9.35016e-06  -2.5036e-05 
         850     0.395198     0.120374   1.0023e-05 -2.50343e-05 
         850     0.408948     0.124557   1.0732e-05 -2.50325e-05 
         850     0.422921     0.128808  1.14772e-05 -2.50307e-05 
         850     0.437141     0.133134  1.22611e-05 -2.50289e-05 
         850     0.451585     0.137526  1.30838e-05 -2.50271e-05 
         850     0.466275     0.141993  1.39478e-05 -2.50252e-05 
         850       0.4812      0.14653  1.48537e-05 -2.50233e-05 
         850     0.496348     0.151134  1.58022e-05 -2.50213e-05 
         850     0.511744     0.155812  1.67961e-05 -2.50193e-05 
         850     0.527361     0.160556  1.78349e-05 -2.50173e-05 
         850     0.543227     0.165375   1.8922e-05 -2.50153e-05 
         850     0.559314     0.170259  2.00568e-05 -2.50132e-05 
         850      0.57565     0.175217  2.12426e-05 -2.50111e-05 
         850      0.59222     0.180244  2.24799e-05  -2.5009e-05 
         850     0.609012     0.185337  2.37692e-05 -2.50068e-05 
         850     0.626053     0.190503  2.51139e-05 -2.50046e-05 
         850     0.643315     0.195734  2.65132e-05 -2.50024e-05 
         850     0.660826     0.201038  2.79709e-05 -2.50001e-05 
         850     0.678557     0.206406  2.94861e-05 -2.49978e-05 
         850     0.696538     0.211846  3.10627e-05 -2.49955e-05 
         850     0.714754     0.217355   3.2701e-05 -2.49931e-05 
         850      0.73319     0.222927  3.44012e-05 -2.49907e-05 
         850     0.751876     0.228571  3.61674e-05 -2.49883e-05 
         850     0.770782     0.234277  3.79985e-05 -2.49858e-05 
         850     0.789937     0.240055  3.98986e-05 -2.49833e-05 
         850     0.809313     0.245894  4.18666e-05 -2.49808e-05 
         850     0.828939     0.251804   4.3907e-05 -2.49782e-05 
         850     0.848784     0.257775   4.6018e-05 -2.49756e-05 
         850      0.86888     0.263816  4.82046e-05  -2.4973e-05 
         850     0.889212     0.269921  5.04667e-05 -2.49703e-05 
         850     0.909761     0.276086  5.28037e-05 -2.49676e-05 
         850     0.930563     0.282319  5.52212e-05 -2.49648e-05 
         850     0.951582      0.28861  5.77165e-05  -2.4962e-05 
         850     0.972854     0.294969  6.02954e-05 -2.49592e-05 
         850     0.994343     0.301385  6.29551e-05 -2.49563e-05 
         850      1.01608     0.307867  6.57012e-05 -2.49534e-05 
         850      1.03806      0.31441  6.85335e-05 -2.49504e-05 
         850      1.06025     0.321007  7.14507e-05 -2.49474e-05 
         850       1.0827     0.327669   7.4459e-05 -2.49443e-05 
         850      1.10536     0.334384  7.75552e-05 -2.49413e-05 
         850      1.12828     0.341162  8.07454e-05 -2.49381e-05 
         850      1.15142     0.347991  8.40261e-05  -2.4935e-05 
         850       1.1748     0.354881  8.74036e-05 -2.49318e-05 
         850      1.19842     0.361826   9.0877e-05 -2.49285e-05 
         850      1.22226     0.368819  9.44444e-05 -2.49252e-05 
         850      1.24635     0.375871  9.81129e-05 -2.49218e-05 
         850      1.27066     0.382968  0.000101878 -2.49184e-05 
         850      1.29522     0.390122  0.000105746  -2.4915e-05 
         850         1.32      0.39732  0.000109713 -2.49115e-05 
         850      1.34503     0.404571  0.000113785 -2.49079e-05 
         850      1.37028     0.411863  0.000117958 -2.49043e-05 
         850      1.39578     0.419207  0.000122238 -2.49006e-05 
         850      1.42152     0.426595  0.000126625 -2.48969e-05 
         850      1.44747     0.434019  0.000131113 -2.48931e-05 
         850      1.47368     0.441491  0.000135713 -2.48893e-05 
         850       1.5001     0.448996  0.000140418 -2.48855e-05 
         850      1.52677     0.456545  0.000145233 -2.48819e-05 
         850      1.55367     0.464125  0.000150152 -2.48782e-05 
         850      1.58081     0.471745  0.000155185 -2.48741e-05 
         850       1.6082     0.479398  0.000160327 -2.48699e-05 
         850      1.63579     0.487075  0.000165575 -2.48656e-05 
         850      1.66364     0.494787  0.000170937 -2.48612e-05 
         850      1.69171     0.502521  0.000176404 -2.48567e-05 
         850      1.72003     0.510285  0.000181986 -2.48521e-05 
         850      1.74857     0.518065  0.000187674 -2.48475e-05 
         850      1.77736     0.525873  0.000193475 -2.48429e-05 
         850      1.80636     0.533692  0.000199381 -2.48382e-05 
         850      1.83563     0.541534    0.0002054 -2.48336e-05 
         850      1.86512     0.549389  0.000211527 -2.48289e-05 
         850      1.89484     0.557249  0.000217755 -2.48241e-05 
         850       1.9248     0.565124  0.000224094 -2.48194e-05 
         850      1.95498     0.572998  0.000230533 -2.48145e-05 
         850      1.98542     0.580883   0.00023708 -2.48097e-05 
         850      2.01607     0.588761  0.000243724 -2.48047e-05 
         850      2.04698     0.596644  0.000250473 -2.47997e-05 
         850      2.07812     0.604522  0.000257321 -2.47945e-05 
         850      2.10947     0.612386   0.00026426 -2.47893e-05 
         850      2.14109     0.620246  0.000271299 -2.47839e-05 
         850      2.17291     0.628085  0.000278425 -2.47784e-05 
         850      2.20499     0.635914  0.000285647 -2.47727e-05 
         850      2.23728     0.643718  0.000292951 -2.47669e-05 
         850      2.26984     0.651504  0.000300345 -2.47609e-05 
         850      2.30263     0.659265  0.000307821 -2.47548e-05 
         850      2.33562      0.66699   0.00031537 -2.47485e-05 
         850      2.36888     0.674689  0.000323002 -2.47421e-05 
         850      2.40235     0.682345  0.000330699 -2.47355e-05 
         850      2.43608     0.689969  0.000338471 -2.47288e-05 
         850      2.47002     0.697545  0.000346302  -2.4722e-05 
         850      2.50421     0.705081  0.000354201  -2.4715e-05 
         850      2.53862     0.712562  0.000362149 -2.47079e-05 
         850      2.57329     0.719996  0.000370158 -2.47007e-05 
         850      2.60819     0.727375  0.000378214 -2.46934e-05 
         850       2.6433     0.734689  0.000386307  -2.4686e-05 
         850      2.67868     0.741946  0.000394446 -2.46786e-05 
         850      2.71426     0.749132  0.000402612  -2.4671e-05 
         850       2.7501     0.756255  0.000410813 -2.46634e-05 
         850      2.78615       0.7633  0.000419032 -2.46558e-05 
         850      2.82247     0.770274  0.000427275 -2.46481e-05 
         850      2.85902      0.77717   0.00043553 -2.46403e-05 
         850      2.89577     0.783979  0.000443786 -2.46325e-05 
         850      2.93279     0.790708  0.000452049 -2.46245e-05 
         850      2.97002     0.797344  0.000460302 -2.46164e-05 
         850       3.0075     0.803894   0.00046855 -2.46083e-05 
         850       3.0452     0.810346  0.000476776 -2.45999e-05 
         850      3.08316     0.816705  0.000484986 -2.45914e-05 
         850      3.12135     0.822966  0.000493167 -2.45826e-05 
         850      3.15975     0.829119  0.000501308 -2.45736e-05 
         850      3.19842     0.835173  0.000509415 -2.45644e-05 
         850      3.23728     0.841115   0.00051747 -2.45548e-05 
         850      3.27642     0.846952  0.000525479 -2.45449e-05 
         850      3.31576     0.852674  0.000533424 -2.45347e-05 
         850      3.35536     0.858286  0.000541311 -2.45242e-05 
         850      3.39517     0.863779  0.000549123 -2.45134e-05 
         850      3.43525     0.869159  0.000556865 -2.45024e-05 
         850      3.47555     0.874421  0.000564526 -2.44914e-05 
         850      3.51607     0.879558  0.000572094 -2.44804e-05 
         850      3.55685     0.884578  0.000579574 -2.44698e-05 
         850      3.59783     0.889471  0.000586948 -2.44598e-05 
         850      3.63908     0.894244  0.000594223 -2.44507e-05 
         850      3.68053     0.898889  0.000601378 -2.44432e-05 
         850      3.72225     0.903412  0.000608419 -2.44377e-05 
         850      3.76421      0.90781  0.000615352 -2.44319e-05 
         850      3.80636     0.912077  0.000622186 -2.44204e-05 
         850      3.84879     0.916223  0.000628888 -2.44085e-05 
         850      3.89142     0.920239  0.000635446 -2.43962e-05 
         850      3.93431     0.924133  0.000641867 -2.43836e-05 
         850      3.97741     0.927898  0.000648141 -2.43708e-05 
         850      4.02077     0.931542  0.000654275 -2.43576e-05 
         850      4.06434     0.935057  0.000660257 -2.43443e-05 
         850      4.10817     0.938453  0.000666095 -2.43307e-05 
         850      4.15224     0.941725  0.000671782 -2.43169e-05 
         850      4.19651     0.944874  0.000677313 -2.43029e-05 
         850      4.24106     0.947905  0.000682694 -2.42887e-05 
         850       4.2858     0.950816  0.000687916 -2.42744e-05 
         850      4.33081     0.953611  0.000692986 -2.42599e-05 
         850      4.37602      0.95629  0.000697895 -2.42452e-05 
         850       4.4215     0.958858   0.00070265 -2.42304e-05 
         850      4.46721     0.961314  0.000707246 -2.42154e-05 
         850      4.51313      0.96366  0.000711681 -2.42003e-05 
         850      4.55931     0.965901  0.000715962  -2.4185e-05 
         850       4.6057     0.968037  0.000720082 -2.41696e-05 
         850      4.65235     0.970072   0.00072405  -2.4154e-05 
         850      4.69921     0.972006  0.000727859 -2.41383e-05 
         850      4.74633     0.973845  0.000731517 -2.41225e-05 
         850      4.79369     0.975591  0.000735024 -2.41066e-05 
         850      4.84125     0.977244   0.00073838 -2.40906e-05 
         850      4.88908      0.97881  0.000741591 -2.40747e-05 
         850      4.93711      0.98029  0.000744656 -2.40588e-05 
         850      4.98541     0.981688  0.000747582  -2.4043e-05 
         850      5.03391     0.983005   0.00075037 -2.40275e-05 
         850      5.08268     0.984247  0.000753026 -2.40124e-05 
         850      5.13165     0.985414  0.000755548 -2.39975e-05 
         850      5.18089     0.986511  0.000757908 -2.39776e-05 
         850      5.23037      0.98754  0.000760148 -2.39582e-05 
         850      5.28004     0.988503  0.000762268 -2.39391e-05 
         850      5.32999     0.989404  0.000764274 -2.39205e-05 
         850      5.38013     0.990245  0.000766166 -2.39022e-05 
         850      5.43055     0.991031  0.000767951 -2.38843e-05 
         850      5.48116     0.991762  0.000769629 -2.38667e-05 
         850      5.53204     0.992442  0.000771207 -2.38494e-05 
         850      5.58317     0.993074  0.000772687 -2.38325e-05 
         850      5.63448     0.993659  0.000774072 -2.38159e-05 
         850      5.68607     0.994202  0.000775367 -2.37995e-05 
         850      5.73786     0.994703  0.000776575 -2.37833e-05 
         850      5.78992     0.995166  0.000777702 -2.37674e-05 
         850      5.84218     0.995593   0.00077875 -2.37515e-05 
         850      5.89471     0.995985  0.000779723 -2.37357e-05 
         850      5.94748     0.996346  0.000780626   -2.372e-05 
         850      6.00044     0.996677  0.000781461 -2.37042e-05 
         850      6.05367     0.996981  0.000782233 -2.36883e-05 
         850       6.1071     0.997258  0.000782944 -2.36723e-05 
         850      6.16081     0.997511  0.000783599 -2.36561e-05 
         850      6.21471     0.997742    0.0007842 -2.36396e-05 
         850      6.26889     0.997952  0.000784752 -2.36228e-05 
         850      6.32326     0.998143  0.000785257 -2.36056e-05 
         850       6.3779     0.998316  0.000785718 -2.35881e-05 
         850      6.43279     0.998473  0.000786138   -2.357e-05 
         850      6.48786     0.998615   0.00078652 -2.35515e-05 
         850      6.54321     0.998743  0.000786867 -2.35325e-05 
         850      6.59876     0.998858  0.000787181  -2.3513e-05 
         850      6.65458     0.998962  0.000787466  -2.3493e-05 
         850      6.71059     0.999055  0.000787724 -2.34725e-05 
         850      6.76689     0.999139  0.000787957 -2.34515e-05 
         850      6.82341     0.999213  0.000788168 -2.34302e-05 
         850      6.88013      0.99928   0.00078836 -2.34084e-05 
         850      6.93713      0.99934  0.000788534 -2.33864e-05 
         850      6.99432     0.999393  0.000788692 -2.33641e-05 
         850      7.05178      0.99944  0.000788836 -2.33417e-05 
         850      7.10944     0.999481  0.000788967 -2.33193e-05 
         850      7.16738     0.999518  0.000789086 -2.32969e-05 
         850      7.22551     0.999551  0.000789192 -2.32748e-05 
         850      7.28391      0.99958  0.000789285 -2.32528e-05 
         850      7.34256     0.999604  0.000789362 -2.32313e-05 
         850      7.40139     0.999626   0.00078942 -2.32102e-05 
         850       7.4605     0.999646  0.000789477 -2.31918e-05 
         850       7.5198     0.999663  0.000789533 -2.31734e-05 
         850      7.57939     0.999678  0.000789584  -2.3155e-05 
         850      7.63916     0.999691   0.00078963 -2.31366e-05 
         850      7.69921     0.999702   0.00078967 -2.31181e-05 
         850       7.7595     0.999712  0.000789705 -2.30994e-05 
         850      7.81998      0.99972  0.000789733 -2.30806e-05 
         850      7.88073     0.999727  0.000789756 -2.30616e-05 
         850      7.94168     0.999734  0.000789774 -2.30425e-05 
         850      8.00291     0.999739  0.000789788 -2.30231e-05 
         850      8.06432     0.999744  0.000789799 -2.30036e-05 
         850      8.12602     0.999749  0.000789806 -2.29838e-05 
         850      8.18796     0.999752  0.000789812 -2.29639e-05 
         850      8.25008     0.999756  0.000789816 -2.29438e-05 
         850      8.31248     0.999759  0.000789819 -2.29235e-05 
         850      8.37507     0.999761  0.000789821  -2.2903e-05 
         850      8.43794     0.999763  0.000789824 -2.28823e-05 
         850        8.501     0.999765  0.000789826 -2.28616e-05 
         850      8.56434     0.999767  0.000789829 -2.28406e-05 
         850      8.62787     0.999768  0.000789832 -2.28196e-05 
         850      8.69169      0.99977  0.000789835 -2.27984e-05 
         850      8.75574     0.999771  0.000789839 -2.27771e-05 
         850      8.81997     0.999772  0.000789842 -2.27558e-05 
         850      8.88449     0.999772  0.000789846 -2.27344e-05 
         850      8.94919     0.999773   0.00078985  -2.2713e-05 
         850      9.01418     0.999774  0.000789853 -2.26916e-05 
         850      9.07935     0.999774  0.000789856 -2.26703e-05 
         850      9.14481     0.999775  0.000789859 -2.26489e-05 
         850      9.21051     0.999775  0.000789861 -2.26276e-05 
         850      9.27639     0.999776  0.000789863 -2.26064e-05 
         850      9.34255     0.999776  0.000789865 -2.25852e-05 
         850       9.4089     0.999777  0.000789866 -2.25642e-05 
         850      9.47553     0.999777  0.000789867 -2.25433e-05 
         850      9.54235     0.999778  0.000789868 -2.25225e-05 
         850      9.60945     0.999778  0.000789869 -2.25018e-05 
         850      9.67674     0.999779  0.000789871 -2.24812e-05 
         850      9.74432     0.999779  0.000789874 -2.24607e-05 
         850      9.81212      0.99978  0.000789877 -2.24402e-05 
         850      9.88012      0.99978   0.00078988 -2.24198e-05 
         850       9.9484     0.999781  0.000789885 -2.23994e-05 
         850      10.0169     0.999781   0.00078989 -2.23788e-05 
         850      10.0856     0.999782  0.000789896 -2.23581e-05 
         850      10.1545     0.999782  0.000789901 -2.23372e-05 
         850      10.2238     0.999783  0.000789905 -2.23158e-05 
         850      10.2932     0.999783  0.000789908 -2.22938e-05 
         850      10.3628     0.999784  0.000789908 -2.22711e-05 
         850      10.4328     0.999784  0.000789905 -2.22473e-05 
         850      10.5029     0.999785  0.000789898 -2.22223e-05 
         850      10.5733     0.999785  0.000789884 -2.21958e-05 
         850      10.6438     0.999785  0.000789865 -2.21673e-05 
         850      10.7147     0.999785  0.000789838 -2.21364e-05 
         850      10.7858     0.999786  0.000789803 -2.21026e-05 
         850      10.8571     0.999786  0.000789763 -2.20654e-05 
         850      10.9287     0.999787  0.000789717 -2.20241e-05 
         850      11.0004     0.999787  0.000789772 -2.20163e-05 
         850      11.0725     0.999788  0.000789834 -2.20071e-05 
         850      11.1447     0.999788  0.000789886 -2.19946e-05 
         850      11.2172     0.999789  0.000789909 -2.19787e-05 
         850      11.2899     0.999789  0.000789873 -2.19597e-05 
         850      11.3628     0.999789   0.00078973 -2.19374e-05 
         850      11.4361      0.99979  0.000789751 -2.19066e-05 
         850      11.5095     0.999791  0.000789845 -2.18701e-05 
         850      11.5831     0.999792  0.000789893 -2.18311e-05 
         850       11.657     0.999793  0.000789896 -2.17907e-05 
         850      11.7312     0.999793  0.000789874 -2.17774e-05 
         850      11.8055     0.999793   0.00078986 -2.17612e-05 
         850      11.8801     0.999794  0.000789852 -2.17412e-05 
         850       11.955     0.999794   0.00078985 -2.17186e-05 
         850        12.03     0.999795  0.000789852 -2.16941e-05 
         850      12.1053     0.999795  0.000789856 -2.16684e-05 
         850      12.1809     0.999796  0.000789861 -2.16423e-05 
         850      12.2567     0.999796  0.000789867 -2.16159e-05 
         850      12.3326     0.999797  0.000789873 -2.15897e-05 
         850      12.4089     0.999797  0.000789878 -2.15637e-05 
         850      12.4854     0.999798  0.000789881 -2.15382e-05 
         850      12.5621     0.999798  0.000789883 -2.15131e-05 
         850      12.6391     0.999799  0.000789884 -2.14883e-05 
         850      12.7162     0.999799  0.000789884  -2.1464e-05 
         850      12.7937       0.9998  0.000789882 -2.14398e-05 
         850      12.8713     0.999801   0.00078988 -2.14159e-05 
         850      12.9492     0.999801  0.000789877 -2.13919e-05 
         850      13.0273     0.999802  0.000789873 -2.13678e-05 
         850      13.1057     0.999802   0.00078987 -2.13435e-05 
         850      13.1843     0.999803  0.000789867 -2.13189e-05 
         850      13.2631     0.999804  0.000789865  -2.1294e-05 
         850      13.3422     0.999804  0.000789864 -2.12685e-05 
         850      13.4215     0.999805  0.000789865 -2.12425e-05 
         850       13.501     0.999806  0.000789866  -2.1216e-05 
         850      13.5807     0.999807  0.000789869  -2.1189e-05 
         850      13.6608     0.999807  0.000789872 -2.11614e-05 
         850       13.741     0.999808  0.000789877 -2.11334e-05 
         850      13.8215     0.999809  0.000789882  -2.1105e-05 
         850      13.9022     0.999809  0.000789888 -2.10762e-05 
         850      13.9831      0.99981  0.000789894 -2.10472e-05 
         850      14.0643     0.999811  0.000789899  -2.1018e-05 
         850      14.1457     0.999811  0.000789904 -2.09888e-05 
         850      14.2274     0.999812  0.000789907 -2.09596e-05 
         850      14.3092     0.999813  0.000789909 -2.09305e-05 
         850      14.3914     0.999813  0.000789909 -2.09016e-05 
         850      14.4738     0.999814  0.000789907 -2.08729e-05 
         850      14.5563     0.999814  0.000789903 -2.08445e-05 
         850      14.6392     0.999815  0.000789898 -2.08163e-05 
         850      14.7222     0.999815  0.000789891 -2.07884e-05 
         850      14.8055     0.999816  0.000789883 -2.07606e-05 
         850       14.889     0.999817  0.000789875 -2.07331e-05 
         850      14.9728     0.999817  0.000789867 -2.07055e-05 
         850      15.0568     0.999818   0.00078986 -2.06779e-05 
         850       15.141     0.999818  0.000789856 -2.06502e-05 
         850      15.2255     0.999819  0.000789853 -2.06221e-05 
         850      15.3102      0.99982  0.000789854 -2.05936e-05 
         850      15.3952      0.99982  0.000789857 -2.05647e-05 
         850      15.4803     0.999821  0.000789862 -2.05352e-05 
         850      15.5657     0.999821  0.000789868 -2.05051e-05 
         850      15.6514     0.999822  0.000789871 -2.04747e-05 
         850      15.7372     0.999823  0.000789865 -2.04442e-05 
         850      15.8234     0.999823  0.000789845  -2.0414e-05 
         850      15.9097     0.999824  0.000789822 -2.03849e-05 
         850      15.9963     0.999825  0.000789843 -2.03565e-05 
         850      16.0831     0.999825  0.000789857  -2.0328e-05 
         850      16.1702     0.999826  0.000789865 -2.02994e-05 
         850      16.2574     0.999826  0.000789869  -2.0271e-05 
         850       16.345     0.999827   0.00078987 -2.02426e-05 
         850      16.4328     0.999827  0.000789869 -2.02143e-05 
         850      16.5207     0.999828  0.000789867 -2.01862e-05 
         850       16.609     0.999828  0.000789865 -2.01581e-05 
         850      16.6974     0.999829  0.000789862   -2.013e-05 
         850      16.7861      0.99983   0.00078986  -2.0102e-05 
         850       16.875      0.99983  0.000789859 -2.00739e-05 
         850      16.9642     0.999831  0.000789858 -2.00458e-05 
         850      17.0537     0.999831  0.000789859 -2.00176e-05 
         850      17.1433     0.999832   0.00078986 -1.99893e-05 
         850      17.2332     0.999833  0.000789861 -1.99607e-05 
         850      17.3232     0.999833  0.000789864 -1.99319e-05 
         850      17.4136     0.999834  0.000789866 -1.99029e-05 
         850      17.5041     0.999835  0.000789869 -1.98735e-05 
         850       17.595     0.999835  0.000789871 -1.98439e-05 
         850      17.6861     0.999836  0.000789873 -1.98138e-05 
         850      17.7773     0.999837  0.000789875 -1.97834e-05 
         850      17.8689     0.999837  0.000789876 -1.97526e-05 
         850      17.9606     0.999838  0.000789876 -1.97215e-05 
         850      18.0526     0.999839  0.000789875 -1.96899e-05 
         850      18.1448     0.999839  0.000789874  -1.9658e-05 
         850      18.2373      0.99984  0.000789872 -1.96258e-05 
         850      18.3299     0.999841  0.000789869 -1.95932e-05 
         850      18.4229     0.999841  0.000789866 -1.95604e-05 
         850      18.5161     0.999842  0.000789862 -1.95273e-05 
         850      18.6094     0.999842  0.000789858  -1.9494e-05 
         850      18.7031     0.999843  0.000789855 -1.94605e-05 
         850      18.7969     0.999844  0.000789852 -1.94269e-05 
         850       18.891     0.999844   0.00078985 -1.93933e-05 
         850      18.9853     0.999845  0.000789849 -1.93597e-05 
         850      19.0799     0.999846   0.00078985 -1.93261e-05 
         850      19.1748     0.999847  0.000789851 -1.92926e-05 
         850      19.2698     0.999847  0.000789855 -1.92593e-05 
         850      19.3651     0.999848   0.00078986 -1.92262e-05 
         850      19.4606     0.999849  0.000789867 -1.91934e-05 
         850      19.5563      0.99985  0.000789876 -1.91608e-05 
         850      19.6523      0.99985  0.000789886 -1.91285e-05 
         850      19.7485     0.999851  0.000789897 -1.90965e-05 
         850      19.8449     0.999852  0.000789908 -1.90648e-05 
         850      19.9417     0.999853   0.00078992 -1.90334e-05 
         850      20.0386     0.999853  0.000789931 -1.90022e-05 
         850      20.1357     0.999854   0.00078994 -1.89713e-05 
         850      20.2331     0.999855  0.000789947 -1.89405e-05 
         850      20.3307     0.999856  0.000789952 -1.89098e-05 
         850      20.4286     0.999856  0.000789952  -1.8879e-05 
         850      20.5267     0.999857  0.000789949  -1.8848e-05 
         850       20.625     0.999858  0.000789942 -1.88167e-05 
         850      20.7236     0.999859  0.000789931 -1.87848e-05 
         850      20.8224     0.999859  0.000789918 -1.87522e-05 
         850      20.9215      0.99986  0.000789902 -1.87186e-05 
         850      21.0207     0.999861  0.000789888 -1.86837e-05 
         850      21.1202     0.999862  0.000789878 -1.86472e-05 
         850      21.2199     0.999863  0.000789878  -1.8609e-05 
         850      21.3199     0.999864  0.000789895 -1.85684e-05 
         850      21.4202     0.999865  0.000789938 -1.85252e-05 
         850      21.5206     0.999866  0.000789955 -1.84916e-05 
         850      21.6213     0.999867  0.000789892 -1.84753e-05 
         850      21.7222     0.999867  0.000789843 -1.84566e-05 
         850      21.8234     0.999868  0.000789807 -1.84347e-05 
         850      21.9247     0.999869  0.000789786 -1.84092e-05 
         850      22.0264      0.99987  0.000789785 -1.83791e-05 
         850      22.1282      0.99987  0.000789809 -1.83435e-05 
         850      22.2303     0.999871   0.00078987 -1.83012e-05 
         850      22.3327     0.999872  0.000789983 -1.82506e-05 
         850      22.4352     0.999872      0.00079 -1.82013e-05 
         850       22.538     0.999873  0.000789946 -1.81596e-05 
         850       22.641     0.999874  0.000789896 -1.81219e-05 
         850      22.7443     0.999875  0.000789855 -1.80872e-05 
         850      22.8477     0.999875  0.000789824 -1.80548e-05 
         850      22.9515     0.999876  0.000789804  -1.8024e-05 
         850      23.0555     0.999877  0.000789795 -1.79943e-05 
         850      23.1597     0.999878  0.000789798  -1.7965e-05 
         850      23.2642     0.999878   0.00078981 -1.79357e-05 
         850      23.3688     0.999879  0.000789832  -1.7906e-05 
         850      23.4737      0.99988   0.00078986 -1.78754e-05 
         850      23.5788      0.99988  0.000789894 -1.78437e-05 
         850      23.6843     0.999881  0.000789931 -1.78104e-05 
         850      23.7899     0.999882   0.00078997 -1.77754e-05 
         850      23.8957     0.999882  0.000790008 -1.77385e-05 
         850      24.0018     0.999883  0.000790021 -1.76989e-05 