Variables = x, y, u, v, p

Zone, I=800, F=POINT
         650            0            0            0 -2.58747e-05 
         650     0.000117  3.90971e-05  1.16047e-12 -2.58747e-05 
         650     0.000469  0.000156723  1.86398e-11 -2.58747e-05 
         650     0.001056  0.000352877  9.44918e-11 -2.58746e-05 
         650     0.001879  0.000627893  2.99164e-10 -2.58744e-05 
         650     0.002936  0.000981104  7.30407e-10 -2.58742e-05 
         650     0.004228   0.00141284  1.51468e-09  -2.5874e-05 
         650     0.005755   0.00192311  2.80635e-09 -2.58738e-05 
         650     0.007518   0.00251224  4.78912e-09 -2.58735e-05 
         650     0.009515   0.00317957   7.6713e-09 -2.58731e-05 
         650     0.011746   0.00392509  1.16905e-08 -2.58727e-05 
         650     0.014214    0.0047498  1.71193e-08 -2.58723e-05 
         650     0.016915   0.00565238  2.42436e-08 -2.58719e-05 
         650     0.019853   0.00663415  3.33968e-08 -2.58714e-05 
         650     0.023023   0.00769345  4.49135e-08 -2.58708e-05 
         650     0.026431   0.00883228  5.91943e-08 -2.58703e-05 
         650     0.030075      0.01005  7.66415e-08 -2.58696e-05 
         650      0.03395    0.0113449  9.76635e-08  -2.5869e-05 
         650     0.038063    0.0127193  1.22761e-07 -2.58683e-05 
         650     0.042408    0.0141712  1.52387e-07 -2.58675e-05 
         650     0.046991    0.0157027  1.87104e-07 -2.58668e-05 
         650     0.051805    0.0173113  2.27403e-07  -2.5866e-05 
         650     0.056859    0.0190002  2.73937e-07 -2.58651e-05 
         650     0.062143    0.0207659  3.27218e-07 -2.58642e-05 
         650     0.067666    0.0226115  3.87966e-07 -2.58633e-05 
         650     0.073425    0.0245359  4.56814e-07 -2.58623e-05 
         650     0.079413    0.0265369  5.34361e-07 -2.58613e-05 
         650     0.085642    0.0286183  6.21476e-07 -2.58602e-05 
         650       0.0921    0.0307763  7.18737e-07 -2.58591e-05 
         650     0.098799    0.0330148  8.27094e-07  -2.5858e-05 
         650     0.105727    0.0353299  9.47154e-07 -2.58568e-05 
         650     0.112896    0.0377254  1.07995e-06 -2.58556e-05 
         650       0.1203    0.0401994  1.22625e-06 -2.58543e-05 
         650     0.127932    0.0427496  1.38677e-06 -2.58531e-05 
         650     0.135806    0.0453807  1.56272e-06 -2.58517e-05 
         650     0.143909    0.0480882  1.75476e-06 -2.58503e-05 
         650     0.152253    0.0508762  1.96413e-06 -2.58489e-05 
         650     0.160825    0.0537404  2.19151e-06 -2.58475e-05 
         650     0.169639    0.0566853  2.43828e-06  -2.5846e-05 
         650     0.178688    0.0597087  2.70532e-06 -2.58445e-05 
         650     0.187965    0.0628082  2.99349e-06 -2.58429e-05 
         650     0.197484    0.0659885  3.30433e-06 -2.58413e-05 
         650      0.20723    0.0692445  3.63847e-06 -2.58396e-05 
         650      0.21722    0.0725819  3.99767e-06 -2.58379e-05 
         650     0.227436    0.0759947  4.38246e-06 -2.58362e-05 
         650     0.237895    0.0794885  4.79471e-06 -2.58344e-05 
         650     0.248581    0.0830579  5.23502e-06 -2.58326e-05 
         650      0.25951    0.0867083  5.70533e-06 -2.58307e-05 
         650     0.270675    0.0904373  6.20665e-06 -2.58289e-05 
         650     0.282065    0.0942412  6.73979e-06 -2.58269e-05 
         650       0.2937    0.0981265  7.30705e-06 -2.58249e-05 
         650      0.30556     0.102087  7.90883e-06 -2.58229e-05 
         650     0.317665     0.106128  8.54754e-06 -2.58209e-05 
         650     0.329995     0.110245  9.22357e-06 -2.58188e-05 
         650     0.342569     0.114442  9.93939e-06 -2.58166e-05 
         650     0.355379     0.118717  1.06961e-05 -2.58145e-05 
         650     0.368414     0.123067  1.14944e-05 -2.58123e-05 
         650     0.381693     0.127498  1.23372e-05   -2.581e-05 
         650     0.395198     0.132004  1.32248e-05 -2.58077e-05 
         650     0.408948      0.13659  1.41599e-05 -2.58054e-05 
         650     0.422921      0.14125  1.51429e-05  -2.5803e-05 
         650     0.437141     0.145991  1.61769e-05 -2.58006e-05 
         650     0.451585     0.150806  1.72619e-05 -2.57981e-05 
         650     0.466275     0.155701  1.84014e-05 -2.57956e-05 
         650       0.4812     0.160674   1.9596e-05 -2.57931e-05 
         650     0.496348     0.165719  2.08467e-05 -2.57905e-05 
         650     0.511744     0.170845   2.2157e-05 -2.57878e-05 
         650     0.527361     0.176043  2.35267e-05 -2.57852e-05 
         650     0.543227     0.181322  2.49597e-05 -2.57825e-05 
         650     0.559314     0.186673  2.64556e-05 -2.57797e-05 
         650      0.57565     0.192104  2.80186e-05 -2.57769e-05 
         650      0.59222      0.19761  2.96492e-05 -2.57741e-05 
         650     0.609012     0.203187  3.13479e-05 -2.57712e-05 
         650     0.626053     0.208844  3.31195e-05 -2.57683e-05 
         650     0.643315      0.21457  3.49629e-05 -2.57653e-05 
         650     0.660826     0.220376   3.6883e-05 -2.57623e-05 
         650     0.678557     0.226252  3.88785e-05 -2.57592e-05 
         650     0.696538     0.232205  4.09545e-05 -2.57561e-05 
         650     0.714754     0.238232  4.31114e-05  -2.5753e-05 
         650      0.73319     0.244327  4.53493e-05 -2.57498e-05 
         650     0.751876       0.2505  4.76737e-05 -2.57466e-05 
         650     0.770782      0.25674  5.00828e-05 -2.57433e-05 
         650     0.789937     0.263055  5.25822e-05 -2.57399e-05 
         650     0.809313     0.269437  5.51703e-05 -2.57366e-05 
         650     0.828939     0.275895  5.78528e-05 -2.57331e-05 
         650     0.848784     0.282417  6.06274e-05 -2.57296e-05 
         650      0.86888     0.289013  6.35006e-05 -2.57261e-05 
         650     0.889212     0.295678   6.6472e-05 -2.57225e-05 
         650     0.909761     0.302406  6.95409e-05 -2.57189e-05 
         650     0.930563     0.309206  7.27143e-05 -2.57152e-05 
         650     0.951582     0.316067  7.59887e-05 -2.57115e-05 
         650     0.972854     0.322999  7.93715e-05 -2.57077e-05 
         650     0.994343     0.329989  8.28588e-05 -2.57039e-05 
         650      1.01608     0.337049  8.64579e-05    -2.57e-05 
         650      1.03806     0.344172  9.01681e-05 -2.56961e-05 
         650      1.06025     0.351351  9.39879e-05 -2.56921e-05 
         650       1.0827     0.358596  9.79247e-05  -2.5688e-05 
         650      1.10536     0.365895  0.000101974 -2.56839e-05 
         650      1.12828     0.373258  0.000106145 -2.56797e-05 
         650      1.15142     0.380673  0.000110431 -2.56755e-05 
         650       1.1748     0.388149  0.000114841 -2.56711e-05 
         650      1.19842     0.395679  0.000119372 -2.56668e-05 
         650      1.22226     0.403257  0.000124024 -2.56623e-05 
         650      1.24635     0.410893  0.000128803 -2.56578e-05 
         650      1.27066     0.418572  0.000133705 -2.56532e-05 
         650      1.29522     0.426306  0.000138737 -2.56486e-05 
         650         1.32     0.434081  0.000143892 -2.56439e-05 
         650      1.34503     0.441907  0.000149181 -2.56392e-05 
         650      1.37028      0.44977  0.000154594 -2.56343e-05 
         650      1.39578      0.45768  0.000160142 -2.56294e-05 
         650      1.42152      0.46563  0.000165821 -2.56244e-05 
         650      1.44747     0.473611  0.000171626 -2.56193e-05 
         650      1.47368     0.481635  0.000177567  -2.5614e-05 
         650       1.5001     0.489684  0.000183634 -2.56085e-05 
         650      1.52677     0.497771  0.000189846 -2.56027e-05 
         650      1.55367     0.505881  0.000196184  -2.5597e-05 
         650      1.58081     0.514023  0.000202657 -2.55914e-05 
         650       1.6082     0.522188   0.00020926  -2.5586e-05 
         650      1.63579     0.530369  0.000215988 -2.55806e-05 
         650      1.66364     0.538574  0.000222851 -2.55751e-05 
         650      1.69171     0.546789  0.000229838 -2.55695e-05 
         650      1.72003     0.555023  0.000236959 -2.55638e-05 
         650      1.74857     0.563261  0.000244203  -2.5558e-05 
         650      1.77736     0.571513  0.000251579 -2.55519e-05 
         650      1.80636     0.579763  0.000259075 -2.55457e-05 
         650      1.83563      0.58802  0.000266699 -2.55393e-05 
         650      1.86512     0.596275  0.000274445 -2.55327e-05 
         650      1.89484     0.604519  0.000282304 -2.55259e-05 
         650       1.9248      0.61276  0.000290287 -2.55189e-05 
         650      1.95498     0.620983  0.000298376 -2.55117e-05 
         650      1.98542     0.629197  0.000306583 -2.55043e-05 
         650      2.01607     0.637386  0.000314892 -2.54968e-05 
         650      2.04698      0.64556  0.000323312 -2.54891e-05 
         650      2.07812     0.653707  0.000331833 -2.54812e-05 
         650      2.10947     0.661818  0.000340445 -2.54733e-05 
         650      2.14109     0.669902  0.000349156 -2.54652e-05 
         650      2.17291     0.677943   0.00035795 -2.54571e-05 
         650      2.20499      0.68595  0.000366836 -2.54488e-05 
         650      2.23728     0.693906  0.000375795 -2.54405e-05 
         650      2.26984     0.701819  0.000384836 -2.54321e-05 
         650      2.30263     0.709681  0.000393948 -2.54235e-05 
         650      2.33562      0.71748  0.000403117 -2.54149e-05 
         650      2.36888     0.725226  0.000412353 -2.54062e-05 
         650      2.40235     0.732902  0.000421636 -2.53974e-05 
         650      2.43608     0.740516  0.000430974 -2.53884e-05 
         650      2.47002     0.748053  0.000440346 -2.53794e-05 
         650      2.50421     0.755521  0.000449762 -2.53701e-05 
         650      2.53862     0.762904  0.000459199 -2.53607e-05 
         650      2.57329      0.77021  0.000468666 -2.53511e-05 
         650      2.60819      0.77743  0.000478149 -2.53412e-05 
         650       2.6433     0.784554  0.000487633 -2.53311e-05 
         650      2.67868     0.791591  0.000497126 -2.53207e-05 
         650      2.71426     0.798525  0.000506605 -2.53101e-05 
         650       2.7501     0.805364  0.000516078 -2.52991e-05 
         650      2.78615     0.812094  0.000525523 -2.52879e-05 
         650      2.82247     0.818723  0.000534946 -2.52763e-05 
         650      2.85902     0.825242  0.000544333 -2.52644e-05 
         650      2.89577     0.831643  0.000553669 -2.52522e-05 
         650      2.93279     0.837933   0.00056296 -2.52396e-05 
         650      2.97002     0.844099  0.000572185 -2.52268e-05 
         650       3.0075      0.85015   0.00058135 -2.52137e-05 
         650       3.0452     0.856072  0.000590432 -2.52003e-05 
         650      3.08316     0.861874  0.000599441 -2.51868e-05 
         650      3.12135     0.867548  0.000608359 -2.51731e-05 
         650      3.15975     0.873087  0.000617174 -2.51593e-05 
         650      3.19842       0.8785  0.000625893 -2.51454e-05 
         650      3.23728     0.883775  0.000634495 -2.51316e-05 
         650      3.27642      0.88892  0.000642987 -2.51178e-05 
         650      3.31576     0.893926   0.00065135 -2.51041e-05 
         650      3.35536     0.898799   0.00065959 -2.50905e-05 
         650      3.39517     0.903532  0.000667689  -2.5077e-05 
         650      3.43525      0.90813  0.000675653 -2.50636e-05 
         650      3.47555      0.91259  0.000683469 -2.50503e-05 
         650      3.51607     0.916908  0.000691126 -2.50369e-05 
         650      3.55685     0.921091  0.000698628 -2.50233e-05 
         650      3.59783     0.925133  0.000705957 -2.50092e-05 
         650      3.63908     0.929041  0.000713115 -2.49944e-05 
         650      3.68053     0.932808  0.000720081 -2.49783e-05 
         650      3.72225     0.936443  0.000726856 -2.49603e-05 
         650      3.76421     0.939943  0.000733467 -2.49424e-05 
         650      3.80636     0.943306  0.000739952 -2.49271e-05 
         650      3.84879      0.94654  0.000746238 -2.49102e-05 
         650      3.89142     0.949641   0.00075232 -2.48921e-05 
         650      3.93431     0.952615   0.00075821 -2.48732e-05 
         650      3.97741     0.955461  0.000763902 -2.48538e-05 
         650      4.02077     0.958184  0.000769406 -2.48342e-05 
         650      4.06434     0.960782  0.000774716 -2.48146e-05 
         650      4.10817     0.963263  0.000779842 -2.47953e-05 
         650      4.15224     0.965627   0.00078478 -2.47764e-05 
         650      4.19651     0.967873  0.000789529 -2.47581e-05 
         650      4.24106      0.97001  0.000794096 -2.47404e-05 
         650       4.2858     0.972037  0.000798475 -2.47236e-05 
         650      4.33081     0.973959  0.000802676 -2.47076e-05 
         650      4.37602     0.975776  0.000806692 -2.46924e-05 
         650       4.4215     0.977496  0.000810531 -2.46783e-05 
         650      4.46721     0.979119  0.000814193  -2.4665e-05 
         650      4.51313     0.980649  0.000817678 -2.46523e-05 
         650      4.55931     0.982089  0.000821008 -2.46255e-05 
         650       4.6057     0.983442  0.000824166    -2.46e-05 
         650      4.65235     0.984713  0.000827158 -2.45755e-05 
         650      4.69921     0.985903  0.000829985 -2.45521e-05 
         650      4.74633     0.987018  0.000832655 -2.45296e-05 
         650      4.79369      0.98806  0.000835171 -2.45079e-05 
         650      4.84125     0.989032  0.000837537 -2.44869e-05 
         650      4.88908     0.989938  0.000839762 -2.44663e-05 
         650      4.93711      0.99078  0.000841848 -2.44463e-05 
         650      4.98541     0.991562  0.000843804 -2.44264e-05 
         650      5.03391     0.992288  0.000845632 -2.44068e-05 
         650      5.08268     0.992959  0.000847343 -2.43872e-05 
         650      5.13165      0.99358  0.000848938 -2.43675e-05 
         650      5.18089     0.994153  0.000850426 -2.43477e-05 
         650      5.23037     0.994681  0.000851811 -2.43277e-05 
         650      5.28004     0.995166  0.000853099 -2.43073e-05 
         650      5.32999     0.995612  0.000854295 -2.42866e-05 
         650      5.38013     0.996021  0.000855404 -2.42655e-05 
         650      5.43055     0.996395  0.000856432 -2.42439e-05 
         650      5.48116     0.996736  0.000857381 -2.42218e-05 
         650      5.53204     0.997048  0.000858257 -2.41992e-05 
         650      5.58317     0.997332  0.000859064 -2.41762e-05 
         650      5.63448     0.997589  0.000859804 -2.41527e-05 
         650      5.68607     0.997823  0.000860483 -2.41288e-05 
         650      5.73786     0.998035  0.000861102 -2.41045e-05 
         650      5.78992     0.998226  0.000861666 -2.40799e-05 
         650      5.84218     0.998399  0.000862178 -2.40551e-05 
         650      5.89471     0.998554   0.00086264   -2.403e-05 
         650      5.94748     0.998694  0.000863057 -2.40048e-05 
         650      6.00044      0.99882  0.000863431 -2.39795e-05 
         650      6.05367     0.998932  0.000863765 -2.39542e-05 
         650       6.1071     0.999032  0.000864064  -2.3929e-05 
         650      6.16081     0.999121  0.000864331  -2.3904e-05 
         650      6.21471     0.999201  0.000864569 -2.38791e-05 
         650      6.26889     0.999272  0.000864784 -2.38545e-05 
         650      6.32326     0.999334  0.000864977 -2.38301e-05 
         650       6.3779      0.99939  0.000865153 -2.38059e-05 
         650      6.43279     0.999439  0.000865315  -2.3782e-05 
         650      6.48786     0.999482  0.000865464 -2.37583e-05 
         650      6.54321      0.99952  0.000865603 -2.37346e-05 
         650      6.59876     0.999553   0.00086573  -2.3711e-05 
         650      6.65458     0.999582  0.000865842 -2.36872e-05 
         650      6.71059     0.999608  0.000865934 -2.36631e-05 
         650      6.76689      0.99963  0.000865994 -2.36385e-05 
         650      6.82341      0.99965  0.000866006 -2.36131e-05 
         650      6.88013     0.999666  0.000866054  -2.3587e-05 
         650      6.93713     0.999681  0.000866154  -2.3561e-05 
         650      6.99432     0.999694  0.000866222  -2.3535e-05 
         650      7.05178     0.999705  0.000866267  -2.3509e-05 
         650      7.10944     0.999714  0.000866295 -2.34831e-05 
         650      7.16738     0.999722  0.000866313 -2.34571e-05 
         650      7.22551      0.99973  0.000866324  -2.3431e-05 
         650      7.28391     0.999736  0.000866332  -2.3405e-05 
         650      7.34256     0.999741  0.000866339 -2.33789e-05 
         650      7.40139     0.999745  0.000866347 -2.33527e-05 
         650       7.4605     0.999749  0.000866355 -2.33265e-05 
         650       7.5198     0.999753  0.000866366 -2.33002e-05 
         650      7.57939     0.999755  0.000866378 -2.32738e-05 
         650      7.63916     0.999758  0.000866391 -2.32474e-05 
         650      7.69921      0.99976  0.000866405 -2.32208e-05 
         650       7.7595     0.999762   0.00086642 -2.31941e-05 
         650      7.81998     0.999763  0.000866434 -2.31673e-05 
         650      7.88073     0.999765  0.000866447 -2.31404e-05 
         650      7.94168     0.999766  0.000866459 -2.31133e-05 
         650      8.00291     0.999767  0.000866469 -2.30861e-05 
         650      8.06432     0.999768  0.000866477 -2.30587e-05 
         650      8.12602     0.999769  0.000866483 -2.30312e-05 
         650      8.18796     0.999769  0.000866486 -2.30035e-05 
         650      8.25008      0.99977  0.000866487 -2.29757e-05 
         650      8.31248     0.999771  0.000866486 -2.29478e-05 
         650      8.37507     0.999771  0.000866482 -2.29197e-05 
         650      8.43794     0.999772  0.000866478 -2.28915e-05 
         650        8.501     0.999772  0.000866472 -2.28632e-05 
         650      8.56434     0.999773  0.000866466 -2.28348e-05 
         650      8.62787     0.999773  0.000866459 -2.28063e-05 
         650      8.69169     0.999774  0.000866452 -2.27778e-05 
         650      8.75574     0.999774  0.000866447 -2.27493e-05 
         650      8.81997     0.999775  0.000866442 -2.27207e-05 
         650      8.88449     0.999775  0.000866438 -2.26922e-05 
         650      8.94919     0.999776  0.000866436 -2.26637e-05 
         650      9.01418     0.999776  0.000866436 -2.26353e-05 
         650      9.07935     0.999776  0.000866437 -2.26069e-05 
         650      9.14481     0.999777   0.00086644 -2.25786e-05 
         650      9.21051     0.999777  0.000866444 -2.25504e-05 
         650      9.27639     0.999778   0.00086645 -2.25223e-05 
         650      9.34255     0.999778  0.000866456 -2.24942e-05 
         650       9.4089     0.999778  0.000866463 -2.24662e-05 
         650      9.47553     0.999779  0.000866471  -2.2438e-05 
         650      9.54235     0.999779  0.000866479 -2.24097e-05 
         650      9.60945      0.99978  0.000866488 -2.23811e-05 
         650      9.67674      0.99978  0.000866498 -2.23521e-05 
         650      9.74432      0.99978  0.000866509 -2.23224e-05 
         650      9.81212     0.999781  0.000866523 -2.22919e-05 
         650      9.88012     0.999781  0.000866527 -2.22645e-05 
         650       9.9484     0.999782  0.000866514 -2.22417e-05 
         650      10.0169     0.999782  0.000866499 -2.22186e-05 
         650      10.0856     0.999782  0.000866484 -2.21947e-05 
         650      10.1545     0.999783   0.00086647 -2.21699e-05 
         650      10.2238     0.999783  0.000866456 -2.21438e-05 
         650      10.2932     0.999784  0.000866445 -2.21163e-05 
         650      10.3628     0.999784  0.000866438 -2.20871e-05 
         650      10.4328     0.999785  0.000866437 -2.20561e-05 
         650      10.5029     0.999785  0.000866441 -2.20235e-05 
         650      10.5733     0.999785  0.000866451 -2.19892e-05 
         650      10.6438     0.999786  0.000866467  -2.1954e-05 
         650      10.7147     0.999786  0.000866487 -2.19183e-05 
         650      10.7858     0.999787  0.000866506 -2.18836e-05 
         650      10.8571     0.999787  0.000866519 -2.18513e-05 
         650      10.9287     0.999788  0.000866516 -2.18239e-05 
         650      11.0004     0.999788  0.000866486 -2.18042e-05 
         650      11.0725     0.999789  0.000866505  -2.1762e-05 
         650      11.1447     0.999789  0.000866533 -2.17167e-05 
         650      11.2172      0.99979  0.000866544 -2.16761e-05 
         650      11.2899      0.99979  0.000866539 -2.16393e-05 
         650      11.3628     0.999791   0.00086652 -2.16056e-05 
         650      11.4361     0.999791  0.000866492 -2.15746e-05 
         650      11.5095     0.999792  0.000866463 -2.15466e-05 
         650      11.5831     0.999792   0.00086644 -2.15219e-05 
         650       11.657     0.999793  0.000866433 -2.15017e-05 
         650      11.7312     0.999793  0.000866453 -2.14876e-05 
         650      11.8055     0.999794  0.000866511 -2.14818e-05 
         650      11.8801     0.999794  0.000866469 -2.14545e-05 
         650       11.955     0.999795  0.000866419 -2.14204e-05 
         650        12.03     0.999795  0.000866391 -2.13868e-05 
         650      12.1053     0.999796   0.00086638 -2.13531e-05 
         650      12.1809     0.999796  0.000866381 -2.13192e-05 
         650      12.2567     0.999797   0.00086639 -2.12846e-05 
         650      12.3326     0.999798  0.000866404 -2.12492e-05 
         650      12.4089     0.999798   0.00086642  -2.1213e-05 
         650      12.4854     0.999799  0.000866438  -2.1176e-05 
         650      12.5621     0.999799  0.000866455 -2.11381e-05 
         650      12.6391       0.9998  0.000866471 -2.10995e-05 
         650      12.7162       0.9998  0.000866486 -2.10602e-05 
         650      12.7937     0.999801  0.000866499 -2.10205e-05 
         650      12.8713     0.999802  0.000866509 -2.09804e-05 
         650      12.9492     0.999802  0.000866518 -2.09401e-05 
         650      13.0273     0.999803  0.000866525 -2.08999e-05 
         650      13.1057     0.999803   0.00086653 -2.08597e-05 
         650      13.1843     0.999804  0.000866535 -2.08198e-05 
         650      13.2631     0.999805  0.000866538 -2.07805e-05 
         650      13.3422     0.999805   0.00086654 -2.07416e-05 
         650      13.4215     0.999806  0.000866541 -2.07034e-05 
         650       13.501     0.999807  0.000866541 -2.06658e-05 
         650      13.5807     0.999807  0.000866541 -2.06291e-05 
         650      13.6608     0.999808  0.000866541 -2.05931e-05 
         650       13.741     0.999809   0.00086654 -2.05579e-05 
         650      13.8215     0.999809  0.000866538 -2.05234e-05 
         650      13.9022      0.99981  0.000866536 -2.04895e-05 
         650      13.9831     0.999811  0.000866533 -2.04563e-05 
         650      14.0643     0.999811  0.000866529 -2.04235e-05 
         650      14.1457     0.999812  0.000866525 -2.03911e-05 
         650      14.2274     0.999812   0.00086652 -2.03589e-05 
         650      14.3092     0.999813  0.000866514 -2.03269e-05 
         650      14.3914     0.999814  0.000866508 -2.02947e-05 
         650      14.4738     0.999814  0.000866501 -2.02623e-05 
         650      14.5563     0.999815  0.000866493 -2.02295e-05 
         650      14.6392     0.999816  0.000866486 -2.01962e-05 
         650      14.7222     0.999816  0.000866478 -2.01622e-05 
         650      14.8055     0.999817  0.000866471 -2.01275e-05 
         650       14.889     0.999817  0.000866464 -2.00919e-05 
         650      14.9728     0.999818  0.000866459 -2.00553e-05 
         650      15.0568     0.999819  0.000866455 -2.00178e-05 
         650       15.141     0.999819  0.000866452 -1.99793e-05 
         650      15.2255      0.99982  0.000866452 -1.99398e-05 
         650      15.3102      0.99982  0.000866454 -1.98994e-05 
         650      15.3952     0.999821  0.000866458 -1.98583e-05 
         650      15.4803     0.999821  0.000866465 -1.98165e-05 
         650      15.5657     0.999822  0.000866474 -1.97742e-05 
         650      15.6514     0.999823  0.000866486 -1.97317e-05 
         650      15.7372     0.999823    0.0008665 -1.96893e-05 
         650      15.8234     0.999824  0.000866515 -1.96471e-05 
         650      15.9097     0.999824   0.00086653 -1.96054e-05 
         650      15.9963     0.999825  0.000866546 -1.95646e-05 
         650      16.0831     0.999825   0.00086656  -1.9525e-05 
         650      16.1702     0.999826  0.000866572 -1.94867e-05 
         650      16.2574     0.999826  0.000866581   -1.945e-05 
         650       16.345     0.999827  0.000866584 -1.94151e-05 
         650      16.4328     0.999828  0.000866582  -1.9382e-05 
         650      16.5207     0.999828  0.000866573 -1.93506e-05 
         650       16.609     0.999829  0.000866556 -1.93207e-05 
         650      16.6974     0.999829  0.000866531 -1.92918e-05 
         650      16.7861      0.99983  0.000866499 -1.92634e-05 
         650       16.875      0.99983  0.000866461 -1.92344e-05 
         650      16.9642     0.999831  0.000866421 -1.92036e-05 
         650      17.0537     0.999832  0.000866384 -1.91692e-05 
         650      17.1433     0.999832  0.000866356 -1.91291e-05 
         650      17.2332     0.999833  0.000866347 -1.90805e-05 
         650      17.3232     0.999833  0.000866371 -1.90202e-05 
         650      17.4136     0.999834  0.000866445 -1.89439e-05 
         650      17.5041     0.999835  0.000866591 -1.88469e-05 
         650       17.595     0.999835  0.000866838 -1.87233e-05 
         650      17.6861     0.999836  0.000866901 -1.86952e-05 
         650      17.7773     0.999837  0.000866708 -1.87681e-05 
         650      17.8689     0.999838  0.000866563 -1.88099e-05 
         650      17.9606     0.999838  0.000866457 -1.88243e-05 
         650      18.0526     0.999839  0.000866379 -1.88134e-05 
         650      18.1448      0.99984  0.000866335 -1.87829e-05 
         650      18.2373      0.99984   0.00086632 -1.87392e-05 
         650      18.3299     0.999841  0.000866326  -1.8686e-05 
         650      18.4229     0.999842  0.000866348 -1.86265e-05 
         650      18.5161     0.999842   0.00086638 -1.85633e-05 
         650      18.6094     0.999843  0.000866417 -1.84985e-05 
         650      18.7031     0.999843  0.000866455 -1.84338e-05 
         650      18.7969     0.999844  0.000866493 -1.83706e-05 
         650       18.891     0.999845  0.000866527 -1.83095e-05 
         650      18.9853     0.999845  0.000866556 -1.82515e-05 
         650      19.0799     0.999846  0.000866579 -1.81966e-05 
         650      19.1748     0.999847  0.000866596 -1.81452e-05 
         650      19.2698     0.999847  0.000866606 -1.80971e-05 
         650      19.3651     0.999848   0.00086661 -1.80521e-05 
         650      19.4606     0.999849  0.000866608 -1.80099e-05 
         650      19.5563     0.999849    0.0008666   -1.797e-05 
         650      19.6523      0.99985  0.000866588  -1.7932e-05 
         650      19.7485     0.999851  0.000866572 -1.78953e-05 
         650      19.8449     0.999852  0.000866553 -1.78595e-05 
         650      19.9417     0.999852  0.000866532 -1.78238e-05 
         650      20.0386     0.999853   0.00086651 -1.77878e-05 
         650      20.1357     0.999854  0.000866487 -1.77511e-05 
         650      20.2331     0.999855  0.000866466  -1.7713e-05 
         650      20.3307     0.999856  0.000866446 -1.76733e-05 
         650      20.4286     0.999856  0.000866428 -1.76316e-05 
         650      20.5267     0.999857  0.000866412 -1.75876e-05 
         650       20.625     0.999858  0.000866405 -1.75487e-05 
         650      20.7236     0.999859  0.000866402 -1.75105e-05 
         650      20.8224      0.99986  0.000866403 -1.74705e-05 
         650      20.9215      0.99986  0.000866407 -1.74285e-05 
         650      21.0207     0.999861  0.000866415 -1.73847e-05 
         650      21.1202     0.999862  0.000866427 -1.73392e-05 
         650      21.2199     0.999863  0.000866441 -1.72923e-05 
         650      21.3199     0.999864  0.000866457 -1.72442e-05 
         650      21.4202     0.999865  0.000866475 -1.71951e-05 
         650      21.5206     0.999866  0.000866494 -1.71455e-05 
         650      21.6213     0.999866  0.000866513 -1.70957e-05 
         650      21.7222     0.999867  0.000866532 -1.70461e-05 
         650      21.8234     0.999868  0.000866549  -1.6997e-05 
         650      21.9247     0.999869  0.000866565 -1.69488e-05 
         650      22.0264      0.99987  0.000866578 -1.69019e-05 
         650      22.1282      0.99987  0.000866587 -1.68565e-05 
         650      22.2303     0.999871  0.000866593 -1.68128e-05 
         650      22.3327     0.999872  0.000866594  -1.6771e-05 
         650      22.4352     0.999873  0.000866591 -1.67311e-05 
         650       22.538     0.999873  0.000866583 -1.66932e-05 
         650       22.641     0.999874  0.000866571 -1.66571e-05 
         650      22.7443     0.999875  0.000866554 -1.66225e-05 
         650      22.8477     0.999875  0.000866534 -1.65893e-05 
         650      22.9515     0.999876  0.000866511 -1.65569e-05 
         650      23.0555     0.999877  0.000866486 -1.65248e-05 
         650      23.1597     0.999877   0.00086646 -1.64925e-05 
         650      23.2642     0.999878  0.000866435 -1.64591e-05 
         650      23.3688     0.999879  0.000866413 -1.64241e-05 
         650      23.4737     0.999879  0.000866394 -1.63865e-05 
         650      23.5788      0.99988   0.00086638 -1.63457e-05 
         650      23.6843     0.999881  0.000866373 -1.63009e-05 
         650      23.7899     0.999881  0.000866375 -1.62515e-05 
         650      23.8957     0.999882  0.000866386 -1.61969e-05 
         650      24.0018     0.999883  0.000866407 -1.61369e-05 