Variables = x, y, u, v, p

Zone, I=800, F=POINT
         300            0  1.92482e-18  5.63127e-29 -3.08669e-05 
         300     0.000117   4.8683e-05  2.23324e-12 -3.08668e-05 
         300     0.000469  0.000195148  3.58676e-11 -3.08667e-05 
         300     0.001056  0.000439396  1.81822e-10 -3.08665e-05 
         300     0.001879  0.000781841  5.75653e-10 -3.08663e-05 
         300     0.002936   0.00122165  1.40545e-09 -3.08659e-05 
         300     0.004228   0.00175925  2.91455e-09 -3.08655e-05 
         300     0.005755   0.00239462  5.39998e-09  -3.0865e-05 
         300     0.007518    0.0031282  9.21524e-09 -3.08644e-05 
         300     0.009515   0.00395914  1.47612e-08 -3.08638e-05 
         300     0.011746   0.00488745  2.24949e-08 -3.08631e-05 
         300     0.014214   0.00591437  3.29411e-08 -3.08622e-05 
         300     0.016915   0.00703824  4.66498e-08 -3.08614e-05 
         300     0.019853   0.00826073  6.42628e-08 -3.08604e-05 
         300     0.023023   0.00957975  8.64235e-08 -3.08594e-05 
         300     0.026431    0.0109978  1.13903e-07 -3.08583e-05 
         300     0.030075     0.012514  1.47476e-07 -3.08571e-05 
         300      0.03395    0.0141264  1.87928e-07 -3.08558e-05 
         300     0.038063    0.0158378  2.36221e-07 -3.08545e-05 
         300     0.042408    0.0176457  2.93231e-07 -3.08531e-05 
         300     0.046991    0.0195527  3.60035e-07 -3.08516e-05 
         300     0.051805    0.0215558  4.37582e-07   -3.085e-05 
         300     0.056859    0.0236587  5.27128e-07 -3.08483e-05 
         300     0.062143    0.0258573  6.29655e-07 -3.08466e-05 
         300     0.067666    0.0281554  7.46553e-07 -3.08448e-05 
         300     0.073425    0.0305517   8.7904e-07 -3.08429e-05 
         300     0.079413    0.0330432  1.02826e-06  -3.0841e-05 
         300     0.085642     0.035635   1.1959e-06  -3.0839e-05 
         300       0.0921     0.038322  1.38306e-06 -3.08368e-05 
         300     0.098799    0.0411094  1.59158e-06 -3.08347e-05 
         300     0.105727    0.0439919  1.82262e-06 -3.08324e-05 
         300     0.112896    0.0469747  2.07817e-06 -3.08301e-05 
         300       0.1203    0.0500552  2.35969e-06 -3.08276e-05 
         300     0.127932    0.0532306  2.66859e-06 -3.08252e-05 
         300     0.135806    0.0565065  3.00718e-06 -3.08226e-05 
         300     0.143909    0.0598777  3.37673e-06 -3.08199e-05 
         300     0.152253     0.063349  3.77963e-06 -3.08172e-05 
         300     0.160825    0.0669151  4.21718e-06 -3.08144e-05 
         300     0.169639    0.0705817  4.69205e-06 -3.08116e-05 
         300     0.178688    0.0743459  5.20592e-06 -3.08086e-05 
         300     0.187965    0.0782048  5.76043e-06 -3.08056e-05 
         300     0.197484    0.0821641  6.35855e-06 -3.08025e-05 
         300      0.20723    0.0862176  7.00151e-06 -3.07993e-05 
         300      0.21722    0.0903724  7.69267e-06  -3.0796e-05 
         300     0.227436    0.0946207  8.43307e-06 -3.07927e-05 
         300     0.237895    0.0989698  9.22626e-06 -3.07893e-05 
         300     0.248581     0.103413  1.00734e-05 -3.07858e-05 
         300      0.25951     0.107956  1.09783e-05 -3.07822e-05 
         300     0.270675     0.112597  1.19427e-05 -3.07786e-05 
         300     0.282065     0.117331  1.29684e-05 -3.07748e-05 
         300       0.2937     0.122167  1.40596e-05  -3.0771e-05 
         300      0.30556     0.127094  1.52171e-05 -3.07671e-05 
         300     0.317665     0.132123  1.64456e-05 -3.07632e-05 
         300     0.329995     0.137244  1.77458e-05 -3.07591e-05 
         300     0.342569     0.142466  1.91224e-05  -3.0755e-05 
         300     0.355379     0.147784  2.05774e-05 -3.07508e-05 
         300     0.368414     0.153194  2.21125e-05 -3.07466e-05 
         300     0.381693     0.158703  2.37327e-05 -3.07422e-05 
         300     0.395198     0.164305  2.54388e-05 -3.07378e-05 
         300     0.408948     0.170006  2.72362e-05 -3.07333e-05 
         300     0.422921     0.175798  2.91251e-05 -3.07287e-05 
         300     0.437141     0.181689  3.11118e-05  -3.0724e-05 
         300     0.451585     0.187671  3.31962e-05 -3.07192e-05 
         300     0.466275     0.193752  3.53845e-05 -3.07144e-05 
         300       0.4812     0.199926  3.76785e-05 -3.07095e-05 
         300     0.496348      0.20619  4.00794e-05 -3.07045e-05 
         300     0.511744     0.212552  4.25943e-05 -3.06994e-05 
         300     0.527361     0.219001  4.52222e-05 -3.06942e-05 
         300     0.543227     0.225548   4.7971e-05  -3.0689e-05 
         300     0.559314     0.232182  5.08393e-05 -3.06837e-05 
         300      0.57565     0.238912  5.38353e-05 -3.06782e-05 
         300      0.59222     0.245733  5.69597e-05 -3.06727e-05 
         300     0.609012     0.252639  6.02133e-05 -3.06672e-05 
         300     0.626053     0.259639  6.36049e-05 -3.06615e-05 
         300     0.643315     0.266723  6.71323e-05 -3.06557e-05 
         300     0.660826     0.273901  7.08046e-05 -3.06498e-05 
         300     0.678557      0.28116  7.46189e-05 -3.06438e-05 
         300     0.696538     0.288511   7.8585e-05 -3.06377e-05 
         300     0.714754     0.295948  8.27029e-05 -3.06316e-05 
         300      0.73319     0.303463  8.69724e-05 -3.06253e-05 
         300     0.751876     0.311067  9.14038e-05  -3.0619e-05 
         300     0.770782     0.318748  9.59932e-05 -3.06126e-05 
         300     0.789937     0.326515  0.000100751 -3.06062e-05 
         300     0.809313     0.334357  0.000105673 -3.05996e-05 
         300     0.828939     0.342284   0.00011077 -3.05929e-05 
         300     0.848784     0.350281  0.000116037 -3.05861e-05 
         300      0.86888     0.358361  0.000121485 -3.05792e-05 
         300     0.889212     0.366515  0.000127113 -3.05721e-05 
         300     0.909761     0.374734  0.000132919  -3.0565e-05 
         300     0.930563     0.383032  0.000138915 -3.05576e-05 
         300     0.951582     0.391391  0.000145094 -3.05502e-05 
         300     0.972854     0.399825  0.000151468 -3.05426e-05 
         300     0.994343     0.408316   0.00015803 -3.05349e-05 
         300      1.01608     0.416878   0.00016479 -3.05271e-05 
         300      1.03806       0.4255  0.000171748 -3.05191e-05 
         300      1.06025     0.434175  0.000178899 -3.05111e-05 
         300       1.0827     0.442912  0.000186255 -3.05029e-05 
         300      1.10536     0.451696  0.000193807 -3.04947e-05 
         300      1.12828     0.460537  0.000201567 -3.04863e-05 
         300      1.15142      0.46942  0.000209526 -3.04778e-05 
         300       1.1748     0.478356  0.000217695 -3.04692e-05 
         300      1.19842     0.487334   0.00022607 -3.04604e-05 
         300      1.22226     0.496344  0.000234644 -3.04515e-05 
         300      1.24635     0.505397  0.000243431 -3.04423e-05 
         300      1.27066     0.514476  0.000252416  -3.0433e-05 
         300      1.29522     0.523591  0.000261613 -3.04234e-05 
         300         1.32     0.532726  0.000271007 -3.04135e-05 
         300      1.34503     0.541889  0.000280611 -3.04033e-05 
         300      1.37028     0.551063  0.000290408 -3.03929e-05 
         300      1.39578     0.560259  0.000300411 -3.03824e-05 
         300      1.42152     0.569465  0.000310612 -3.03718e-05 
         300      1.44747      0.57867  0.000320998 -3.03614e-05 
         300      1.47368     0.587884  0.000331586 -3.03516e-05 
         300       1.5001     0.597088  0.000342354 -3.03427e-05 
         300      1.52677     0.606292  0.000353323 -3.03308e-05 
         300      1.55367     0.615477  0.000364459 -3.03179e-05 
         300      1.58081     0.624654  0.000375777 -3.03053e-05 
         300       1.6082     0.633808  0.000387262 -3.02928e-05 
         300      1.63579      0.64293  0.000398902 -3.02803e-05 
         300      1.66364     0.652028  0.000410709 -3.02678e-05 
         300      1.69171     0.661082   0.00042266 -3.02551e-05 
         300      1.72003     0.670103  0.000434766 -3.02422e-05 
         300      1.74857     0.679069  0.000447002 -3.02291e-05 
         300      1.77736     0.687992  0.000459379 -3.02157e-05 
         300      1.80636      0.69685   0.00047187  -3.0202e-05 
         300      1.83563     0.705653  0.000484485 -3.01879e-05 
         300      1.86512     0.714389  0.000497205 -3.01735e-05 
         300      1.89484     0.723045  0.000510011 -3.01588e-05 
         300       1.9248      0.73163  0.000522913 -3.01437e-05 
         300      1.95498     0.740124  0.000535878 -3.01282e-05 
         300      1.98542     0.748536  0.000548919 -3.01124e-05 
         300      2.01607     0.756847  0.000562002 -3.00962e-05 
         300      2.04698     0.765066  0.000575136 -3.00797e-05 
         300      2.07812      0.77318    0.0005883 -3.00628e-05 
         300      2.10947     0.781179  0.000601471 -3.00456e-05 
         300      2.14109     0.789069  0.000614657 -3.00281e-05 
         300      2.17291     0.796834  0.000627825 -3.00102e-05 
         300      2.20499     0.804481  0.000640983  -2.9992e-05 
         300      2.23728     0.811994  0.000654099 -2.99735e-05 
         300      2.26984      0.81938  0.000667178 -2.99546e-05 
         300      2.30263     0.826628  0.000680199 -2.99353e-05 
         300      2.33562      0.83373  0.000693139 -2.99158e-05 
         300      2.36888     0.840692  0.000706004 -2.98958e-05 
         300      2.40235       0.8475  0.000718761 -2.98755e-05 
         300      2.43608     0.854161  0.000731417 -2.98548e-05 
         300      2.47002     0.860662  0.000743941 -2.98337e-05 
         300      2.50421     0.867009  0.000756339 -2.98121e-05 
         300      2.53862     0.873191  0.000768579 -2.97902e-05 
         300      2.57329     0.879214  0.000780668 -2.97677e-05 
         300      2.60819     0.885071  0.000792585 -2.97449e-05 
         300       2.6433     0.890757  0.000804307 -2.97216e-05 
         300      2.67868     0.896278  0.000815844 -2.96978e-05 
         300      2.71426     0.901625  0.000827164 -2.96735e-05 
         300       2.7501     0.906806  0.000838277 -2.96488e-05 
         300      2.78615      0.91181  0.000849153 -2.96237e-05 
         300      2.82247     0.916647  0.000859802 -2.95981e-05 
         300      2.85902     0.921312  0.000870204 -2.95722e-05 
         300      2.89577     0.925802  0.000880344 -2.95459e-05 
         300      2.93279     0.930124  0.000890229 -2.95193e-05 
         300      2.97002     0.934274  0.000899839 -2.94924e-05 
         300       3.0075     0.938258  0.000909181 -2.94652e-05 
         300       3.0452     0.942072  0.000918236 -2.94378e-05 
         300      3.08316     0.945724  0.000927013 -2.94102e-05 
         300      3.12135     0.949214  0.000935502 -2.93825e-05 
         300      3.15975      0.95254  0.000943694 -2.93546e-05 
         300      3.19842     0.955712  0.000951599 -2.93264e-05 
         300      3.23728     0.958726  0.000959205  -2.9298e-05 
         300      3.27642     0.961591  0.000966524 -2.92692e-05 
         300      3.31576     0.964306  0.000973545 -2.92398e-05 
         300      3.35536     0.966879   0.00098028 -2.92095e-05 
         300      3.39517     0.969309   0.00098672 -2.91781e-05 
         300      3.43525     0.971604  0.000992879  -2.9145e-05 
         300      3.47555     0.973767  0.000998754 -2.91096e-05 
         300      3.51607       0.9758   0.00100434 -2.90712e-05 
         300      3.55685      0.97771   0.00100965 -2.90286e-05 
         300      3.59783       0.9795   0.00101468 -2.89808e-05 
         300      3.63908     0.981177   0.00101943 -2.89261e-05 
         300      3.68053     0.982742   0.00102389 -2.88627e-05 
         300      3.72225     0.984202   0.00102806 -2.87883e-05 
         300      3.76421     0.985562   0.00103204 -2.87317e-05 
         300      3.80636     0.986825    0.0010359 -2.87422e-05 
         300      3.84879     0.987997   0.00103945 -2.87702e-05 
         300      3.89142     0.989081   0.00104268 -2.88179e-05 
         300      3.93431     0.990083   0.00104562 -2.88887e-05 
         300      3.97741     0.991007   0.00104835 -2.89274e-05 
         300      4.02077     0.991858   0.00105121  -2.8757e-05 
         300      4.06434     0.992639   0.00105381 -2.86344e-05 
         300      4.10817     0.993356   0.00105619 -2.85485e-05 
         300      4.15224     0.994012   0.00105835 -2.84901e-05 
         300      4.19651      0.99461    0.0010603 -2.84511e-05 
         300      4.24106     0.995155   0.00106208 -2.84251e-05 
         300       4.2858     0.995651    0.0010637 -2.84067e-05 
         300      4.33081     0.996101   0.00106517 -2.83916e-05 
         300      4.37602     0.996508   0.00106653 -2.83766e-05 
         300       4.4215     0.996876   0.00106777 -2.83593e-05 
         300      4.46721     0.997208   0.00106891 -2.83382e-05 
         300      4.51313     0.997507   0.00106996 -2.83124e-05 
         300      4.55931     0.997775   0.00107092 -2.82815e-05 
         300       4.6057     0.998014    0.0010718 -2.82456e-05 
         300      4.65235     0.998229    0.0010726 -2.82052e-05 
         300      4.69921      0.99842   0.00107333  -2.8161e-05 
         300      4.74633      0.99859   0.00107398 -2.81138e-05 
         300      4.79369      0.99874   0.00107457 -2.80648e-05 
         300      4.84125     0.998874   0.00107508 -2.80147e-05 
         300      4.88908     0.998992   0.00107553 -2.79646e-05 
         300      4.93711     0.999095   0.00107593 -2.79154e-05 
         300      4.98541     0.999186   0.00107627 -2.78675e-05 
         300      5.03391     0.999266   0.00107657 -2.78216e-05 
         300      5.08268     0.999336   0.00107683 -2.77777e-05 
         300      5.13165     0.999397   0.00107707  -2.7736e-05 
         300      5.18089      0.99945   0.00107728 -2.76961e-05 
         300      5.23037     0.999496   0.00107747 -2.76577e-05 
         300      5.28004     0.999536   0.00107765 -2.76201e-05 
         300      5.32999      0.99957   0.00107781 -2.75826e-05 
         300      5.38013       0.9996   0.00107795 -2.75444e-05 
         300      5.43055     0.999625   0.00107808 -2.75046e-05 
         300      5.48116     0.999647   0.00107817 -2.74627e-05 
         300      5.53204     0.999665   0.00107824 -2.74184e-05 
         300      5.58317     0.999681    0.0010783 -2.73717e-05 
         300      5.63448     0.999695   0.00107835 -2.73235e-05 
         300      5.68607     0.999706   0.00107843 -2.72751e-05 
         300      5.73786     0.999716   0.00107853 -2.72337e-05 
         300      5.78992     0.999724   0.00107851  -2.7208e-05 
         300      5.84218     0.999731   0.00107853 -2.71868e-05 
         300      5.89471     0.999737   0.00107856 -2.71656e-05 
         300      5.94748     0.999742   0.00107858  -2.7141e-05 
         300      6.00044     0.999746    0.0010786 -2.71112e-05 
         300      6.05367      0.99975   0.00107861 -2.70751e-05 
         300       6.1071     0.999753    0.0010786 -2.70325e-05 
         300      6.16081     0.999755    0.0010786 -2.69838e-05 
         300      6.21471     0.999757   0.00107859 -2.69299e-05 
         300      6.26889     0.999759   0.00107858 -2.68718e-05 
         300      6.32326      0.99976   0.00107858 -2.68109e-05 
         300       6.3779     0.999762   0.00107858 -2.67484e-05 
         300      6.43279     0.999763   0.00107859 -2.66858e-05 
         300      6.48786     0.999764   0.00107861 -2.66243e-05 
         300      6.54321     0.999764   0.00107864  -2.6565e-05 
         300      6.59876     0.999765   0.00107867 -2.65088e-05 
         300      6.65458     0.999766    0.0010787 -2.64562e-05 
         300      6.71059     0.999766   0.00107873 -2.64077e-05 
         300      6.76689     0.999767   0.00107875 -2.63633e-05 
         300      6.82341     0.999767   0.00107875 -2.63227e-05 
         300      6.88013     0.999767   0.00107875 -2.62851e-05 
         300      6.93713     0.999768   0.00107873 -2.62491e-05 
         300      6.99432     0.999768   0.00107871 -2.62129e-05 
         300      7.05178     0.999769   0.00107868 -2.61735e-05 
         300      7.10944     0.999769   0.00107865 -2.61274e-05 
         300      7.16738      0.99977   0.00107865 -2.60695e-05 
         300      7.22551      0.99977   0.00107869 -2.59935e-05 
         300      7.28391      0.99977   0.00107881 -2.58908e-05 
         300      7.34256      0.99977   0.00107876 -2.58585e-05 
         300      7.40139     0.999771   0.00107862  -2.5868e-05 
         300       7.4605     0.999771   0.00107855 -2.58509e-05 
         300       7.5198     0.999772   0.00107853 -2.58148e-05 
         300      7.57939     0.999772   0.00107856 -2.57659e-05 
         300      7.63916     0.999772   0.00107861  -2.5709e-05 
         300      7.69921     0.999773   0.00107867 -2.56478e-05 
         300       7.7595     0.999773   0.00107874 -2.55851e-05 
         300      7.81998     0.999773   0.00107879 -2.55226e-05 
         300      7.88073     0.999774    0.0010788 -2.54613e-05 
         300      7.94168     0.999774   0.00107877 -2.54011e-05 
         300      8.00291     0.999774   0.00107871  -2.5341e-05 
         300      8.06432     0.999774   0.00107863 -2.52792e-05 
         300      8.12602     0.999775   0.00107858 -2.52123e-05 
         300      8.18796     0.999775   0.00107868 -2.51358e-05 
         300      8.25008     0.999776   0.00107882  -2.5056e-05 
         300      8.31248     0.999776   0.00107868 -2.49936e-05 
         300      8.37507     0.999776    0.0010787 -2.49346e-05 
         300      8.43794     0.999776   0.00107879 -2.48843e-05 
         300        8.501     0.999777   0.00107887 -2.48453e-05 
         300      8.56434     0.999777   0.00107892 -2.48177e-05 
         300      8.62787     0.999778   0.00107893    -2.48e-05 
         300      8.69169     0.999778    0.0010789 -2.47894e-05 
         300      8.75574     0.999779   0.00107884 -2.47827e-05 
         300      8.81997     0.999779   0.00107876  -2.4776e-05 
         300      8.88449     0.999779   0.00107867 -2.47661e-05 
         300      8.94919      0.99978    0.0010786 -2.47496e-05 
         300      9.01418      0.99978   0.00107855 -2.47241e-05 
         300      9.07935      0.99978   0.00107852 -2.46878e-05 
         300      9.14481     0.999781   0.00107852 -2.46397e-05 
         300      9.21051     0.999781   0.00107854 -2.45796e-05 
         300      9.27639     0.999781   0.00107859 -2.45084e-05 
         300      9.34255     0.999782   0.00107866 -2.44274e-05 
         300       9.4089     0.999782   0.00107873  -2.4339e-05 
         300      9.47553     0.999782    0.0010788 -2.42456e-05 
         300      9.54235     0.999783   0.00107886 -2.41504e-05 
         300      9.60945     0.999783   0.00107891 -2.40564e-05 
         300      9.67674     0.999783   0.00107893 -2.39667e-05 
         300      9.74432     0.999784   0.00107893 -2.38841e-05 
         300      9.81212     0.999784   0.00107892 -2.38108e-05 
         300      9.88012     0.999784   0.00107889 -2.37487e-05 
         300       9.9484     0.999785   0.00107885 -2.36984e-05 
         300      10.0169     0.999785   0.00107882 -2.36601e-05 
         300      10.0856     0.999786    0.0010788 -2.36329e-05 
         300      10.1545     0.999786   0.00107882 -2.36151e-05 
         300      10.2238     0.999786   0.00107879 -2.36085e-05 
         300      10.2932     0.999787   0.00107872 -2.36041e-05 
         300      10.3628     0.999787   0.00107864  -2.3592e-05 
         300      10.4328     0.999788   0.00107858  -2.3567e-05 
         300      10.5029     0.999788   0.00107853  -2.3523e-05 
         300      10.5733     0.999789   0.00107848 -2.34538e-05 
         300      10.6438     0.999789   0.00107845 -2.33542e-05 
         300      10.7147     0.999789   0.00107843 -2.32201e-05 
         300      10.7858      0.99979   0.00107842 -2.30503e-05 
         300      10.8571      0.99979   0.00107844  -2.2848e-05 
         300      10.9287     0.999791   0.00107851 -2.26218e-05 
         300      11.0004     0.999791   0.00107864 -2.23889e-05 
         300      11.0725     0.999792   0.00107888 -2.21759e-05 
         300      11.1447     0.999792   0.00107929 -2.20236e-05 
         300      11.2172     0.999792    0.0010792 -2.18124e-05 
         300      11.2899     0.999793   0.00107891 -2.17823e-05 
         300      11.3628     0.999793   0.00107854 -2.19201e-05 
         300      11.4361     0.999794   0.00107816 -2.22118e-05 
         300      11.5095     0.999794   0.00107781 -2.26487e-05 
         300      11.5831     0.999796   0.00107755 -2.32289e-05 
         300       11.657     0.999796   0.00107792 -2.32029e-05 
         300      11.7312     0.999796   0.00107871 -2.25797e-05 
         300      11.8055     0.999796   0.00107922 -2.21868e-05 
         300      11.8801     0.999797   0.00107949 -2.19558e-05 
         300       11.955     0.999798   0.00107955 -2.18341e-05 
         300        12.03     0.999798   0.00107945  -2.1781e-05 
         300      12.1053     0.999799   0.00107925 -2.17664e-05 
         300      12.1809       0.9998   0.00107901 -2.17688e-05 
         300      12.2567       0.9998   0.00107876 -2.17734e-05 
         300      12.3326     0.999801   0.00107854 -2.17711e-05 
         300      12.4089     0.999801   0.00107839 -2.17567e-05 
         300      12.4854     0.999802   0.00107831 -2.17282e-05 
         300      12.5621     0.999802    0.0010783 -2.16855e-05 
         300      12.6391     0.999803   0.00107837 -2.16299e-05 
         300      12.7162     0.999803    0.0010785 -2.15636e-05 
         300      12.7937     0.999803   0.00107866 -2.14887e-05 
         300      12.8713     0.999804   0.00107884 -2.14076e-05 
         300      12.9492     0.999804   0.00107901  -2.1322e-05 
         300      13.0273     0.999805   0.00107915 -2.12337e-05 
         300      13.1057     0.999805   0.00107924 -2.11437e-05 
         300      13.1843     0.999806   0.00107926  -2.1053e-05 
         300      13.2631     0.999807   0.00107923 -2.09623e-05 
         300      13.3422     0.999808   0.00107914 -2.08722e-05 
         300      13.4215     0.999809     0.001079 -2.07836e-05 
         300       13.501     0.999809   0.00107885 -2.06972e-05 
         300      13.5807      0.99981   0.00107871 -2.06145e-05 
         300      13.6608     0.999811   0.00107862 -2.05371e-05 
         300       13.741     0.999812    0.0010786 -2.04668e-05 
         300      13.8215     0.999813   0.00107869 -2.04054e-05 
         300      13.9022     0.999813   0.00107889 -2.03539e-05 
         300      13.9831     0.999814   0.00107918 -2.03123e-05 
         300      14.0643     0.999814   0.00107949 -2.02783e-05 
         300      14.1457     0.999815   0.00107972 -2.02461e-05 
         300      14.2274     0.999815   0.00107967 -2.02046e-05 
         300      14.3092     0.999816   0.00107907 -2.01356e-05 
         300      14.3914     0.999817   0.00107821 -2.00456e-05 
         300      14.4738     0.999817   0.00107924 -2.00668e-05 
         300      14.5563     0.999818   0.00107929 -2.00545e-05 
         300      14.6392     0.999818   0.00107897 -2.00198e-05 
         300      14.7222     0.999819   0.00107861 -1.99716e-05 
         300      14.8055     0.999819   0.00107839 -1.99159e-05 
         300       14.889      0.99982   0.00107835 -1.98564e-05 
         300      14.9728     0.999821   0.00107847 -1.97948e-05 
         300      15.0568     0.999821   0.00107869 -1.97312e-05 
         300       15.141     0.999822   0.00107893 -1.96644e-05 
         300      15.2255     0.999822   0.00107913 -1.95922e-05 
         300      15.3102     0.999823   0.00107926 -1.95122e-05 
         300      15.3952     0.999823   0.00107928 -1.94222e-05 
         300      15.4803     0.999823    0.0010792 -1.93204e-05 
         300      15.5657     0.999824   0.00107906  -1.9206e-05 
         300      15.6514     0.999824   0.00107888 -1.90798e-05 
         300      15.7372     0.999824   0.00107871 -1.89439e-05 
         300      15.8234     0.999824   0.00107859 -1.88023e-05 
         300      15.9097     0.999825   0.00107855 -1.86608e-05 
         300      15.9963     0.999825   0.00107863 -1.85266e-05 
         300      16.0831     0.999826   0.00107881 -1.84085e-05 
         300      16.1702     0.999826   0.00107907 -1.83157e-05 
         300      16.2574     0.999827   0.00107938 -1.82572e-05 
         300       16.345     0.999828   0.00107968 -1.82408e-05 
         300      16.4328     0.999828    0.0010799 -1.82711e-05 
         300      16.5207     0.999829   0.00107999 -1.83481e-05 
         300       16.609      0.99983   0.00107989 -1.84646e-05 
         300      16.6974     0.999831   0.00107959 -1.86032e-05 
         300      16.7861     0.999832   0.00107909 -1.87334e-05 
         300       16.875     0.999832   0.00107846  -1.8807e-05 
         300      16.9642     0.999833   0.00107785 -1.87544e-05 
         300      17.0537     0.999833   0.00107745 -1.84783e-05 
         300      17.1433     0.999833   0.00107754  -1.7849e-05 
         300      17.2332     0.999832   0.00107844 -1.66951e-05 
         300      17.3232     0.999833   0.00107964 -1.61628e-05 
         300      17.4136     0.999835   0.00107992 -1.74151e-05 
         300      17.5041     0.999837   0.00108018  -1.8368e-05 
         300       17.595     0.999838   0.00107987 -1.90554e-05 
         300      17.6861     0.999839   0.00107807 -1.94749e-05 
         300      17.7773      0.99984   0.00107481 -1.94747e-05 
         300      17.8689      0.99984   0.00107723 -1.87656e-05 
         300      17.9606     0.999841   0.00107843 -1.81839e-05 
         300      18.0526     0.999841   0.00107896 -1.77363e-05 
         300      18.1448     0.999841   0.00107923 -1.74311e-05 
         300      18.2373     0.999842   0.00107947 -1.72761e-05 
         300      18.3299     0.999842   0.00107985 -1.72807e-05 
         300      18.4229     0.999843    0.0010804 -1.74404e-05 
         300      18.5161     0.999843   0.00107979 -1.70977e-05 
         300      18.6094     0.999844    0.0010793 -1.67769e-05 
         300      18.7031     0.999844   0.00107896 -1.65004e-05 
         300      18.7969     0.999844   0.00107875 -1.62795e-05 
         300       18.891     0.999845   0.00107865 -1.61152e-05 
         300      18.9853     0.999845   0.00107865  -1.6003e-05 
         300      19.0799     0.999846   0.00107871 -1.59337e-05 
         300      19.1748     0.999846    0.0010788 -1.58962e-05 
         300      19.2698     0.999847    0.0010789 -1.58784e-05 
         300      19.3651     0.999848   0.00107897 -1.58689e-05 
         300      19.4606     0.999848   0.00107902  -1.5858e-05 
         300      19.5563     0.999849   0.00107902 -1.58376e-05 
         300      19.6523      0.99985   0.00107899 -1.58025e-05 
         300      19.7485     0.999851   0.00107892 -1.57497e-05 
         300      19.8449     0.999851   0.00107883 -1.56789e-05 
         300      19.9417     0.999852   0.00107873 -1.55916e-05 
         300      20.0386     0.999853   0.00107865 -1.54913e-05 
         300      20.1357     0.999854   0.00107861 -1.53826e-05 
         300      20.2331     0.999855   0.00107862 -1.52704e-05 
         300      20.3307     0.999856   0.00107869 -1.51599e-05 
         300      20.4286     0.999857   0.00107881 -1.50551e-05 
         300      20.5267     0.999857   0.00107899 -1.49592e-05 
         300       20.625     0.999858   0.00107919 -1.48736e-05 
         300      20.7236     0.999859   0.00107938  -1.4798e-05 
         300      20.8224     0.999859   0.00107952 -1.47301e-05 
         300      20.9215      0.99986   0.00107956 -1.46663e-05 
         300      21.0207     0.999861   0.00107948 -1.46021e-05 
         300      21.1202     0.999862   0.00107925 -1.45337e-05 
         300      21.2199     0.999863   0.00107888 -1.44594e-05 
         300      21.3199     0.999864   0.00107846 -1.43817e-05 
         300      21.4202     0.999865   0.00107814 -1.43109e-05 
         300      21.5206     0.999866   0.00107822 -1.42685e-05 
         300      21.6213     0.999866   0.00107915  -1.4292e-05 
         300      21.7222     0.999866    0.0010799  -1.4208e-05 
         300      21.8234     0.999868   0.00107889 -1.38972e-05 
         300      21.9247     0.999869   0.00107844  -1.3708e-05 
         300      22.0264      0.99987   0.00107842 -1.35968e-05 
         300      22.1282     0.999871   0.00107866 -1.35307e-05 
         300      22.2303     0.999871   0.00107905 -1.34855e-05 
         300      22.3327     0.999872    0.0010795 -1.34447e-05 
         300      22.4352     0.999873   0.00107991 -1.33982e-05 
         300       22.538     0.999873   0.00108022 -1.33406e-05 
         300       22.641     0.999874   0.00108041 -1.32708e-05 
         300      22.7443     0.999875   0.00108045   -1.319e-05 
         300      22.8477     0.999875   0.00108034 -1.31017e-05 
         300      22.9515     0.999876   0.00108011 -1.30099e-05 
         300      23.0555     0.999876   0.00107977 -1.29188e-05 
         300      23.1597     0.999876   0.00107936 -1.28319e-05 
         300      23.2642     0.999877   0.00107892 -1.27509e-05 
         300      23.3688     0.999877   0.00107849  -1.2676e-05 
         300      23.4737     0.999877   0.00107811 -1.26042e-05 
         300      23.5788     0.999877   0.00107782 -1.25299e-05 
         300      23.6843     0.999877   0.00107765 -1.24436e-05 
         300      23.7899     0.999877   0.00107765 -1.23325e-05 
         300      23.8957     0.999878   0.00107783 -1.21796e-05 
         300      24.0018     0.999878   0.00107822 -1.19636e-05 