Variables = x, y, u, v, p

Zone, I=800, F=POINT
        1000            0            0            0 -2.69583e-05 
        1000     0.000117  3.35941e-05  7.28616e-12 -2.69583e-05 
        1000     0.000469  0.000134664   3.7573e-11 -2.69583e-05 
        1000     0.001056  0.000303208   1.1602e-10 -2.69582e-05 
        1000     0.001879  0.000539516  2.84855e-10 -2.69581e-05 
        1000     0.002936  0.000843011  6.02535e-10  -2.6958e-05 
        1000     0.004228   0.00121398  1.14498e-09 -2.69579e-05 
        1000     0.005755   0.00165243  2.00493e-09 -2.69577e-05 
        1000     0.007518   0.00215863  3.29299e-09 -2.69576e-05 
        1000     0.009515   0.00273203   5.1347e-09 -2.69574e-05 
        1000     0.011746   0.00337261  7.67364e-09 -2.69571e-05 
        1000     0.014214   0.00408125  1.10752e-08 -2.69569e-05 
        1000     0.016915   0.00485678  1.55129e-08 -2.69566e-05 
        1000     0.019853   0.00570036    2.119e-08 -2.69563e-05 
        1000     0.023023   0.00661055  2.83109e-08  -2.6956e-05 
        1000     0.026431   0.00758908  3.71215e-08 -2.69556e-05 
        1000     0.030075   0.00863538  4.78691e-08 -2.69552e-05 
        1000      0.03395   0.00974799   6.0806e-08 -2.69548e-05 
        1000     0.038063    0.0109289  7.62419e-08 -2.69544e-05 
        1000     0.042408    0.0121765  9.44597e-08  -2.6954e-05 
        1000     0.046991    0.0134924  1.15809e-07 -2.69535e-05 
        1000     0.051805    0.0148746  1.40598e-07  -2.6953e-05 
        1000     0.056859    0.0163257  1.69236e-07 -2.69525e-05 
        1000     0.062143    0.0178429  2.02046e-07 -2.69519e-05 
        1000     0.067666    0.0194287  2.39484e-07 -2.69513e-05 
        1000     0.073425    0.0210822  2.81951e-07 -2.69507e-05 
        1000     0.079413    0.0228015   3.2983e-07 -2.69501e-05 
        1000     0.085642      0.02459  3.83671e-07 -2.69494e-05 
        1000       0.0921    0.0264442  4.43847e-07 -2.69487e-05 
        1000     0.098799    0.0283676  5.10965e-07  -2.6948e-05 
        1000     0.105727    0.0303567  5.85417e-07 -2.69472e-05 
        1000     0.112896    0.0324151  6.67865e-07 -2.69465e-05 
        1000       0.1203    0.0345409  7.58797e-07 -2.69457e-05 
        1000     0.127932    0.0367321  8.58689e-07 -2.69448e-05 
        1000     0.135806    0.0389928  9.68311e-07  -2.6944e-05 
        1000     0.143909    0.0413192  1.08809e-06 -2.69431e-05 
        1000     0.152253    0.0437148  1.21882e-06 -2.69421e-05 
        1000     0.160825    0.0461758  1.36095e-06 -2.69412e-05 
        1000     0.169639    0.0487062  1.51536e-06 -2.69402e-05 
        1000     0.178688    0.0513041  1.68262e-06 -2.69392e-05 
        1000     0.187965    0.0539674  1.86328e-06 -2.69381e-05 
        1000     0.197484    0.0567001  2.05831e-06  -2.6937e-05 
        1000      0.20723    0.0594979  2.26814e-06 -2.69359e-05 
        1000      0.21722    0.0623657  2.49388e-06 -2.69348e-05 
        1000     0.227436    0.0652983  2.73586e-06 -2.69336e-05 
        1000     0.237895    0.0683005  2.99527e-06 -2.69324e-05 
        1000     0.248581    0.0713678   3.2725e-06 -2.69311e-05 
        1000      0.25951    0.0745047  3.56875e-06 -2.69299e-05 
        1000     0.270675    0.0777093  3.88467e-06 -2.69285e-05 
        1000     0.282065    0.0809782  4.22077e-06 -2.69272e-05 
        1000       0.2937    0.0843173  4.57848e-06 -2.69258e-05 
        1000      0.30556    0.0877208  4.95803e-06 -2.69244e-05 
        1000     0.317665    0.0911943  5.36094e-06  -2.6923e-05 
        1000     0.329995    0.0947322  5.78743e-06 -2.69215e-05 
        1000     0.342569    0.0983398  6.23906e-06   -2.692e-05 
        1000     0.355379     0.102015  6.71646e-06 -2.69185e-05 
        1000     0.368414     0.105754  7.22013e-06 -2.69169e-05 
        1000     0.381693     0.109563  7.75174e-06 -2.69153e-05 
        1000     0.395198     0.113436  8.31152e-06 -2.69137e-05 
        1000     0.408948     0.117379  8.90122e-06 -2.69121e-05 
        1000     0.422921     0.121386  9.52086e-06 -2.69104e-05 
        1000     0.437141     0.125463  1.01725e-05 -2.69087e-05 
        1000     0.451585     0.129603  1.08561e-05  -2.6907e-05 
        1000     0.466275     0.133813  1.15737e-05 -2.69053e-05 
        1000       0.4812      0.13809  1.23259e-05 -2.69036e-05 
        1000     0.496348      0.14243   1.3113e-05 -2.69019e-05 
        1000     0.511744      0.14684  1.39375e-05 -2.69001e-05 
        1000     0.527361     0.151312  1.47989e-05 -2.68984e-05 
        1000     0.543227     0.155855  1.57001e-05 -2.68966e-05 
        1000     0.559314      0.16046  1.66404e-05 -2.68949e-05 
        1000      0.57565     0.165134  1.76228e-05 -2.68931e-05 
        1000      0.59222     0.169875  1.86475e-05 -2.68914e-05 
        1000     0.609012     0.174677  1.97151e-05 -2.68896e-05 
        1000     0.626053     0.179549  2.08284e-05 -2.68878e-05 
        1000     0.643315     0.184482  2.19869e-05 -2.68861e-05 
        1000     0.660826     0.189484  2.31936e-05 -2.68843e-05 
        1000     0.678557     0.194548  2.44481e-05 -2.68825e-05 
        1000     0.696538      0.19968  2.57537e-05 -2.68807e-05 
        1000     0.714754     0.204877  2.71107e-05 -2.68789e-05 
        1000      0.73319     0.210134  2.85195e-05 -2.68771e-05 
        1000     0.751876     0.215459  2.99835e-05 -2.68753e-05 
        1000     0.770782     0.220844  3.15018e-05 -2.68735e-05 
        1000     0.789937     0.226297  3.30779e-05 -2.68716e-05 
        1000     0.809313     0.231809  3.47111e-05 -2.68698e-05 
        1000     0.828939     0.237388  3.64049e-05 -2.68678e-05 
        1000     0.848784     0.243026  3.81582e-05 -2.68659e-05 
        1000      0.86888      0.24873   3.9975e-05 -2.68639e-05 
        1000     0.889212     0.254497  4.18553e-05 -2.68619e-05 
        1000     0.909761      0.26032  4.37988e-05 -2.68599e-05 
        1000     0.930563     0.266209  4.58101e-05 -2.68577e-05 
        1000     0.951582     0.272154  4.78871e-05 -2.68556e-05 
        1000     0.972854     0.278164  5.00346e-05 -2.68534e-05 
        1000     0.994343     0.284229  5.22504e-05 -2.68511e-05 
        1000      1.01608     0.290359  5.45393e-05 -2.68488e-05 
        1000      1.03806     0.296547   5.6901e-05 -2.68465e-05 
        1000      1.06025     0.302788  5.93347e-05 -2.68441e-05 
        1000       1.0827     0.309092  6.18454e-05 -2.68417e-05 
        1000      1.10536     0.315448  6.44306e-05 -2.68392e-05 
        1000      1.12828     0.321865  6.70954e-05 -2.68366e-05 
        1000      1.15142     0.328333  6.98369e-05 -2.68341e-05 
        1000       1.1748      0.33486  7.26605e-05 -2.68314e-05 
        1000      1.19842     0.341442  7.55654e-05 -2.68287e-05 
        1000      1.22226     0.348072  7.85502e-05  -2.6826e-05 
        1000      1.24635      0.35476  8.16209e-05 -2.68232e-05 
        1000      1.27066     0.361494  8.47737e-05 -2.68203e-05 
        1000      1.29522     0.368284  8.80149e-05 -2.68173e-05 
        1000         1.32     0.375119  9.13404e-05 -2.68142e-05 
        1000      1.34503     0.382008  9.47565e-05 -2.68111e-05 
        1000      1.37028     0.388939   9.8259e-05 -2.68078e-05 
        1000      1.39578     0.395922  0.000101854 -2.68045e-05 
        1000      1.42152     0.402951  0.000105541 -2.68012e-05 
        1000      1.44747     0.410019  0.000109316 -2.67978e-05 
        1000      1.47368     0.417136  0.000113187 -2.67945e-05 
        1000       1.5001     0.424288  0.000117147 -2.67914e-05 
        1000      1.52677     0.431487  0.000121205 -2.67882e-05 
        1000      1.55367      0.43872  0.000125355 -2.67849e-05 
        1000      1.58081     0.445997  0.000129602 -2.67814e-05 
        1000       1.6082     0.453309  0.000133944 -2.67778e-05 
        1000      1.63579     0.460651  0.000138378 -2.67741e-05 
        1000      1.66364     0.468031  0.000142913 -2.67702e-05 
        1000      1.69171     0.475438  0.000147541 -2.67663e-05 
        1000      1.72003      0.48288  0.000152271 -2.67622e-05 
        1000      1.74857     0.490345  0.000157094  -2.6758e-05 
        1000      1.77736     0.497842  0.000162018 -2.67537e-05 
        1000      1.80636     0.505358  0.000167037 -2.67493e-05 
        1000      1.83563     0.512902  0.000172156 -2.67448e-05 
        1000      1.86512     0.520468  0.000177374 -2.67402e-05 
        1000      1.89484     0.528046  0.000182684 -2.67355e-05 
        1000       1.9248     0.535646  0.000188095 -2.67308e-05 
        1000      1.95498     0.543255  0.000193597 -2.67259e-05 
        1000      1.98542     0.550882  0.000199199  -2.6721e-05 
        1000      2.01607     0.558513  0.000204891  -2.6716e-05 
        1000      2.04698     0.566158  0.000210681 -2.67109e-05 
        1000      2.07812     0.573808  0.000216564 -2.67058e-05 
        1000      2.10947     0.581455  0.000222534 -2.67005e-05 
        1000      2.14109     0.589109  0.000228599 -2.66952e-05 
        1000      2.17291     0.596754  0.000234748 -2.66898e-05 
        1000      2.20499     0.604401  0.000240989 -2.66843e-05 
        1000      2.23728     0.612035  0.000247311 -2.66788e-05 
        1000      2.26984     0.619665  0.000253722 -2.66731e-05 
        1000      2.30263     0.627282  0.000260216 -2.66673e-05 
        1000      2.33562     0.634878  0.000266784 -2.66614e-05 
        1000      2.36888     0.642461  0.000273436 -2.66554e-05 
        1000      2.40235     0.650018  0.000280159 -2.66493e-05 
        1000      2.43608     0.657556   0.00028696 -2.66431e-05 
        1000      2.47002     0.665061  0.000293826 -2.66367e-05 
        1000      2.50421     0.672543  0.000300767 -2.66302e-05 
        1000      2.53862     0.679986  0.000307767 -2.66236e-05 
        1000      2.57329     0.687399  0.000314834 -2.66168e-05 
        1000      2.60819     0.694773  0.000321961 -2.66098e-05 
        1000       2.6433       0.7021  0.000329138 -2.66027e-05 
        1000      2.67868     0.709387  0.000336372 -2.65954e-05 
        1000      2.71426     0.716621  0.000343649 -2.65879e-05 
        1000       2.7501     0.723809  0.000350977 -2.65802e-05 
        1000      2.78615     0.730938   0.00035834 -2.65724e-05 
        1000      2.82247     0.738015  0.000365745 -2.65644e-05 
        1000      2.85902     0.745032  0.000373182 -2.65563e-05 
        1000      2.89577      0.75198  0.000380642 -2.65479e-05 
        1000      2.93279     0.758867  0.000388131 -2.65395e-05 
        1000      2.97002      0.76568  0.000395633 -2.65309e-05 
        1000       3.0075     0.772426  0.000403156 -2.65221e-05 
        1000       3.0452     0.779092  0.000410682 -2.65133e-05 
        1000      3.08316     0.785685   0.00041822 -2.65044e-05 
        1000      3.12135     0.792197  0.000425757 -2.64954e-05 
        1000      3.15975      0.79862  0.000433283 -2.64864e-05 
        1000      3.19842     0.804962  0.000440806 -2.64774e-05 
        1000      3.23728     0.811211  0.000448308 -2.64683e-05 
        1000      3.27642     0.817373  0.000455797 -2.64594e-05 
        1000      3.31576     0.823436  0.000463254 -2.64505e-05 
        1000      3.35536     0.829408  0.000470688 -2.64417e-05 
        1000      3.39517     0.835276  0.000478081 -2.64331e-05 
        1000      3.43525     0.841049   0.00048544 -2.64246e-05 
        1000      3.47555     0.846718  0.000492754 -2.64163e-05 
        1000      3.51607     0.852278  0.000500011 -2.64081e-05 
        1000      3.55685     0.857736  0.000507218 -2.64002e-05 
        1000      3.59783     0.863081  0.000514356 -2.63925e-05 
        1000      3.63908      0.86832  0.000521432 -2.63849e-05 
        1000      3.68053     0.873443  0.000528426 -2.63775e-05 
        1000      3.72225     0.878457  0.000535342 -2.63701e-05 
        1000      3.76421     0.883356   0.00054218 -2.63607e-05 
        1000      3.80636     0.888136  0.000548943 -2.63472e-05 
        1000      3.84879     0.892804  0.000555613 -2.63337e-05 
        1000      3.89142     0.897351  0.000562179 -2.63203e-05 
        1000      3.93431     0.901786  0.000568647 -2.63067e-05 
        1000      3.97741     0.906098  0.000575005  -2.6293e-05 
        1000      4.02077     0.910296   0.00058126 -2.62791e-05 
        1000      4.06434     0.914372    0.0005874  -2.6265e-05 
        1000      4.10817     0.918331   0.00059343 -2.62506e-05 
        1000      4.15224     0.922172  0.000599344 -2.62358e-05 
        1000      4.19651     0.925891  0.000605134 -2.62208e-05 
        1000      4.24106     0.929495  0.000610805 -2.62054e-05 
        1000       4.2858     0.932978  0.000616347 -2.61897e-05 
        1000      4.33081     0.936347  0.000621765 -2.61737e-05 
        1000      4.37602     0.939597  0.000627049 -2.61572e-05 
        1000       4.4215     0.942735  0.000632204 -2.61405e-05 
        1000      4.46721     0.945758  0.000637225 -2.61233e-05 
        1000      4.51313     0.948666  0.000642105 -2.61059e-05 
        1000      4.55931     0.951466  0.000646852 -2.60881e-05 
        1000       4.6057     0.954153  0.000651455   -2.607e-05 
        1000      4.65235     0.956735  0.000655921 -2.60517e-05 
        1000      4.69921     0.959208  0.000660243  -2.6033e-05 
        1000      4.74633     0.961579  0.000664427 -2.60142e-05 
        1000      4.79369     0.963848  0.000668469 -2.59951e-05 
        1000      4.84125     0.966015  0.000672367 -2.59758e-05 
        1000      4.88908     0.968085  0.000676127 -2.59563e-05 
        1000      4.93711     0.970058  0.000679743 -2.59367e-05 
        1000      4.98541     0.971939  0.000683223  -2.5917e-05 
        1000      5.03391     0.973728  0.000686563 -2.58972e-05 
        1000      5.08268      0.97543  0.000689769 -2.58772e-05 
        1000      5.13165     0.977045  0.000692838 -2.58573e-05 
        1000      5.18089     0.978577  0.000695777 -2.58373e-05 
        1000      5.23037     0.980028  0.000698586 -2.58173e-05 
        1000      5.28004       0.9814  0.000701265 -2.57973e-05 
        1000      5.32999     0.982697  0.000703822 -2.57774e-05 
        1000      5.38013     0.983921  0.000706256 -2.57575e-05 
        1000      5.43055     0.985075  0.000708572 -2.57377e-05 
        1000      5.48116      0.98616  0.000710772  -2.5718e-05 
        1000      5.53204     0.987182   0.00071286 -2.56984e-05 
        1000      5.58317     0.988141   0.00071484  -2.5679e-05 
        1000      5.63448     0.989039  0.000716714 -2.56597e-05 
        1000      5.68607     0.989882  0.000718487 -2.56406e-05 
        1000      5.73786     0.990669   0.00072016 -2.56216e-05 
        1000      5.78992     0.991404   0.00072174 -2.56029e-05 
        1000      5.84218      0.99209  0.000723227 -2.55843e-05 
        1000      5.89471     0.992729  0.000724628  -2.5566e-05 
        1000      5.94748     0.993323  0.000725945 -2.55479e-05 
        1000      6.00044     0.993875  0.000727179   -2.553e-05 
        1000      6.05367     0.994387  0.000728337 -2.55123e-05 
        1000       6.1071      0.99486   0.00072942 -2.54949e-05 
        1000      6.16081     0.995299  0.000730433 -2.54777e-05 
        1000      6.21471     0.995703  0.000731376 -2.54607e-05 
        1000      6.26889     0.996076  0.000732255 -2.54439e-05 
        1000      6.32326      0.99642  0.000733071 -2.54272e-05 
        1000       6.3779     0.996736  0.000733828 -2.54108e-05 
        1000      6.43279     0.997026  0.000734528 -2.53944e-05 
        1000      6.48786     0.997292  0.000735174 -2.53781e-05 
        1000      6.54321     0.997535  0.000735768 -2.53618e-05 
        1000      6.59876     0.997757  0.000736313 -2.53454e-05 
        1000      6.65458      0.99796  0.000736813 -2.53289e-05 
        1000      6.71059     0.998145  0.000737268 -2.53121e-05 
        1000      6.76689     0.998313  0.000737683 -2.52948e-05 
        1000      6.82341     0.998466   0.00073806  -2.5277e-05 
        1000      6.88013     0.998605  0.000738401 -2.52584e-05 
        1000      6.93713      0.99873  0.000738709 -2.52387e-05 
        1000      6.99432     0.998844  0.000738988 -2.52178e-05 
        1000      7.05178     0.998946   0.00073924 -2.51952e-05 
        1000      7.10944     0.999038  0.000739468 -2.51706e-05 
        1000      7.16738     0.999122  0.000739676 -2.51436e-05 
        1000      7.22551     0.999196  0.000739867 -2.51137e-05 
        1000      7.28391     0.999263  0.000740045 -2.50802e-05 
        1000      7.34256     0.999323  0.000740213 -2.50426e-05 
        1000      7.40139     0.999377  0.000740374     -2.5e-05 
        1000       7.4605     0.999425  0.000740532 -2.49516e-05 
        1000       7.5198     0.999468  0.000740689 -2.48964e-05 
        1000      7.57939     0.999506  0.000740794 -2.48754e-05 
        1000      7.63916      0.99954  0.000740868 -2.48672e-05 
        1000      7.69921      0.99957  0.000740931 -2.48593e-05 
        1000       7.7595     0.999597  0.000740984 -2.48526e-05 
        1000      7.81998      0.99962   0.00074103  -2.4848e-05 
        1000      7.88073      0.99964  0.000741074 -2.48464e-05 
        1000      7.94168     0.999658  0.000741121  -2.4849e-05 
        1000      8.00291     0.999673  0.000741178  -2.4857e-05 
        1000      8.06432     0.999687  0.000741204 -2.48366e-05 
        1000      8.12602     0.999699  0.000741215 -2.48024e-05 
        1000      8.18796     0.999709  0.000741234 -2.47702e-05 
        1000      8.25008     0.999718  0.000741263 -2.47401e-05 
        1000      8.31248     0.999726  0.000741305 -2.47122e-05 
        1000      8.37507     0.999733  0.000741363 -2.46869e-05 
        1000      8.43794     0.999739  0.000741383 -2.46607e-05 
        1000        8.501     0.999744  0.000741378 -2.46328e-05 
        1000      8.56434     0.999749  0.000741376 -2.46047e-05 
        1000      8.62787     0.999753  0.000741376 -2.45766e-05 
        1000      8.69169     0.999756  0.000741377 -2.45484e-05 
        1000      8.75574     0.999759   0.00074138 -2.45203e-05 
        1000      8.81997     0.999762  0.000741383 -2.44923e-05 
        1000      8.88449     0.999764  0.000741388 -2.44645e-05 
        1000      8.94919     0.999766  0.000741392 -2.44369e-05 
        1000      9.01418     0.999768  0.000741397 -2.44095e-05 
        1000      9.07935      0.99977  0.000741401 -2.43824e-05 
        1000      9.14481     0.999771  0.000741406 -2.43556e-05 
        1000      9.21051     0.999773   0.00074141  -2.4329e-05 
        1000      9.27639     0.999774  0.000741415 -2.43028e-05 
        1000      9.34255     0.999775  0.000741419 -2.42768e-05 
        1000       9.4089     0.999776  0.000741422 -2.42512e-05 
        1000      9.47553     0.999777  0.000741425 -2.42257e-05 
        1000      9.54235     0.999778  0.000741427 -2.42005e-05 
        1000      9.60945     0.999779  0.000741429 -2.41755e-05 
        1000      9.67674     0.999779  0.000741429 -2.41507e-05 
        1000      9.74432      0.99978  0.000741429 -2.41259e-05 
        1000      9.81212     0.999781  0.000741428 -2.41012e-05 
        1000      9.88012     0.999781  0.000741426 -2.40765e-05 
        1000       9.9484     0.999782  0.000741423 -2.40518e-05 
        1000      10.0169     0.999782  0.000741419 -2.40269e-05 
        1000      10.0856     0.999783  0.000741414 -2.40019e-05 
        1000      10.1545     0.999783  0.000741407 -2.39767e-05 
        1000      10.2238     0.999783  0.000741401 -2.39513e-05 
        1000      10.2932     0.999784  0.000741393 -2.39256e-05 
        1000      10.3628     0.999784  0.000741384 -2.38995e-05 
        1000      10.4328     0.999785  0.000741375 -2.38731e-05 
        1000      10.5029     0.999785  0.000741366 -2.38463e-05 
        1000      10.5733     0.999785  0.000741357  -2.3819e-05 
        1000      10.6438     0.999786  0.000741348 -2.37914e-05 
        1000      10.7147     0.999786  0.000741339 -2.37633e-05 
        1000      10.7858     0.999787   0.00074133 -2.37348e-05 
        1000      10.8571     0.999787  0.000741323  -2.3706e-05 
        1000      10.9287     0.999788  0.000741317 -2.36767e-05 
        1000      11.0004     0.999788  0.000741311 -2.36471e-05 
        1000      11.0725     0.999789  0.000741308 -2.36173e-05 
        1000      11.1447     0.999789  0.000741305 -2.35872e-05 
        1000      11.2172      0.99979  0.000741305  -2.3557e-05 
        1000      11.2899      0.99979  0.000741305 -2.35267e-05 
        1000      11.3628     0.999791  0.000741308 -2.34964e-05 
        1000      11.4361     0.999791  0.000741311 -2.34662e-05 
        1000      11.5095     0.999792  0.000741316 -2.34362e-05 
        1000      11.5831     0.999792  0.000741321 -2.34064e-05 
        1000       11.657     0.999793  0.000741327  -2.3377e-05 
        1000      11.7312     0.999793  0.000741332 -2.33479e-05 
        1000      11.8055     0.999794  0.000741337 -2.33193e-05 
        1000      11.8801     0.999794  0.000741341 -2.32912e-05 
        1000       11.955     0.999795  0.000741343 -2.32636e-05 
        1000        12.03     0.999796  0.000741344 -2.32365e-05 
        1000      12.1053     0.999796  0.000741342 -2.32097e-05 
        1000      12.1809     0.999797  0.000741338 -2.31832e-05 
        1000      12.2567     0.999797  0.000741331 -2.31567e-05 
        1000      12.3326     0.999798  0.000741324 -2.31301e-05 
        1000      12.4089     0.999798  0.000741317 -2.31029e-05 
        1000      12.4854     0.999799  0.000741311 -2.30747e-05 
        1000      12.5621     0.999799  0.000741312  -2.3045e-05 
        1000      12.6391       0.9998  0.000741321  -2.3013e-05 
        1000      12.7162       0.9998  0.000741346 -2.29779e-05 
        1000      12.7937     0.999801   0.00074134 -2.29488e-05 
        1000      12.8713     0.999801   0.00074131 -2.29235e-05 
        1000      12.9492     0.999802  0.000741288 -2.28958e-05 
        1000      13.0273     0.999803  0.000741273 -2.28665e-05 
        1000      13.1057     0.999803  0.000741265  -2.2836e-05 
        1000      13.1843     0.999804  0.000741261 -2.28049e-05 
        1000      13.2631     0.999805   0.00074126 -2.27735e-05 
        1000      13.3422     0.999805  0.000741262 -2.27421e-05 
        1000      13.4215     0.999806  0.000741265 -2.27108e-05 
        1000       13.501     0.999806  0.000741268 -2.26799e-05 
        1000      13.5807     0.999807   0.00074127 -2.26494e-05 
        1000      13.6608     0.999808  0.000741272 -2.26193e-05 
        1000       13.741     0.999808  0.000741272 -2.25898e-05 
        1000      13.8215     0.999809  0.000741271 -2.25607e-05 
        1000      13.9022      0.99981  0.000741268  -2.2532e-05 
        1000      13.9831      0.99981  0.000741263 -2.25036e-05 
        1000      14.0643     0.999811  0.000741256 -2.24754e-05 
        1000      14.1457     0.999812  0.000741248 -2.24474e-05 
        1000      14.2274     0.999812  0.000741239 -2.24194e-05 
        1000      14.3092     0.999813  0.000741229 -2.23913e-05 
        1000      14.3914     0.999813   0.00074122  -2.2363e-05 
        1000      14.4738     0.999814   0.00074121 -2.23344e-05 
        1000      14.5563     0.999815  0.000741201 -2.23054e-05 
        1000      14.6392     0.999815  0.000741194 -2.22759e-05 
        1000      14.7222     0.999816  0.000741188 -2.22459e-05 
        1000      14.8055     0.999817  0.000741184 -2.22152e-05 
        1000       14.889     0.999817  0.000741182 -2.21839e-05 
        1000      14.9728     0.999818  0.000741182  -2.2152e-05 
        1000      15.0568     0.999819  0.000741185 -2.21193e-05 
        1000       15.141     0.999819   0.00074119 -2.20859e-05 
        1000      15.2255      0.99982  0.000741197 -2.20519e-05 
        1000      15.3102      0.99982  0.000741207 -2.20172e-05 
        1000      15.3952     0.999821  0.000741217 -2.19819e-05 
        1000      15.4803     0.999821  0.000741229  -2.1946e-05 
        1000      15.5657     0.999822  0.000741241 -2.19097e-05 
        1000      15.6514     0.999823  0.000741253 -2.18729e-05 
        1000      15.7372     0.999823  0.000741265 -2.18358e-05 
        1000      15.8234     0.999824  0.000741274 -2.17984e-05 
        1000      15.9097     0.999824  0.000741282 -2.17609e-05 
        1000      15.9963     0.999825  0.000741287 -2.17233e-05 
        1000      16.0831     0.999825  0.000741289 -2.16857e-05 
        1000      16.1702     0.999826  0.000741288 -2.16482e-05 
        1000      16.2574     0.999827  0.000741282 -2.16108e-05 
        1000       16.345     0.999827  0.000741273 -2.15737e-05 
        1000      16.4328     0.999828  0.000741259 -2.15369e-05 
        1000      16.5207     0.999828  0.000741242 -2.15004e-05 
        1000       16.609     0.999829  0.000741222 -2.14644e-05 
        1000      16.6974      0.99983    0.0007412 -2.14288e-05 
        1000      16.7861      0.99983  0.000741176 -2.13937e-05 
        1000       16.875     0.999831  0.000741153 -2.13591e-05 
        1000      16.9642     0.999832  0.000741131 -2.13251e-05 
        1000      17.0537     0.999832  0.000741112 -2.12916e-05 
        1000      17.1433     0.999833  0.000741098 -2.12589e-05 
        1000      17.2332     0.999834   0.00074109 -2.12268e-05 
        1000      17.3232     0.999834  0.000741089 -2.11955e-05 
        1000      17.4136     0.999835  0.000741097 -2.11651e-05 
        1000      17.5041     0.999835  0.000741114 -2.11358e-05 
        1000       17.595     0.999836  0.000741139 -2.11078e-05 
        1000      17.6861     0.999836  0.000741171 -2.10813e-05 
        1000      17.7773     0.999837  0.000741206 -2.10568e-05 
        1000      17.8689     0.999837  0.000741239 -2.10348e-05 
        1000      17.9606     0.999838  0.000741262 -2.10157e-05 
        1000      18.0526     0.999839  0.000741295 -2.09654e-05 
        1000      18.1448     0.999839  0.000741324 -2.08923e-05 
        1000      18.2373      0.99984  0.000741289 -2.08279e-05 
        1000      18.3299     0.999841  0.000741141  -2.0772e-05 
        1000      18.4229     0.999842   0.00074081 -2.07242e-05 
        1000      18.5161     0.999842  0.000740801 -2.07173e-05 
        1000      18.6094     0.999843  0.000741054 -2.07263e-05 
        1000      18.7031     0.999844  0.000741202 -2.07243e-05 
        1000      18.7969     0.999844  0.000741269 -2.07135e-05 
        1000       18.891     0.999845  0.000741277 -2.06954e-05 
        1000      18.9853     0.999846  0.000741244 -2.06717e-05 
        1000      19.0799     0.999846  0.000741253 -2.05997e-05 
        1000      19.1748     0.999847  0.000741248 -2.05338e-05 
        1000      19.2698     0.999848  0.000741232 -2.04751e-05 
        1000      19.3651     0.999849  0.000741209 -2.04222e-05 
        1000      19.4606     0.999849  0.000741183 -2.03742e-05 
        1000      19.5563      0.99985  0.000741157   -2.033e-05 
        1000      19.6523     0.999851  0.000741133  -2.0289e-05 
        1000      19.7485     0.999852  0.000741112 -2.02504e-05 
        1000      19.8449     0.999852  0.000741096 -2.02135e-05 
        1000      19.9417     0.999853  0.000741084 -2.01779e-05 
        1000      20.0386     0.999854  0.000741078 -2.01431e-05 
        1000      20.1357     0.999855  0.000741077 -2.01088e-05 
        1000      20.2331     0.999855   0.00074108 -2.00747e-05 
        1000      20.3307     0.999856  0.000741087 -2.00405e-05 
        1000      20.4286     0.999857  0.000741098 -2.00061e-05 
        1000      20.5267     0.999857  0.000741111 -1.99713e-05 
        1000       20.625     0.999858  0.000741127 -1.99361e-05 
        1000      20.7236     0.999859  0.000741143 -1.99003e-05 
        1000      20.8224      0.99986   0.00074116 -1.98641e-05 
        1000      20.9215      0.99986  0.000741176 -1.98273e-05 
        1000      21.0207     0.999861  0.000741191   -1.979e-05 
        1000      21.1202     0.999862  0.000741205 -1.97522e-05 
        1000      21.2199     0.999863  0.000741216 -1.97141e-05 
        1000      21.3199     0.999864  0.000741225 -1.96755e-05 
        1000      21.4202     0.999865  0.000741232 -1.96367e-05 
        1000      21.5206     0.999865  0.000741236 -1.95976e-05 
        1000      21.6213     0.999866  0.000741237 -1.95584e-05 
        1000      21.7222     0.999867  0.000741236  -1.9519e-05 
        1000      21.8234     0.999868  0.000741232 -1.94796e-05 
        1000      21.9247     0.999869  0.000741226 -1.94403e-05 
        1000      22.0264      0.99987  0.000741219 -1.94009e-05 
        1000      22.1282      0.99987   0.00074121 -1.93617e-05 
        1000      22.2303     0.999871    0.0007412 -1.93226e-05 
        1000      22.3327     0.999872   0.00074119 -1.92836e-05 
        1000      22.4352     0.999873   0.00074118 -1.92448e-05 
        1000       22.538     0.999874  0.000741171 -1.92061e-05 
        1000       22.641     0.999874  0.000741163 -1.91676e-05 
        1000      22.7443     0.999875  0.000741156 -1.91292e-05 
        1000      22.8477     0.999876  0.000741151  -1.9091e-05 
        1000      22.9515     0.999877  0.000741148 -1.90528e-05 
        1000      23.0555     0.999877  0.000741147 -1.90146e-05 
        1000      23.1597     0.999878  0.000741149 -1.89765e-05 
        1000      23.2642     0.999879  0.000741152 -1.89383e-05 
        1000      23.3688     0.999879  0.000741157    -1.89e-05 
        1000      23.4737      0.99988  0.000741163 -1.88616e-05 
        1000      23.5788     0.999881  0.000741171 -1.88231e-05 
        1000      23.6843     0.999882  0.000741179 -1.87843e-05 
        1000      23.7899     0.999882  0.000741187 -1.87452e-05 
        1000      23.8957     0.999883  0.000741195 -1.87059e-05 
        1000      24.0018     0.999884  0.000741201 -1.86662e-05 