Variables = x, y, u, v, p

Zone, I=800, F=POINT
         700            0            0            0 -2.56098e-05 
         700     0.000117   3.8142e-05  1.07415e-12 -2.56097e-05 
         700     0.000469  0.000152894  1.72938e-11 -2.56097e-05 
         700     0.001056  0.000344256  8.77056e-11 -2.56096e-05 
         700     0.001879  0.000612554  2.77718e-10 -2.56095e-05 
         700     0.002936  0.000957136  6.78085e-10 -2.56093e-05 
         700     0.004228   0.00137833  1.40621e-09 -2.56091e-05 
         700     0.005755   0.00187613  2.60541e-09 -2.56088e-05 
         700     0.007518   0.00245087  4.44622e-09 -2.56086e-05 
         700     0.009515   0.00310189  7.12203e-09 -2.56083e-05 
         700     0.011746    0.0038292  1.08534e-08 -2.56079e-05 
         700     0.014214   0.00463376  1.58935e-08 -2.56075e-05 
         700     0.016915   0.00551429  2.25076e-08 -2.56071e-05 
         700     0.019853   0.00647208  3.10055e-08 -2.56066e-05 
         700     0.023023    0.0075055  4.16975e-08 -2.56061e-05 
         700     0.026431   0.00861651  5.49558e-08 -2.56056e-05 
         700     0.030075   0.00980445  7.11538e-08  -2.5605e-05 
         700      0.03395    0.0110677  9.06707e-08 -2.56044e-05 
         700     0.038063    0.0124085  1.13971e-07 -2.56038e-05 
         700     0.042408     0.013825  1.41476e-07 -2.56031e-05 
         700     0.046991    0.0153191  1.73707e-07 -2.56024e-05 
         700     0.051805    0.0168884   2.1112e-07 -2.56016e-05 
         700     0.056859     0.018536  2.54323e-07 -2.56008e-05 
         700     0.062143    0.0202586  3.03788e-07    -2.56e-05 
         700     0.067666    0.0220591  3.60187e-07 -2.55991e-05 
         700     0.073425    0.0239365  4.24106e-07 -2.55982e-05 
         700     0.079413    0.0258886    4.961e-07 -2.55973e-05 
         700     0.085642    0.0279192  5.76978e-07 -2.55963e-05 
         700       0.0921    0.0300245  6.67274e-07 -2.55953e-05 
         700     0.098799    0.0322083  7.67872e-07 -2.55942e-05 
         700     0.105727    0.0344668  8.79336e-07 -2.55931e-05 
         700     0.112896    0.0368038  1.00263e-06  -2.5592e-05 
         700       0.1203    0.0392174  1.13845e-06 -2.55908e-05 
         700     0.127932    0.0417053  1.28747e-06 -2.55896e-05 
         700     0.135806    0.0442721  1.45083e-06 -2.55884e-05 
         700     0.143909    0.0469135  1.62911e-06 -2.55871e-05 
         700     0.152253    0.0496334  1.82349e-06 -2.55858e-05 
         700     0.160825    0.0524276  2.03459e-06 -2.55844e-05 
         700     0.169639    0.0553006   2.2637e-06 -2.55831e-05 
         700     0.178688    0.0582502  2.51162e-06 -2.55816e-05 
         700     0.187965     0.061274  2.77916e-06 -2.55802e-05 
         700     0.197484    0.0643766  3.06774e-06 -2.55787e-05 
         700      0.20723    0.0675531  3.37796e-06 -2.55771e-05 
         700      0.21722    0.0708091  3.71144e-06 -2.55756e-05 
         700     0.227436    0.0741385  4.06869e-06  -2.5574e-05 
         700     0.237895     0.077547  4.45143e-06 -2.55723e-05 
         700     0.248581    0.0810294  4.86022e-06 -2.55706e-05 
         700      0.25951    0.0845907  5.29685e-06 -2.55689e-05 
         700     0.270675    0.0882287  5.76231e-06 -2.55672e-05 
         700     0.282065    0.0919398  6.25732e-06 -2.55654e-05 
         700       0.2937    0.0957305  6.78399e-06 -2.55635e-05 
         700      0.30556    0.0995941  7.34269e-06 -2.55617e-05 
         700     0.317665     0.103537  7.93567e-06 -2.55598e-05 
         700     0.329995     0.107553   8.5633e-06 -2.55578e-05 
         700     0.342569     0.111648   9.2279e-06 -2.55558e-05 
         700     0.355379      0.11582  9.93047e-06 -2.55538e-05 
         700     0.368414     0.120064  1.06718e-05 -2.55517e-05 
         700     0.381693     0.124387  1.14543e-05 -2.55497e-05 
         700     0.395198     0.128783  1.22784e-05 -2.55475e-05 
         700     0.408948     0.133258  1.31468e-05 -2.55454e-05 
         700     0.422921     0.137804  1.40594e-05 -2.55431e-05 
         700     0.437141      0.14243  1.50195e-05 -2.55409e-05 
         700     0.451585     0.147128   1.6027e-05 -2.55386e-05 
         700     0.466275     0.151905   1.7085e-05 -2.55363e-05 
         700       0.4812     0.156757  1.81944e-05 -2.55339e-05 
         700     0.496348      0.16168  1.93557e-05 -2.55315e-05 
         700     0.511744     0.166683  2.05726e-05 -2.55291e-05 
         700     0.527361     0.171755  2.18446e-05 -2.55266e-05 
         700     0.543227     0.176907  2.31754e-05 -2.55241e-05 
         700     0.559314     0.182128  2.45646e-05 -2.55215e-05 
         700      0.57565     0.187428  2.60161e-05  -2.5519e-05 
         700      0.59222     0.192802  2.75305e-05 -2.55163e-05 
         700     0.609012     0.198245  2.91086e-05 -2.55136e-05 
         700     0.626053     0.203767   3.0754e-05 -2.55109e-05 
         700     0.643315     0.209356  3.24661e-05 -2.55082e-05 
         700     0.660826     0.215024  3.42496e-05 -2.55054e-05 
         700     0.678557     0.220759  3.61031e-05 -2.55026e-05 
         700     0.696538     0.226571  3.80317e-05 -2.54997e-05 
         700     0.714754     0.232455  4.00356e-05 -2.54968e-05 
         700      0.73319     0.238406  4.21149e-05 -2.54939e-05 
         700     0.751876     0.244432  4.42747e-05 -2.54908e-05 
         700     0.770782     0.250525  4.65134e-05 -2.54878e-05 
         700     0.789937     0.256692  4.88362e-05 -2.54847e-05 
         700     0.809313     0.262925  5.12415e-05 -2.54815e-05 
         700     0.828939     0.269231  5.37347e-05 -2.54783e-05 
         700     0.848784     0.275602  5.63137e-05 -2.54751e-05 
         700      0.86888     0.282045  5.89844e-05 -2.54718e-05 
         700     0.889212     0.288556  6.17468e-05 -2.54685e-05 
         700     0.909761     0.295129  6.45999e-05 -2.54651e-05 
         700     0.930563     0.301773  6.75505e-05 -2.54617e-05 
         700     0.951582     0.308478  7.05954e-05 -2.54583e-05 
         700     0.972854     0.315253  7.37414e-05 -2.54548e-05 
         700     0.994343     0.322086   7.6985e-05 -2.54513e-05 
         700      1.01608     0.328987  8.03332e-05 -2.54478e-05 
         700      1.03806     0.335951  8.37853e-05 -2.54442e-05 
         700      1.06025     0.342971  8.73398e-05 -2.54405e-05 
         700       1.0827     0.350057   9.1004e-05 -2.54368e-05 
         700      1.10536     0.357196  9.47738e-05  -2.5433e-05 
         700      1.12828       0.3644  9.86564e-05 -2.54291e-05 
         700      1.15142     0.371655  0.000102648 -2.54251e-05 
         700       1.1748     0.378971  0.000106755 -2.54211e-05 
         700      1.19842     0.386343  0.000110976 -2.54171e-05 
         700      1.22226     0.393762   0.00011531 -2.54129e-05 
         700      1.24635     0.401239  0.000119764 -2.54087e-05 
         700      1.27066      0.40876  0.000124332 -2.54045e-05 
         700      1.29522     0.416337  0.000129023 -2.54002e-05 
         700         1.32     0.423957  0.000133831 -2.53958e-05 
         700      1.34503     0.431628  0.000138765 -2.53914e-05 
         700      1.37028     0.439337  0.000143816  -2.5387e-05 
         700      1.39578     0.447096  0.000148995 -2.53825e-05 
         700      1.42152     0.454895  0.000154297 -2.53779e-05 
         700      1.44747     0.462727  0.000159719 -2.53731e-05 
         700      1.47368     0.470604   0.00016527 -2.53681e-05 
         700       1.5001     0.478509  0.000170939 -2.53628e-05 
         700      1.52677     0.486453  0.000176745 -2.53578e-05 
         700      1.55367     0.494422  0.000182673  -2.5353e-05 
         700      1.58081     0.502427  0.000188728 -2.53483e-05 
         700       1.6082     0.510458  0.000194907 -2.53435e-05 
         700      1.63579     0.518507  0.000201206 -2.53386e-05 
         700      1.66364     0.526584  0.000207634 -2.53336e-05 
         700      1.69171     0.534674  0.000214182 -2.53284e-05 
         700      1.72003     0.542787  0.000220859 -2.53231e-05 
         700      1.74857     0.550908  0.000227654 -2.53176e-05 
         700      1.77736     0.559046  0.000234578 -2.53119e-05 
         700      1.80636     0.567187  0.000241617 -2.53061e-05 
         700      1.83563      0.57534  0.000248782    -2.53e-05 
         700      1.86512     0.583496  0.000256065 -2.52938e-05 
         700      1.89484     0.591645   0.00026346 -2.52874e-05 
         700       1.9248     0.599797  0.000270975 -2.52809e-05 
         700      1.95498     0.607935  0.000278595 -2.52742e-05 
         700      1.98542     0.616071  0.000286332 -2.52674e-05 
         700      2.01607     0.624188   0.00029417 -2.52605e-05 
         700      2.04698     0.632295  0.000302118 -2.52535e-05 
         700      2.07812     0.640382  0.000310168 -2.52464e-05 
         700      2.10947      0.64844  0.000318309 -2.52392e-05 
         700      2.14109     0.656477  0.000326552 -2.52319e-05 
         700      2.17291     0.664478  0.000334879 -2.52246e-05 
         700      2.20499     0.672452    0.0003433 -2.52172e-05 
         700      2.23728     0.680382  0.000351798 -2.52098e-05 
         700      2.26984     0.688278  0.000360381 -2.52023e-05 
         700      2.30263     0.696129   0.00036904 -2.51947e-05 
         700      2.33562     0.703925  0.000377763  -2.5187e-05 
         700      2.36888     0.711677  0.000386558 -2.51792e-05 
         700      2.40235     0.719366  0.000395407 -2.51713e-05 
         700      2.43608     0.727002  0.000404318 -2.51633e-05 
         700      2.47002     0.734569  0.000413273 -2.51552e-05 
         700      2.50421     0.742075   0.00042228 -2.51468e-05 
         700      2.53862     0.749505  0.000431318 -2.51383e-05 
         700      2.57329     0.756867  0.000440397 -2.51296e-05 
         700      2.60819     0.764152  0.000449503 -2.51206e-05 
         700       2.6433     0.771349  0.000458622 -2.51114e-05 
         700      2.67868     0.778467  0.000467762  -2.5102e-05 
         700      2.71426     0.785491  0.000476902 -2.50922e-05 
         700       2.7501      0.79243   0.00048605 -2.50822e-05 
         700      2.78615     0.799268  0.000495184 -2.50718e-05 
         700      2.82247     0.806013  0.000504312 -2.50612e-05 
         700      2.85902     0.812656  0.000513418 -2.50503e-05 
         700      2.89577      0.81919  0.000522489 -2.50392e-05 
         700      2.93279     0.825622  0.000531532 -2.50277e-05 
         700      2.97002     0.831939  0.000540524 -2.50161e-05 
         700       3.0075     0.838147  0.000549474 -2.50043e-05 
         700       3.0452     0.844235  0.000558359 -2.49923e-05 
         700      3.08316     0.850209  0.000567187 -2.49801e-05 
         700      3.12135     0.856064  0.000575944 -2.49679e-05 
         700      3.15975      0.86179  0.000584615 -2.49556e-05 
         700      3.19842     0.867397  0.000593208 -2.49433e-05 
         700      3.23728     0.872873  0.000601704 -2.49311e-05 
         700      3.27642     0.878225  0.000610108 -2.49187e-05 
         700      3.31576     0.883444  0.000618403 -2.49064e-05 
         700      3.35536     0.888535  0.000626594  -2.4894e-05 
         700      3.39517     0.893491  0.000634664 -2.48814e-05 
         700      3.43525     0.898317  0.000642619 -2.48684e-05 
         700      3.47555      0.90301  0.000650446 -2.48549e-05 
         700      3.51607     0.907564  0.000658134 -2.48405e-05 
         700      3.55685     0.911987  0.000665688 -2.48248e-05 
         700      3.59783     0.916272  0.000673087 -2.48074e-05 
         700      3.63908     0.920425  0.000680336 -2.47874e-05 
         700      3.68053      0.92444  0.000687412 -2.47641e-05 
         700      3.72225     0.928325  0.000694313 -2.47365e-05 
         700      3.76421     0.932075  0.000701044 -2.47073e-05 
         700      3.80636      0.93569  0.000707638 -2.46817e-05 
         700      3.84879     0.939176  0.000714069 -2.46524e-05 
         700      3.89142     0.942528  0.000720343 -2.46593e-05 
         700      3.93431     0.945753  0.000726444 -2.46633e-05 
         700      3.97741     0.948849  0.000732359 -2.46637e-05 
         700      4.02077     0.951821  0.000738097 -2.46608e-05 
         700      4.06434     0.954666  0.000743648 -2.46549e-05 
         700      4.10817     0.957391   0.00074902 -2.46463e-05 
         700      4.15224     0.959996  0.000754209 -2.46354e-05 
         700      4.19651     0.962481  0.000759212 -2.46223e-05 
         700      4.24106     0.964853  0.000764036 -2.46074e-05 
         700       4.2858     0.967111  0.000768675 -2.45909e-05 
         700      4.33081      0.96926  0.000773138 -2.45729e-05 
         700      4.37602       0.9713  0.000777419 -2.45538e-05 
         700       4.4215     0.973237  0.000781527 -2.45337e-05 
         700      4.46721     0.975073  0.000785459 -2.45129e-05 
         700      4.51313      0.97681  0.000789216 -2.44913e-05 
         700      4.55931     0.978452  0.000792807 -2.44693e-05 
         700       4.6057     0.980001  0.000796228  -2.4447e-05 
         700      4.65235     0.981462  0.000799488 -2.44244e-05 
         700      4.69921     0.982836  0.000802585 -2.44018e-05 
         700      4.74633     0.984129  0.000805528 -2.43791e-05 
         700      4.79369     0.985343  0.000808318 -2.43564e-05 
         700      4.84125      0.98648  0.000810958 -2.43339e-05 
         700      4.88908     0.987544  0.000813454 -2.43116e-05 
         700      4.93711     0.988539  0.000815809 -2.42896e-05 
         700      4.98541     0.989467  0.000818029 -2.42678e-05 
         700      5.03391     0.990332  0.000820117 -2.42464e-05 
         700      5.08268     0.991137  0.000822079 -2.42253e-05 
         700      5.13165     0.991884  0.000823918 -2.42045e-05 
         700      5.18089     0.992578  0.000825641  -2.4184e-05 
         700      5.23037     0.993221  0.000827252 -2.41639e-05 
         700      5.28004     0.993814  0.000828754 -2.41441e-05 
         700      5.32999     0.994362  0.000830155 -2.41245e-05 
         700      5.38013     0.994867  0.000831457 -2.41052e-05 
         700      5.43055     0.995332  0.000832667 -2.40862e-05 
         700      5.48116     0.995759  0.000833788 -2.40673e-05 
         700      5.53204     0.996151  0.000834827 -2.40486e-05 
         700      5.58317      0.99651  0.000835786   -2.403e-05 
         700      5.63448     0.996837   0.00083667 -2.40115e-05 
         700      5.68607     0.997136  0.000837485 -2.39929e-05 
         700      5.73786     0.997409  0.000838234 -2.39744e-05 
         700      5.78992     0.997656  0.000838922 -2.39558e-05 
         700      5.84218     0.997881  0.000839551 -2.39371e-05 
         700      5.89471     0.998085  0.000840127 -2.39182e-05 
         700      5.94748      0.99827  0.000840653 -2.38991e-05 
         700      6.00044     0.998436  0.000841132 -2.38797e-05 
         700      6.05367     0.998586  0.000841568 -2.38601e-05 
         700       6.1071     0.998721  0.000841964 -2.38403e-05 
         700      6.16081     0.998842  0.000842323   -2.382e-05 
         700      6.21471     0.998951  0.000842648 -2.37995e-05 
         700      6.26889     0.999048  0.000842941 -2.37786e-05 
         700      6.32326     0.999135  0.000843204 -2.37573e-05 
         700       6.3779     0.999212  0.000843442 -2.37356e-05 
         700      6.43279     0.999281  0.000843654 -2.37136e-05 
         700      6.48786     0.999342  0.000843844 -2.36912e-05 
         700      6.54321     0.999396  0.000844014 -2.36684e-05 
         700      6.59876     0.999444  0.000844165 -2.36453e-05 
         700      6.65458     0.999486  0.000844299 -2.36219e-05 
         700      6.71059     0.999523  0.000844418 -2.35983e-05 
         700      6.76689     0.999555  0.000844522 -2.35743e-05 
         700      6.82341     0.999584  0.000844615 -2.35502e-05 
         700      6.88013     0.999609  0.000844696 -2.35259e-05 
         700      6.93713     0.999631  0.000844767 -2.35014e-05 
         700      6.99432      0.99965   0.00084483 -2.34768e-05 
         700      7.05178     0.999667  0.000844885 -2.34521e-05 
         700      7.10944     0.999681  0.000844933 -2.34274e-05 
         700      7.16738     0.999694  0.000844976 -2.34026e-05 
         700      7.22551     0.999705  0.000845014 -2.33778e-05 
         700      7.28391     0.999715  0.000845047  -2.3353e-05 
         700      7.34256     0.999723  0.000845077 -2.33282e-05 
         700      7.40139      0.99973  0.000845103 -2.33033e-05 
         700       7.4605     0.999736  0.000845125 -2.32783e-05 
         700       7.5198     0.999741  0.000845142 -2.32531e-05 
         700      7.57939     0.999745  0.000845154  -2.3228e-05 
         700      7.63916     0.999749  0.000845163 -2.32026e-05 
         700      7.69921     0.999753  0.000845173 -2.31767e-05 
         700       7.7595     0.999756  0.000845182 -2.31506e-05 
         700      7.81998     0.999758  0.000845191 -2.31244e-05 
         700      7.88073      0.99976    0.0008452 -2.30981e-05 
         700      7.94168     0.999762  0.000845207 -2.30718e-05 
         700      8.00291     0.999764  0.000845213 -2.30457e-05 
         700      8.06432     0.999765  0.000845219 -2.30197e-05 
         700      8.12602     0.999766  0.000845223 -2.29939e-05 
         700      8.18796     0.999767  0.000845226 -2.29682e-05 
         700      8.25008     0.999768  0.000845228 -2.29428e-05 
         700      8.31248     0.999769   0.00084523 -2.29175e-05 
         700      8.37507      0.99977  0.000845231 -2.28924e-05 
         700      8.43794     0.999771  0.000845231 -2.28673e-05 
         700        8.501     0.999772  0.000845231 -2.28424e-05 
         700      8.56434     0.999772  0.000845231 -2.28176e-05 
         700      8.62787     0.999773  0.000845231 -2.27927e-05 
         700      8.69169     0.999773  0.000845231 -2.27679e-05 
         700      8.75574     0.999774  0.000845232  -2.2743e-05 
         700      8.81997     0.999774  0.000845232 -2.27181e-05 
         700      8.88449     0.999775  0.000845234 -2.26931e-05 
         700      8.94919     0.999775  0.000845235  -2.2668e-05 
         700      9.01418     0.999776  0.000845237 -2.26427e-05 
         700      9.07935     0.999776   0.00084524 -2.26172e-05 
         700      9.14481     0.999776  0.000845243 -2.25915e-05 
         700      9.21051     0.999777  0.000845246 -2.25656e-05 
         700      9.27639     0.999777   0.00084525 -2.25395e-05 
         700      9.34255     0.999778  0.000845253 -2.25131e-05 
         700       9.4089     0.999778  0.000845256 -2.24864e-05 
         700      9.47553     0.999778  0.000845259 -2.24595e-05 
         700      9.54235     0.999779  0.000845262 -2.24323e-05 
         700      9.60945     0.999779  0.000845264 -2.24047e-05 
         700      9.67674      0.99978  0.000845265 -2.23769e-05 
         700      9.74432      0.99978  0.000845265 -2.23488e-05 
         700      9.81212      0.99978  0.000845265 -2.23205e-05 
         700      9.88012     0.999781  0.000845263  -2.2292e-05 
         700       9.9484     0.999781   0.00084526 -2.22633e-05 
         700      10.0169     0.999782  0.000845256 -2.22346e-05 
         700      10.0856     0.999782  0.000845252 -2.22059e-05 
         700      10.1545     0.999783  0.000845246 -2.21775e-05 
         700      10.2238     0.999783  0.000845241 -2.21494e-05 
         700      10.2932     0.999784  0.000845236  -2.2122e-05 
         700      10.3628     0.999784  0.000845233 -2.20956e-05 
         700      10.4328     0.999784  0.000845231 -2.20706e-05 
         700      10.5029     0.999785  0.000845231 -2.20473e-05 
         700      10.5733     0.999785  0.000845236 -2.20265e-05 
         700      10.6438     0.999786  0.000845245 -2.20088e-05 
         700      10.7147     0.999786  0.000845244  -2.1981e-05 
         700      10.7858     0.999786  0.000845231 -2.19379e-05 
         700      10.8571     0.999787  0.000845226  -2.1897e-05 
         700      10.9287     0.999787  0.000845228 -2.18578e-05 
         700      11.0004     0.999788  0.000845236 -2.18199e-05 
         700      11.0725     0.999788  0.000845249 -2.17832e-05 
         700      11.1447     0.999789  0.000845265 -2.17479e-05 
         700      11.2172      0.99979  0.000845279 -2.17142e-05 
         700      11.2899      0.99979  0.000845285 -2.16827e-05 
         700      11.3628     0.999791  0.000845275 -2.16543e-05 
         700      11.4361     0.999791  0.000845237 -2.16303e-05 
         700      11.5095     0.999791  0.000845196 -2.16072e-05 
         700      11.5831     0.999792  0.000845238 -2.15731e-05 
         700       11.657     0.999792  0.000845265 -2.15407e-05 
         700      11.7312     0.999793  0.000845282 -2.15093e-05 
         700      11.8055     0.999793   0.00084529 -2.14789e-05 
         700      11.8801     0.999794  0.000845293 -2.14489e-05 
         700       11.955     0.999794  0.000845291 -2.14193e-05 
         700        12.03     0.999795  0.000845287 -2.13899e-05 
         700      12.1053     0.999796  0.000845282 -2.13606e-05 
         700      12.1809     0.999796  0.000845276 -2.13313e-05 
         700      12.2567     0.999797   0.00084527 -2.13019e-05 
         700      12.3326     0.999797  0.000845265 -2.12726e-05 
         700      12.4089     0.999798   0.00084526 -2.12432e-05 
         700      12.4854     0.999798  0.000845257  -2.1214e-05 
         700      12.5621     0.999799  0.000845254 -2.11848e-05 
         700      12.6391       0.9998  0.000845252 -2.11559e-05 
         700      12.7162       0.9998   0.00084525 -2.11274e-05 
         700      12.7937     0.999801  0.000845249 -2.10992e-05 
         700      12.8713     0.999801  0.000845248 -2.10716e-05 
         700      12.9492     0.999802  0.000845247 -2.10447e-05 
         700      13.0273     0.999803  0.000845245 -2.10185e-05 
         700      13.1057     0.999803  0.000845241 -2.09931e-05 
         700      13.1843     0.999804  0.000845245 -2.09571e-05 
         700      13.2631     0.999804  0.000845254 -2.09147e-05 
         700      13.3422     0.999805  0.000845263 -2.08745e-05 
         700      13.4215     0.999806   0.00084527 -2.08363e-05 
         700       13.501     0.999806  0.000845275 -2.07998e-05 
         700      13.5807     0.999807  0.000845279 -2.07648e-05 
         700      13.6608     0.999808  0.000845281  -2.0731e-05 
         700       13.741     0.999808  0.000845282 -2.06982e-05 
         700      13.8215     0.999809  0.000845281 -2.06661e-05 
         700      13.9022      0.99981  0.000845279 -2.06345e-05 
         700      13.9831      0.99981  0.000845276 -2.06032e-05 
         700      14.0643     0.999811  0.000845272 -2.05719e-05 
         700      14.1457     0.999812  0.000845269 -2.05405e-05 
         700      14.2274     0.999812  0.000845265 -2.05088e-05 
         700      14.3092     0.999813  0.000845262 -2.04767e-05 
         700      14.3914     0.999813  0.000845261 -2.04441e-05 
         700      14.4738     0.999814  0.000845261  -2.0411e-05 
         700      14.5563     0.999815  0.000845262 -2.03773e-05 
         700      14.6392     0.999815  0.000845265 -2.03432e-05 
         700      14.7222     0.999816   0.00084527 -2.03086e-05 
         700      14.8055     0.999817  0.000845276 -2.02737e-05 
         700       14.889     0.999817  0.000845283 -2.02387e-05 
         700      14.9728     0.999818  0.000845289 -2.02037e-05 
         700      15.0568     0.999818  0.000845295 -2.01688e-05 
         700       15.141     0.999819  0.000845299 -2.01344e-05 
         700      15.2255      0.99982  0.000845301 -2.01003e-05 
         700      15.3102      0.99982  0.000845299 -2.00669e-05 
         700      15.3952     0.999821  0.000845292 -2.00341e-05 
         700      15.4803     0.999821  0.000845281 -2.00017e-05 
         700      15.5657     0.999822  0.000845267 -1.99694e-05 
         700      15.6514     0.999822   0.00084525 -1.99369e-05 
         700      15.7372     0.999823  0.000845234 -1.99033e-05 
         700      15.8234     0.999824  0.000845225 -1.98676e-05 
         700      15.9097     0.999824  0.000845229 -1.98282e-05 
         700      15.9963     0.999825  0.000845259 -1.97831e-05 
         700      16.0831     0.999825  0.000845305 -1.97355e-05 
         700      16.1702     0.999826  0.000845259  -1.9712e-05 
         700      16.2574     0.999826  0.000845234  -1.9684e-05 
         700       16.345     0.999827  0.000845224 -1.96522e-05 
         700      16.4328     0.999827  0.000845227 -1.96178e-05 
         700      16.5207     0.999828  0.000845238 -1.95815e-05 
         700       16.609     0.999829  0.000845255 -1.95437e-05 
         700      16.6974     0.999829  0.000845275  -1.9505e-05 
         700      16.7861      0.99983  0.000845294 -1.94656e-05 
         700       16.875      0.99983  0.000845312 -1.94256e-05 
         700      16.9642     0.999831  0.000845324 -1.93851e-05 
         700      17.0537     0.999832  0.000845328 -1.93438e-05 
         700      17.1433     0.999833  0.000845321 -1.93013e-05 
         700      17.2332     0.999833  0.000845299 -1.92573e-05 
         700      17.3232     0.999834  0.000845267 -1.92127e-05 
         700      17.4136     0.999834  0.000845299 -1.91835e-05 
         700      17.5041     0.999835  0.000845312  -1.9153e-05 
         700       17.595     0.999836  0.000845313 -1.91211e-05 
         700      17.6861     0.999836  0.000845306  -1.9088e-05 
         700      17.7773     0.999837  0.000845296 -1.90538e-05 
         700      17.8689     0.999837  0.000845284 -1.90185e-05 
         700      17.9606     0.999838  0.000845273 -1.89824e-05 
         700      18.0526     0.999839  0.000845263 -1.89456e-05 
         700      18.1448     0.999839  0.000845256 -1.89083e-05 
         700      18.2373      0.99984  0.000845251 -1.88706e-05 
         700      18.3299     0.999841  0.000845249 -1.88328e-05 
         700      18.4229     0.999841   0.00084525 -1.87948e-05 
         700      18.5161     0.999842  0.000845253 -1.87569e-05 
         700      18.6094     0.999843  0.000845257  -1.8719e-05 
         700      18.7031     0.999843  0.000845263 -1.86812e-05 
         700      18.7969     0.999844   0.00084527 -1.86435e-05 
         700       18.891     0.999845  0.000845278 -1.86059e-05 
         700      18.9853     0.999845  0.000845285 -1.85683e-05 
         700      19.0799     0.999846  0.000845293 -1.85307e-05 
         700      19.1748     0.999847  0.000845299 -1.84929e-05 
         700      19.2698     0.999848  0.000845305  -1.8455e-05 
         700      19.3651     0.999848  0.000845309 -1.84167e-05 
         700      19.4606     0.999849  0.000845312 -1.83782e-05 
         700      19.5563      0.99985  0.000845314 -1.83391e-05 
         700      19.6523      0.99985  0.000845313 -1.82996e-05 
         700      19.7485     0.999851  0.000845311 -1.82595e-05 
         700      19.8449     0.999852  0.000845308 -1.82188e-05 
         700      19.9417     0.999853  0.000845303 -1.81776e-05 
         700      20.0386     0.999853  0.000845297  -1.8136e-05 
         700      20.1357     0.999854  0.000845291 -1.80939e-05 
         700      20.2331     0.999855  0.000845284 -1.80516e-05 
         700      20.3307     0.999855  0.000845278 -1.80092e-05 
         700      20.4286     0.999856  0.000845273 -1.79668e-05 
         700      20.5267     0.999857   0.00084527 -1.79246e-05 
         700       20.625     0.999858  0.000845269 -1.78829e-05 
         700      20.7236     0.999859  0.000845271 -1.78417e-05 
         700      20.8224      0.99986  0.000845275 -1.78012e-05 
         700      20.9215      0.99986  0.000845281 -1.77615e-05 
         700      21.0207     0.999861  0.000845287 -1.77225e-05 
         700      21.1202     0.999862  0.000845291  -1.7684e-05 
         700      21.2199     0.999863  0.000845289 -1.76457e-05 
         700      21.3199     0.999864  0.000845275 -1.76071e-05 
         700      21.4202     0.999865   0.00084524 -1.75671e-05 
         700      21.5206     0.999866  0.000845252 -1.75264e-05 
         700      21.6213     0.999867   0.00084527 -1.74855e-05 
         700      21.7222     0.999868  0.000845279 -1.74442e-05 
         700      21.8234     0.999868  0.000845282 -1.74025e-05 
         700      21.9247     0.999869   0.00084528 -1.73607e-05 
         700      22.0264      0.99987  0.000845277 -1.73187e-05 
         700      22.1282      0.99987  0.000845273 -1.72767e-05 
         700      22.2303     0.999871  0.000845269 -1.72346e-05 
         700      22.3327     0.999872  0.000845266 -1.71925e-05 
         700      22.4352     0.999873  0.000845264 -1.71504e-05 
         700       22.538     0.999873  0.000845264 -1.71082e-05 
         700       22.641     0.999874  0.000845265 -1.70661e-05 
         700      22.7443     0.999875  0.000845267 -1.70239e-05 
         700      22.8477     0.999875   0.00084527 -1.69817e-05 
         700      22.9515     0.999876  0.000845274 -1.69394e-05 
         700      23.0555     0.999877  0.000845278 -1.68969e-05 
         700      23.1597     0.999877  0.000845282 -1.68544e-05 
         700      23.2642     0.999878  0.000845286 -1.68116e-05 
         700      23.3688     0.999879  0.000845288 -1.67685e-05 
         700      23.4737      0.99988  0.000845291 -1.67253e-05 
         700      23.5788      0.99988  0.000845292 -1.66817e-05 
         700      23.6843     0.999881  0.000845292 -1.66378e-05 
         700      23.7899     0.999882  0.000845291 -1.65936e-05 
         700      23.8957     0.999883  0.000845289 -1.65492e-05 
         700      24.0018     0.999883  0.000845286 -1.65045e-05 