Variables = x, y, u, v, p

Zone, I=20800, F=POINT
         -50            0            0            0    0.0096505 
         -50     0.000234  8.81933e-08 -1.05941e-10    0.0096505 
         -50     0.000939  3.53598e-07 -4.26564e-10    0.0096505 
         -50     0.002113  7.94375e-07 -9.64283e-10    0.0096505 
         -50     0.003759  1.40932e-06 -1.72277e-09    0.0096505 
         -50     0.005872  2.19235e-06 -2.69639e-09    0.0096505 
         -50     0.008457  3.13863e-06 -3.87266e-09    0.0096505 
         -50      0.01151  4.23708e-06 -5.21691e-09    0.0096505 
         -50     0.015036  5.47694e-06 -6.67339e-09    0.0096505 
         -50     0.019031  6.84168e-06 -8.15075e-09    0.0096505 
         -50     0.023493  8.31382e-06 -9.52115e-09    0.0096505 
         -50     0.028429  9.87806e-06 -1.06162e-08    0.0096505 
         -50     0.033831  1.15144e-05 -1.12163e-08    0.0096505 
         -50     0.039706  1.32078e-05 -1.10538e-08    0.0096505 
         -50     0.046047  1.49394e-05 -9.80683e-09    0.0096505 
         -50     0.052863  1.66932e-05 -7.09485e-09    0.0096505 
         -50      0.06015  1.84471e-05 -2.48125e-09    0.0096505 
         -50       0.0679  2.01761e-05  4.52105e-09    0.0096505 
         -50     0.076126  2.18632e-05  1.44734e-08    0.0096505 
         -50     0.084816  2.35012e-05  2.78757e-08    0.0096505 
         -50     0.093982  2.50609e-05   4.5456e-08    0.0096505 
         -50     0.103611   2.6534e-05  6.85212e-08    0.0096505 
         -50     0.113718  2.79082e-05  9.78041e-08    0.0096505 
         -50     0.124286  2.91692e-05  1.34057e-07   0.00965051 
         -50     0.135333  3.03101e-05  1.78276e-07   0.00965051 
         -50      0.14685  3.13239e-05  2.31511e-07   0.00965051 
         -50     0.158827  3.22065e-05  2.94901e-07   0.00965051 
         -50     0.171284  3.29584e-05  3.69793e-07   0.00965051 
         -50     0.184201  3.35794e-05  4.57189e-07   0.00965051 
         -50     0.197599  3.40732e-05  5.57937e-07   0.00965051 
         -50     0.211455  3.44428e-05  6.71677e-07   0.00965051 
         -50     0.225792  3.46949e-05  7.96772e-07   0.00965051 
         -50       0.2406  3.48388e-05  9.28589e-07   0.00965051 
         -50     0.255865  3.48934e-05  1.06339e-06   0.00965052 
         -50     0.271613  3.48651e-05  1.19114e-06   0.00965052 
         -50     0.287818  3.47636e-05  1.27881e-06   0.00965052 
         -50     0.304506   3.4607e-05  1.30883e-06   0.00965052 
         -50      0.32165   3.4409e-05  1.27504e-06   0.00965052 
         -50     0.339278  3.41784e-05  1.18307e-06   0.00965053 
         -50     0.357377  3.39207e-05  1.04983e-06   0.00965053 
         -50      0.37593  3.36387e-05  9.02303e-07   0.00965054 
         -50     0.394968  3.33331e-05  7.74673e-07   0.00965054 
         -50     0.414461  3.30056e-05  7.05932e-07   0.00965055 
         -50      0.43444  3.26583e-05  7.34984e-07   0.00965056 
         -50     0.454872  3.22974e-05  8.95722e-07   0.00965056 
         -50     0.475791  3.19313e-05  1.21125e-06   0.00965056 
         -50     0.497163  3.15735e-05  1.68579e-06   0.00965056 
         -50     0.519021  3.12385e-05  2.29912e-06   0.00965055 
         -50      0.54135  3.09407e-05  2.99627e-06   0.00965054 
         -50     0.564131  3.06875e-05  3.68015e-06   0.00965053 
         -50       0.5874  3.04696e-05  4.20575e-06   0.00965051 
         -50     0.611121  3.02672e-05  4.36329e-06    0.0096505 
         -50      0.63533  3.02045e-05  4.29654e-06    0.0096505 
         -50      0.65999  3.00875e-05  4.35566e-06    0.0096505 
         -50     0.685139  2.99075e-05  4.51674e-06   0.00965048 
         -50     0.710759  2.96567e-05  4.75658e-06   0.00965047 
         -50     0.736828  2.93283e-05  5.05285e-06   0.00965045 
         -50     0.763387  2.89155e-05   5.3854e-06   0.00965042 
         -50     0.790396  2.84134e-05   5.7349e-06    0.0096504 
         -50     0.817896  2.78174e-05  6.08503e-06   0.00965037 
         -50     0.845843  2.71253e-05  6.42063e-06   0.00965035 
         -50     0.874283  2.63348e-05  6.73011e-06   0.00965032 
         -50      0.90317  2.54473e-05  7.00343e-06    0.0096503 
         -50     0.932551  2.44632e-05   7.2342e-06   0.00965027 
         -50     0.962401  2.33869e-05  7.41812e-06   0.00965025 
         -50     0.992697  2.22247e-05  7.55379e-06   0.00965023 
         -50      1.02349  2.09821e-05  7.64281e-06    0.0096502 
         -50      1.05472  1.96702e-05  7.68895e-06   0.00965018 
         -50      1.08645  1.82975e-05  7.69846e-06   0.00965015 
         -50      1.11863  1.68788e-05   7.6795e-06   0.00965012 
         -50       1.1513  1.54254e-05  7.64176e-06   0.00965008 
         -50      1.18444  1.39535e-05    7.596e-06   0.00965004 
         -50      1.21802  1.24797e-05  7.55346e-06   0.00964999 
         -50      1.25211  1.10175e-05  7.52494e-06   0.00964993 
         -50      1.28663  9.58459e-06   7.5202e-06   0.00964987 
         -50      1.32165  8.19298e-06  7.54686e-06   0.00964979 
         -50      1.35712  6.85717e-06  7.60931e-06   0.00964971 
         -50      1.39308   5.5842e-06   7.7077e-06   0.00964963 
         -50      1.42951  4.37995e-06  7.83635e-06   0.00964954 
         -50      1.46638  3.24439e-06  7.98231e-06   0.00964946 
         -50      1.50375   2.1672e-06  8.12429e-06   0.00964938 
         -50      1.54156  1.13258e-06  8.10451e-06   0.00964928 
         -50      1.57987  1.22914e-07  8.07176e-06   0.00964918 
         -50      1.61863 -8.56916e-07  8.03659e-06   0.00964907 
         -50      1.65788 -1.80504e-06  7.99826e-06   0.00964896 
         -50      1.69757 -2.71672e-06  7.95623e-06   0.00964884 
         -50      1.73776 -3.59059e-06  7.90995e-06   0.00964872 
         -50      1.77842 -4.42334e-06  7.85905e-06    0.0096486 
         -50      1.81952 -5.21209e-06  7.80326e-06   0.00964847 
         -50      1.86113 -5.95623e-06  7.74228e-06   0.00964834 
         -50      1.90316 -6.65297e-06   7.6761e-06   0.00964821 
         -50      1.94571 -7.30221e-06  7.60457e-06   0.00964807 
         -50      1.98869 -7.90201e-06  7.52787e-06   0.00964793 
         -50      2.03217 -8.45282e-06    7.446e-06   0.00964778 
         -50      2.07612 -8.95391e-06  7.35923e-06   0.00964764 
         -50      2.12051 -9.40511e-06   7.2679e-06   0.00964749 
         -50       2.1654 -9.80759e-06  7.17219e-06   0.00964733 
         -50      2.21073 -1.01615e-05  7.07264e-06   0.00964718 
         -50      2.25656 -1.04685e-05  6.96949e-06   0.00964702 
         -50      2.30283 -1.07294e-05  6.86336e-06   0.00964686 
         -50       2.3496 -1.09464e-05  6.75454e-06    0.0096467 
         -50      2.39685  -1.1121e-05  6.64358e-06   0.00964653 
         -50      2.44452 -1.12552e-05  6.53102e-06   0.00964636 
         -50      2.49271 -1.13517e-05  6.41715e-06    0.0096462 
         -50      2.54132 -1.14125e-05  6.30256e-06   0.00964603 
         -50      2.59044 -1.14404e-05  6.18746e-06   0.00964585 
         -50         2.64 -1.14381e-05  6.07236e-06   0.00964568 
         -50      2.69006 -1.14081e-05  5.95737e-06   0.00964551 
         -50      2.74056 -1.13533e-05  5.84291e-06   0.00964533 
         -50      2.79156 -1.12764e-05  5.72894e-06   0.00964516 
         -50      2.84304   -1.118e-05  5.61567e-06   0.00964498 
         -50      2.89494 -1.10669e-05  5.50321e-06    0.0096448 
         -50      2.94735 -1.09393e-05  5.39135e-06   0.00964463 
         -50       3.0002 -1.07998e-05   5.2802e-06   0.00964445 
         -50      3.05355 -1.06503e-05  5.16946e-06   0.00964427 
         -50      3.10733  -1.0493e-05  5.05917e-06   0.00964409 
         -50      3.16163 -1.03293e-05  4.94904e-06   0.00964391 
         -50      3.21639  -1.0161e-05  4.83906e-06   0.00964373 
         -50      3.27158 -9.98942e-06   4.7293e-06   0.00964355 
         -50      3.32729 -9.81527e-06   4.6197e-06   0.00964337 
         -50      3.38342 -9.63965e-06  4.51075e-06   0.00964319 
         -50      3.44007 -9.46288e-06  4.40282e-06   0.00964301 
         -50      3.49714 -9.28566e-06  4.29697e-06   0.00964283 
         -50      3.55472 -9.10801e-06  4.19437e-06   0.00964265 
         -50      3.61273 -8.93047e-06  4.09702e-06   0.00964247 
         -50      3.67125 -8.75303e-06   4.0073e-06   0.00964228 
         -50      3.73025 -8.57626e-06  3.92862e-06    0.0096421 
         -50      3.78967 -8.40077e-06  3.83134e-06   0.00964191 
         -50      3.84961 -8.22695e-06  3.73009e-06   0.00964173 
         -50      3.90996 -8.05394e-06  3.63712e-06   0.00964155 
         -50      3.97084 -7.88743e-06  3.54771e-06   0.00964137 
         -50      4.03214 -7.72255e-06  3.46155e-06   0.00964118 
         -50      4.09395 -7.55812e-06  3.37762e-06   0.00964099 
         -50      4.15624 -7.39436e-06  3.29521e-06    0.0096408 
         -50      4.21895 -7.23156e-06  3.21388e-06   0.00964062 
         -50      4.28217 -7.06963e-06  3.13324e-06   0.00964043 
         -50      4.34582 -6.90903e-06  3.05333e-06   0.00964024 
         -50      4.40998 -6.74971e-06  2.97408e-06   0.00964006 
         -50      4.47457 -6.59213e-06  2.89578e-06   0.00963987 
         -50      4.53968  -6.4362e-06  2.81853e-06   0.00963968 
         -50      4.60525 -6.28223e-06  2.74266e-06   0.00963949 
         -50      4.67125 -6.13044e-06  2.66848e-06    0.0096393 
         -50      4.73777 -5.98068e-06  2.59607e-06   0.00963911 
         -50       4.8047 -5.83324e-06  2.52572e-06   0.00963892 
         -50      4.87216 -5.68787e-06  2.45739e-06   0.00963872 
         -50      4.94003 -5.54478e-06  2.39118e-06   0.00963853 
         -50      5.00843 -5.40368e-06   2.3269e-06   0.00963834 
         -50      5.07724 -5.26472e-06   2.2645e-06   0.00963814 
         -50      5.14658 -5.12762e-06  2.20365e-06   0.00963795 
         -50      5.21639 -4.99244e-06  2.14419e-06   0.00963775 
         -50      5.28661 -4.85932e-06  2.08597e-06   0.00963755 
         -50      5.35736 -4.72816e-06  2.02882e-06   0.00963736 
         -50      5.42852 -4.59945e-06  1.97294e-06   0.00963716 
         -50      5.50021 -4.47346e-06  1.91868e-06   0.00963696 
         -50      5.57231 -4.35111e-06  1.86697e-06   0.00963676 
         -50      5.64493 -4.23331e-06   1.8192e-06   0.00963656 
         -50      5.71803 -4.11289e-06  1.76667e-06   0.00963635 
         -50      5.79154 -3.99564e-06  1.71626e-06   0.00963615 
         -50      5.86558 -3.88126e-06  1.66754e-06   0.00963594 
         -50      5.94003  -3.7696e-06  1.62048e-06   0.00963574 
         -50      6.01501 -3.66004e-06  1.57503e-06   0.00963553 
         -50       6.0904  -3.5523e-06  1.53125e-06   0.00963532 
         -50      6.16632 -3.44584e-06  1.48903e-06   0.00963511 
         -50      6.24271  -3.3405e-06  1.44825e-06    0.0096349 
         -50       6.3195 -3.23634e-06  1.40872e-06   0.00963469 
         -50      6.39683 -3.13335e-06  1.37012e-06   0.00963448 
         -50      6.47457  -3.0321e-06  1.33235e-06   0.00963426 
         -50      6.55284 -2.93297e-06   1.2955e-06   0.00963405 
         -50      6.63152 -2.83676e-06  1.26029e-06   0.00963383 
         -50      6.71073 -2.74395e-06  1.22823e-06   0.00963361 
         -50      6.79034  -2.6526e-06  1.19677e-06   0.00963339 
         -50      6.87049 -2.56272e-06  1.16427e-06   0.00963317 
         -50      6.95111 -2.47557e-06  1.13232e-06   0.00963294 
         -50      7.03214 -2.39143e-06  1.10122e-06   0.00963271 
         -50       7.1137 -2.31024e-06  1.07111e-06   0.00963249 
         -50      7.19566 -2.23207e-06  1.04216e-06   0.00963226 
         -50      7.27816 -2.15661e-06  1.01436e-06   0.00963202 
         -50      7.36106 -2.08376e-06   9.8771e-07   0.00963179 
         -50      7.44451 -2.01307e-06  9.62077e-07   0.00963156 
         -50      7.52842 -1.94424e-06  9.37306e-07   0.00963132 
         -50      7.61273 -1.87693e-06  9.13182e-07   0.00963108 
         -50      7.69758 -1.81057e-06  8.89371e-07   0.00963084 
         -50      7.78283  -1.7448e-06  8.65558e-07   0.00963059 
         -50      7.86862 -1.67896e-06  8.41298e-07   0.00963035 
         -50      7.95481 -1.61258e-06   8.1617e-07    0.0096301 
         -50      8.04155 -1.54485e-06  7.89625e-07   0.00962985 
         -50      8.12868 -1.48608e-06  7.66478e-07    0.0096296 
         -50      8.21635 -1.42961e-06  7.44687e-07   0.00962934 
         -50      8.30449 -1.37288e-06  7.23401e-07   0.00962908 
         -50      8.39303 -1.31636e-06  7.02933e-07   0.00962882 
         -50      8.48211 -1.26044e-06  6.83401e-07   0.00962856 
         -50      8.57159  -1.2057e-06  6.64857e-07    0.0096283 
         -50      8.66161 -1.15252e-06  6.47172e-07   0.00962803 
         -50      8.75203 -1.10139e-06   6.3019e-07   0.00962776 
         -50      8.84299 -1.05255e-06  6.13648e-07   0.00962749 
         -50      8.93443 -1.00623e-06  5.97325e-07   0.00962721 
         -50      9.02626  -9.6244e-07  5.81062e-07   0.00962693 
         -50      9.11863 -9.20853e-07    5.648e-07   0.00962665 
         -50      9.21139 -8.80961e-07  5.48763e-07   0.00962637 
         -50      9.30471 -8.41744e-07  5.33459e-07   0.00962608 
         -50      9.39841 -8.03154e-07  5.20341e-07   0.00962579 
         -50      9.49267 -7.64539e-07  5.07703e-07    0.0096255 
         -50      9.58739 -7.25411e-07  4.94683e-07    0.0096252 
         -50      9.68251 -6.86445e-07  4.81596e-07    0.0096249 
         -50      9.77817  -6.4809e-07  4.68657e-07    0.0096246 
         -50      9.87422 -6.10803e-07   4.5606e-07    0.0096243 
         -50      9.97083 -5.74811e-07  4.43904e-07   0.00962399 
         -50      10.0678 -5.40366e-07  4.32283e-07   0.00962368 
         -50      10.1654 -5.07526e-07  4.21215e-07   0.00962336 
         -50      10.2633 -4.76382e-07  4.10722e-07   0.00962304 
         -50      10.3618 -4.46863e-07  4.00767e-07   0.00962272 
         -50      10.4607 -4.18927e-07  3.91324e-07    0.0096224 
         -50      10.5601 -3.92485e-07  3.82348e-07   0.00962207 
         -50        10.66 -3.67359e-07  3.73772e-07   0.00962173 
         -50      10.7603 -3.43435e-07  3.65554e-07    0.0096214 
         -50      10.8611  -3.2051e-07  3.57631e-07   0.00962106 
         -50      10.9623 -2.98459e-07  3.49969e-07   0.00962072 
         -50      11.0641 -2.77086e-07  3.42526e-07   0.00962037 
         -50      11.1663 -2.56267e-07  3.35284e-07   0.00962002 
         -50       11.269 -2.35892e-07  3.28243e-07   0.00961967 
         -50      11.3721 -2.15825e-07  3.21397e-07   0.00961931 
         -50      11.4757 -1.96024e-07  3.14774e-07   0.00961895 
         -50      11.5798 -1.76405e-07  3.08389e-07   0.00961858 
         -50      11.6844  -1.5698e-07  3.02282e-07   0.00961821 
         -50      11.7894 -1.37717e-07  2.96473e-07   0.00961784 
         -50       11.895 -1.18656e-07  2.90984e-07   0.00961746 
         -50      12.0009 -9.98464e-08   2.8582e-07   0.00961708 
         -50      12.1073 -8.12985e-08  2.80941e-07   0.00961669 
         -50      12.2142 -6.30757e-08  2.76278e-07    0.0096163 
         -50      12.3216 -4.51616e-08  2.71687e-07   0.00961591 
         -50      12.4294 -2.75582e-08  2.66956e-07   0.00961551 
         -50      12.5378 -1.01525e-08  2.61759e-07    0.0096151 
         -50      12.6465  1.41844e-09  2.56037e-07   0.00961469 
         -50      12.7558 -2.36634e-09  2.48703e-07   0.00961428 
         -50      12.8656   1.6891e-08  2.40574e-07   0.00961387 
         -50      12.9757  3.48848e-08  2.34596e-07   0.00961344 
         -50      13.0864  4.25071e-08  2.31178e-07   0.00961302 
         -50      13.1975  4.98766e-08  2.27581e-07   0.00961259 
         -50      13.3092   5.7188e-08  2.23751e-07   0.00961216 
         -50      13.4212  6.45346e-08  2.19667e-07   0.00961172 
         -50      13.5338   7.1969e-08  2.15323e-07   0.00961128 
         -50      13.6468  7.94753e-08   2.1074e-07   0.00961083 
         -50      13.7603  8.69987e-08  2.05955e-07   0.00961038 
         -50      13.8743  9.44767e-08  2.01006e-07   0.00960993 
         -50      13.9886  1.01807e-07  1.95959e-07   0.00960947 
         -50      14.1036  1.08907e-07  1.90864e-07     0.009609 
         -50      14.2189  1.15675e-07  1.85796e-07   0.00960853 
         -50      14.3348  1.22042e-07  1.80811e-07   0.00960805 
         -50       14.451  1.27939e-07  1.75977e-07   0.00960757 
         -50      14.5678  1.33341e-07  1.71345e-07   0.00960708 
         -50      14.6851  1.38234e-07  1.66966e-07   0.00960659 
         -50      14.8028  1.42639e-07  1.62885e-07    0.0096061 
         -50       14.921  1.46613e-07  1.59123e-07    0.0096056 
         -50      15.0396   1.5023e-07  1.55705e-07   0.00960509 
         -50      15.1588  1.53599e-07  1.52628e-07   0.00960458 
         -50      15.2783  1.56835e-07  1.49887e-07   0.00960406 
         -50      15.3984  1.60069e-07  1.47455e-07   0.00960354 
         -50       15.519   1.6342e-07  1.45298e-07   0.00960301 
         -50        15.64  1.66988e-07  1.43369e-07   0.00960248 
         -50      15.7615  1.70843e-07  1.41606e-07   0.00960195 
         -50      15.8834  1.74981e-07  1.39943e-07   0.00960141 
         -50      16.0058  1.79326e-07  1.38306e-07   0.00960086 
         -50      16.1286  1.83676e-07  1.36621e-07   0.00960031 
         -50       16.252  1.87691e-07  1.34812e-07   0.00959975 
         -50      16.3759  1.90836e-07  1.32814e-07   0.00959919 
         -50      16.5002   1.9235e-07  1.30576e-07   0.00959862 
         -50       16.625    1.912e-07  1.28062e-07   0.00959805 
         -50      16.7501  1.82391e-07   1.2614e-07   0.00959747 
         -50      16.8759  1.72458e-07  1.24711e-07   0.00959689 
         -50       17.002  1.67502e-07  1.22804e-07    0.0095963 
         -50      17.1287  1.66163e-07  1.20594e-07    0.0095957 
         -50      17.2557  1.67302e-07   1.1823e-07    0.0095951 
         -50      17.3834  1.69971e-07  1.15826e-07    0.0095945 
         -50      17.5115  1.73398e-07  1.13473e-07   0.00959389 
         -50      17.6399   1.7697e-07  1.11242e-07   0.00959327 
         -50       17.769  1.80228e-07  1.09172e-07   0.00959265 
         -50      17.8984  1.82832e-07  1.07294e-07   0.00959202 
         -50      18.0284  1.84567e-07  1.05612e-07   0.00959139 
         -50      18.1587  1.85309e-07  1.04125e-07   0.00959075 
         -50      18.2896  1.85024e-07  1.02811e-07   0.00959011 
         -50       18.421  1.83745e-07  1.01642e-07   0.00958946 
         -50      18.5528  1.81563e-07  1.00581e-07    0.0095888 
         -50      18.6851  1.78608e-07  9.95805e-08   0.00958814 
         -50      18.8178  1.75044e-07  9.85918e-08   0.00958747 
         -50      18.9511  1.71045e-07  9.75578e-08    0.0095868 
         -50      19.0847  1.66803e-07  9.64218e-08   0.00958612 
         -50      19.2189  1.62492e-07  9.51213e-08   0.00958544 
         -50      19.3535  1.58285e-07  9.35959e-08   0.00958475 
         -50      19.4886  1.54321e-07  9.17797e-08   0.00958405 
         -50      19.6242  1.50721e-07   8.9609e-08   0.00958335 
         -50      19.7602  1.47566e-07    8.702e-08   0.00958265 
         -50      19.8968  1.44897e-07  8.39408e-08   0.00958194 
         -50      20.0337  1.42717e-07  8.03059e-08   0.00958122 
         -50      20.1712  1.40981e-07  7.60351e-08    0.0095805 
         -50      20.3091  1.38823e-07  7.25182e-08   0.00957977 
         -50      20.4475  1.35879e-07  7.31757e-08   0.00957903 
         -50      20.5864  1.35623e-07   7.3214e-08   0.00957829 
         -50      20.7257  1.37727e-07  7.27859e-08   0.00957754 
         -50      20.8655  1.41713e-07      7.2e-08   0.00957679 
         -50      21.0058  1.46905e-07  7.09105e-08   0.00957603 
         -50      21.1465  1.52426e-07  6.95001e-08   0.00957526 
         -50      21.2877  1.52744e-07  6.55902e-08   0.00957449 
         -50      21.4294  1.43321e-07  5.92163e-08   0.00957371 
         -50      21.5716  1.33883e-07  5.44148e-08   0.00957293 
         -50      21.7142   1.2816e-07  5.19397e-08   0.00957214 
         -50      21.8573   1.2757e-07  5.20353e-08   0.00957134 
         -50      22.0008   1.2684e-07  5.46579e-08   0.00957054 
         -50      22.1449  1.18886e-07  5.69366e-08   0.00956974 
         -50      22.2893  1.13662e-07  5.75771e-08   0.00956893 
         -50      22.4344  1.10535e-07  5.69963e-08   0.00956811 
         -50      22.5797  1.08928e-07  5.55936e-08   0.00956729 
         -50      22.7257  1.08311e-07  5.37308e-08   0.00956646 
         -50      22.8721  1.08222e-07  5.17233e-08   0.00956563 
         -50      23.0189  1.08261e-07  4.98253e-08   0.00956479 
         -50      23.1663  1.08105e-07  4.82175e-08   0.00956394 
         -50       23.314  1.07509e-07   4.7012e-08   0.00956308 
         -50      23.4623  1.06303e-07  4.62435e-08   0.00956222 
         -50       23.611  1.04403e-07  4.58803e-08   0.00956136 
         -50      23.7602  1.01796e-07  4.58291e-08   0.00956049 
         -50        23.91  9.85504e-08   4.5951e-08   0.00955961 
         -50        24.06  9.48063e-08    4.608e-08   0.00955873 
         -50      24.2107  9.07573e-08  4.60488e-08   0.00955784 
         -50      24.3617  8.66627e-08  4.57188e-08   0.00955694 
         -50      24.5133  8.28101e-08  4.50173e-08   0.00955604 
         -50      24.6653  7.95265e-08   4.3983e-08   0.00955514 
         -50      24.8178  7.71373e-08  4.28129e-08   0.00955423 
         -50      24.9708  7.59659e-08  4.19254e-08   0.00955331 
         -50      25.1242  7.62981e-08  4.20231e-08   0.00955239 
         -50      25.2781  7.83616e-08  4.41677e-08   0.00955146 
         -50      25.4324  8.22913e-08  4.98573e-08   0.00955052 
         -50      25.5873  8.16334e-08  4.39233e-08   0.00954958 
         -50      25.7426  7.50276e-08  3.94391e-08   0.00954864 
         -50      25.8984  6.70383e-08  3.73223e-08   0.00954768 
         -50      26.0546  6.07484e-08  3.70686e-08   0.00954673 
         -50      26.2114  5.77228e-08   3.8135e-08   0.00954576 
         -50      26.3686  5.80804e-08  3.99436e-08   0.00954479 
         -50      26.5262  6.06771e-08  4.18929e-08   0.00954381 
         -50      26.6844  6.35125e-08  4.33987e-08   0.00954283 
         -50      26.8429  6.42979e-08  4.39374e-08   0.00954185 
         -50       27.002  6.12523e-08   4.3126e-08   0.00954085 
         -50      27.1615  5.41036e-08  4.08158e-08   0.00953985 
         -50      27.3216  4.52964e-08  3.72038e-08   0.00953885 
         -50      27.4821  4.14972e-08   3.2986e-08   0.00953784 
         -50       27.643  3.61597e-08  3.22989e-08   0.00953682 
         -50      27.8044  2.85582e-08  3.33102e-08    0.0095358 
         -50      27.9663  2.48084e-08  3.40681e-08   0.00953478 
         -50      28.1287  2.38185e-08  3.45454e-08   0.00953375 
         -50      28.2914  2.46835e-08  3.47333e-08   0.00953271 
         -50      28.4548  2.66598e-08  3.46415e-08   0.00953166 
         -50      28.6185  2.91479e-08  3.42931e-08   0.00953061 
         -50      28.7828  3.16876e-08  3.37216e-08   0.00952956 
         -50      28.9475  3.39312e-08  3.29692e-08    0.0095285 
         -50      29.1126  3.56359e-08  3.20836e-08   0.00952743 
         -50      29.2784  3.66533e-08   3.1113e-08   0.00952636 
         -50      29.4444   3.6908e-08  3.01087e-08   0.00952528 
         -50       29.611  3.63904e-08  2.91167e-08    0.0095242 
         -50       29.778  3.51437e-08   2.8182e-08   0.00952311 
         -50      29.9456  3.32481e-08   2.7341e-08   0.00952202 
         -50      30.1137  3.08163e-08   2.6625e-08   0.00952092 
         -50      30.2821  2.79815e-08  2.60564e-08   0.00951981 
         -50      30.4511  2.48794e-08   2.5647e-08    0.0095187 
         -50      30.6204  2.16561e-08     2.54e-08   0.00951759 
         -50      30.7903  1.84408e-08  2.53077e-08   0.00951647 
         -50      30.9606  1.53599e-08  2.53524e-08   0.00951534 
         -50      31.1315  1.25103e-08  2.55071e-08   0.00951421 
         -50      31.3028  9.97326e-09  2.57357e-08   0.00951308 
         -50      31.4745  7.80223e-09  2.59944e-08   0.00951194 
         -50      31.6468  6.01682e-09  2.62345e-08   0.00951079 
         -50      31.8194  4.61368e-09  2.64029e-08   0.00950964 
         -50      31.9926  3.55589e-09  2.64464e-08   0.00950848 
         -50      32.1662  2.78445e-09  2.63136e-08   0.00950732 
         -50      32.3404  2.21531e-09  2.59595e-08   0.00950615 
         -50      32.5149  1.75031e-09    2.535e-08   0.00950498 
         -50        32.69  1.28074e-09  2.44648e-08   0.00950381 
         -50      32.8655  6.99506e-10  2.33059e-08   0.00950262 
         -50      33.0414 -8.81374e-11  2.19033e-08   0.00950144 
         -50       33.218 -1.15341e-09  2.03172e-08   0.00950024 
         -50      33.3948 -2.52341e-09  1.86539e-08   0.00949905 
         -50      33.5723 -4.17007e-09  1.70646e-08   0.00949784 
         -50        33.75 -5.98118e-09  1.57638e-08   0.00949664 
         -50      33.9284 -7.74769e-09  1.50305e-08   0.00949543 
         -50      34.1073 -9.12827e-09  1.52263e-08   0.00949421 
         -50      34.2865 -9.62698e-09  1.68006e-08   0.00949299 
         -50      34.4663 -8.56201e-09  2.03102e-08   0.00949176 
         -50      34.6465 -5.03239e-09  2.64196e-08   0.00949053 
         -50      34.8272  2.12908e-09  3.59401e-08   0.00948929 
         -50      35.0083  9.08493e-09   3.7841e-08   0.00948805 
         -50        35.19  1.63372e-08   3.2142e-08    0.0094868 
         -50      35.3721  2.83631e-08  2.57282e-08   0.00948555 
         -50      35.5546  3.56586e-08  1.86136e-08    0.0094843 
         -50      35.7377 -1.41109e-09  1.75419e-08   0.00948304 
         -50      35.9211  -2.3505e-08  1.62094e-08   0.00948178 
         -50      36.1052 -3.40856e-08  1.47637e-08   0.00948051 
         -50      36.2895  -3.6102e-08  1.33241e-08   0.00947924 
         -50      36.4745 -3.21006e-08  1.19769e-08   0.00947797 
         -50      36.6598 -2.42347e-08  1.07891e-08   0.00947669 
         -50      36.8457 -1.41173e-08  1.00356e-08    0.0094754 
         -50      37.0321 -1.48911e-09  1.32579e-08   0.00947411 
         -50      37.2188  9.19541e-09  1.61451e-08   0.00947281 
         -50      37.4062  1.74465e-08  1.85717e-08   0.00947151 
         -50      37.5938  2.29945e-08  2.04634e-08   0.00947021 
         -50      37.7821  2.58024e-08  2.18025e-08    0.0094689 
         -50      37.9707  2.59938e-08  2.26062e-08   0.00946759 
         -50      38.1599  2.38355e-08  2.29265e-08   0.00946627 
         -50      38.3496  1.96976e-08  2.28363e-08   0.00946495 
         -50      38.5396  1.40296e-08  2.24248e-08   0.00946363 
         -50      38.7302  7.30969e-09  2.17881e-08    0.0094623 
         -50      38.9211  5.10402e-11  2.10251e-08   0.00946097 
         -50      39.1127 -7.26395e-09  2.02278e-08   0.00945964 
         -50      39.3046 -1.41616e-08  1.94811e-08    0.0094583 
         -50      39.4971 -2.02414e-08  1.88532e-08   0.00945696 
         -50      39.6899 -2.51507e-08  1.83971e-08   0.00945561 
         -50      39.8833  -2.8635e-08  1.81433e-08   0.00945426 
         -50      40.0772 -3.05192e-08  1.81019e-08   0.00945291 
         -50      40.2714 -3.07321e-08  1.82591e-08   0.00945155 
         -50      40.4663 -2.93039e-08  1.85791e-08   0.00945019 
         -50      40.6615 -2.63679e-08  1.90044e-08   0.00944882 
         -50      40.8573 -2.21471e-08  1.94593e-08   0.00944745 
         -50      41.0534 -1.69632e-08  1.98522e-08   0.00944608 
         -50      41.2501 -1.11975e-08  2.00821e-08    0.0094447 
         -50      41.4473 -5.29994e-09  2.00432e-08   0.00944332 
         -50      41.6448  2.45605e-10  1.96341e-08   0.00944194 
         -50      41.8429  4.96329e-09  1.87647e-08   0.00944055 
         -50      42.0414  8.38923e-09  1.73702e-08   0.00943916 
         -50      42.2405  1.01387e-08  1.54169e-08   0.00943777 
         -50      42.4399   9.9305e-09  1.29256e-08   0.00943637 
         -50      42.6399   7.6475e-09  9.97359e-09   0.00943497 
         -50      42.8404  3.39145e-09  6.72541e-09   0.00943357 
         -50      43.0412 -2.44735e-09  3.44637e-09   0.00943216 
         -50      43.2426 -9.14042e-09  5.14656e-10   0.00943075 
         -50      43.4444 -1.55102e-08 -1.53862e-09   0.00942934 
         -50      43.6467  -1.9884e-08 -2.02143e-09   0.00942793 
         -50      43.8494  -1.9967e-08 -4.34122e-11   0.00942651 
         -50      44.0527 -1.27616e-08  5.51347e-09   0.00942509 
         -50      44.2563  5.52384e-09  1.55612e-08   0.00942366 
         -50      44.4606  2.52001e-08  9.85772e-09   0.00942224 
         -50      44.6653  3.55086e-08  5.78396e-09    0.0094208 
         -50      44.8704  3.78168e-08   3.0168e-09   0.00941937 
         -50       45.076  3.36383e-08  1.25939e-09   0.00941794 
         -50       45.282  2.46057e-08  2.67224e-10    0.0094165 
         -50      45.4886   1.2422e-08 -1.50935e-10   0.00941506 
         -50      45.6955 -1.11598e-09   -1.124e-10   0.00941362 
         -50       45.903 -1.42188e-08  3.50318e-10   0.00941217 
         -50      46.1111 -2.50607e-08  1.30488e-09   0.00941072 
         -50      46.3194 -3.18517e-08  2.93228e-09   0.00940927 
         -50      46.5283 -3.28769e-08  5.54817e-09   0.00940782 
         -50      46.7376 -2.65028e-08  9.60735e-09   0.00940636 
         -50      46.9475 -1.12104e-08  1.57387e-08    0.0094049 
         -50      47.1577   1.4324e-08   2.4734e-08   0.00940344 
         -50      47.3685  2.45569e-08  2.90363e-08   0.00940197 
         -50      47.5798  -4.7382e-10  2.12431e-08   0.00940051 
         -50      47.7914 -1.80616e-08  1.48269e-08   0.00939905 
         -50      48.0037 -2.97571e-08  9.74635e-09   0.00939758 