Variables = x, y, u, v, p

Zone, I=20800, F=POINT
         -50            0            0            0   -0.0261862 
         -50     0.000234 -1.39393e-07  6.72461e-11   -0.0261862 
         -50     0.000939 -5.58629e-07  3.11688e-10   -0.0261862 
         -50     0.002113 -1.25434e-06  8.56878e-10   -0.0261862 
         -50     0.003759 -2.22469e-06   1.9071e-09   -0.0261862 
         -50     0.005872 -3.46172e-06  3.73197e-09   -0.0261862 
         -50     0.008457 -4.96187e-06  6.66684e-09   -0.0261862 
         -50      0.01151  -6.7147e-06  1.10792e-08   -0.0261862 
         -50     0.015036   -8.713e-06  1.73664e-08   -0.0261862 
         -50     0.019031 -1.09421e-05  2.59027e-08   -0.0261862 
         -50     0.023493 -1.33856e-05  3.70222e-08   -0.0261862 
         -50     0.028429 -1.60287e-05   5.1016e-08   -0.0261862 
         -50     0.033831 -1.88449e-05  6.80433e-08   -0.0261862 
         -50     0.039706 -2.18119e-05  8.82025e-08   -0.0261862 
         -50     0.046047 -2.48969e-05  1.11436e-07   -0.0261862 
         -50     0.052863 -2.80727e-05  1.37634e-07   -0.0261862 
         -50      0.06015 -3.13045e-05  1.66517e-07   -0.0261862 
         -50       0.0679 -3.45559e-05  1.97606e-07   -0.0261862 
         -50     0.076126 -3.77976e-05  2.30168e-07   -0.0261862 
         -50     0.084816 -4.09856e-05  2.62767e-07   -0.0261862 
         -50     0.093982 -4.40909e-05   2.9582e-07   -0.0261862 
         -50     0.103611 -4.70747e-05  3.27698e-07   -0.0261862 
         -50     0.113718 -4.99091e-05  3.56064e-07   -0.0261862 
         -50     0.124286 -5.25597e-05  3.78991e-07   -0.0261862 
         -50     0.135333 -5.50055e-05  3.95006e-07   -0.0261862 
         -50      0.14685 -5.72227e-05  4.02653e-07   -0.0261862 
         -50     0.158827 -5.91935e-05  4.00192e-07   -0.0261862 
         -50     0.171284 -6.09098e-05  3.85111e-07   -0.0261862 
         -50     0.184201 -6.23623e-05  3.53842e-07   -0.0261862 
         -50     0.197599 -6.35517e-05  3.01629e-07   -0.0261862 
         -50     0.211455  -6.4479e-05   2.2338e-07   -0.0261862 
         -50     0.225792 -6.51532e-05  1.14992e-07   -0.0261862 
         -50       0.2406 -6.55855e-05 -2.28783e-08   -0.0261862 
         -50     0.255865 -6.57974e-05 -1.96155e-07   -0.0261862 
         -50     0.271613 -6.58019e-05 -4.20584e-07   -0.0261862 
         -50     0.287818 -6.56209e-05 -6.63653e-07   -0.0261862 
         -50     0.304506 -6.52869e-05 -9.09455e-07   -0.0261862 
         -50      0.32165 -6.48291e-05 -1.14067e-06   -0.0261862 
         -50     0.339278 -6.42705e-05 -1.34169e-06   -0.0261862 
         -50     0.357377   -6.363e-05 -1.49914e-06   -0.0261862 
         -50      0.37593 -6.29218e-05  -1.6044e-06   -0.0261862 
         -50     0.394968 -6.21538e-05 -1.65562e-06   -0.0261862 
         -50     0.414461 -6.13322e-05 -1.65866e-06   -0.0261862 
         -50      0.43444 -6.04577e-05 -1.62841e-06   -0.0261862 
         -50     0.454872 -5.95321e-05 -1.58866e-06   -0.0261862 
         -50     0.475791 -5.85533e-05 -1.57056e-06   -0.0261862 
         -50     0.497163 -5.75225e-05 -1.60932e-06   -0.0261862 
         -50     0.519021 -5.64383e-05  -1.7382e-06   -0.0261862 
         -50      0.54135 -5.53015e-05 -1.97882e-06   -0.0261862 
         -50     0.564131 -5.41121e-05 -2.32696e-06   -0.0261862 
         -50       0.5874  -5.2862e-05 -2.73423e-06   -0.0261862 
         -50     0.611121 -5.15635e-05 -3.02954e-06   -0.0261862 
         -50      0.63533 -5.04445e-05  -2.8191e-06   -0.0261862 
         -50      0.65999 -4.92534e-05 -2.76637e-06   -0.0261862 
         -50     0.685139 -4.80061e-05 -2.86183e-06   -0.0261862 
         -50     0.710759 -4.67191e-05  -3.0921e-06   -0.0261862 
         -50     0.736828 -4.54066e-05 -3.43962e-06   -0.0261861 
         -50     0.763387 -4.40774e-05 -3.88457e-06   -0.0261861 
         -50     0.790396 -4.27413e-05 -4.40341e-06   -0.0261861 
         -50     0.817896  -4.1402e-05 -4.97233e-06    -0.026186 
         -50     0.845843 -4.00642e-05 -5.56497e-06    -0.026186 
         -50     0.874283 -3.87264e-05 -6.15697e-06   -0.0261859 
         -50      0.90317 -3.73889e-05 -6.72322e-06   -0.0261858 
         -50     0.932551 -3.60457e-05 -7.24274e-06   -0.0261857 
         -50     0.962401 -3.46927e-05 -7.69646e-06   -0.0261857 
         -50     0.992697 -3.33244e-05 -8.06998e-06   -0.0261856 
         -50      1.02349 -3.19312e-05 -8.35515e-06   -0.0261855 
         -50      1.05472 -3.05081e-05 -8.54887e-06   -0.0261854 
         -50      1.08645 -2.90453e-05 -8.65565e-06   -0.0261853 
         -50      1.11863 -2.75391e-05 -8.68645e-06   -0.0261851 
         -50       1.1513 -2.59823e-05 -8.65936e-06    -0.026185 
         -50      1.18444 -2.43733e-05 -8.59857e-06   -0.0261849 
         -50      1.21802 -2.27135e-05 -8.53321e-06   -0.0261848 
         -50      1.25211 -2.10032e-05 -8.49495e-06   -0.0261847 
         -50      1.28663 -1.92513e-05 -8.51521e-06   -0.0261846 
         -50      1.32165  -1.7465e-05 -8.62074e-06   -0.0261845 
         -50      1.35712 -1.56606e-05 -8.82781e-06   -0.0261843 
         -50      1.39308 -1.38518e-05 -9.13575e-06   -0.0261842 
         -50      1.42951 -1.20593e-05 -9.51691e-06    -0.026184 
         -50      1.46638 -1.03057e-05  -9.9058e-06   -0.0261838 
         -50      1.50375 -8.60913e-06 -1.01867e-05   -0.0261836 
         -50      1.54156 -6.92491e-06 -1.02351e-05   -0.0261834 
         -50      1.57987 -5.25907e-06 -1.02868e-05   -0.0261832 
         -50      1.61863 -3.62381e-06 -1.03472e-05    -0.026183 
         -50      1.65788 -2.02311e-06 -1.04129e-05   -0.0261828 
         -50      1.69757 -4.65799e-07 -1.04807e-05   -0.0261826 
         -50      1.73776  1.04485e-06 -1.05479e-05   -0.0261823 
         -50      1.77842  2.50221e-06  -1.0612e-05   -0.0261821 
         -50      1.81952  3.90019e-06 -1.06707e-05   -0.0261819 
         -50      1.86113  5.23666e-06 -1.07222e-05   -0.0261816 
         -50      1.90316  6.50549e-06 -1.07649e-05   -0.0261813 
         -50      1.94571  7.70531e-06 -1.07978e-05   -0.0261811 
         -50      1.98869   8.8313e-06 -1.08198e-05   -0.0261808 
         -50      2.03217  9.88294e-06 -1.08304e-05   -0.0261805 
         -50      2.07612  1.08575e-05 -1.08292e-05   -0.0261802 
         -50      2.12051  1.17531e-05 -1.08163e-05     -0.02618 
         -50       2.1654  1.25704e-05 -1.07917e-05   -0.0261797 
         -50      2.21073  1.33081e-05  -1.0756e-05   -0.0261794 
         -50      2.25656  1.39678e-05 -1.07097e-05   -0.0261791 
         -50      2.30283  1.45492e-05 -1.06538e-05   -0.0261788 
         -50       2.3496  1.50549e-05 -1.05889e-05   -0.0261785 
         -50      2.39685  1.54863e-05 -1.05162e-05   -0.0261781 
         -50      2.44452  1.58454e-05 -1.04367e-05   -0.0261778 
         -50      2.49271  1.61358e-05 -1.03516e-05   -0.0261775 
         -50      2.54132  1.63601e-05 -1.02619e-05   -0.0261772 
         -50      2.59044  1.65223e-05 -1.01687e-05   -0.0261769 
         -50         2.64   1.6626e-05 -1.00729e-05   -0.0261766 
         -50      2.69006  1.66754e-05 -9.97534e-06   -0.0261762 
         -50      2.74056  1.66747e-05  -9.8768e-06   -0.0261759 
         -50      2.79156  1.66286e-05 -9.77767e-06   -0.0261756 
         -50      2.84304  1.65414e-05 -9.67838e-06   -0.0261752 
         -50      2.89494   1.6418e-05 -9.57914e-06   -0.0261749 
         -50      2.94735  1.62626e-05 -9.47974e-06   -0.0261746 
         -50       3.0002    1.608e-05  -9.3801e-06   -0.0261743 
         -50      3.05355  1.58742e-05 -9.27965e-06   -0.0261739 
         -50      3.10733  1.56496e-05 -9.17798e-06   -0.0261736 
         -50      3.16163  1.54097e-05 -9.07431e-06   -0.0261732 
         -50      3.21639  1.51582e-05 -8.96806e-06   -0.0261729 
         -50      3.27158  1.48983e-05 -8.85875e-06   -0.0261726 
         -50      3.32729  1.46324e-05 -8.74584e-06   -0.0261722 
         -50      3.38342   1.4363e-05 -8.62947e-06   -0.0261719 
         -50      3.44007  1.40914e-05 -8.50995e-06   -0.0261715 
         -50      3.49714  1.38193e-05 -8.38865e-06   -0.0261712 
         -50      3.55472  1.35467e-05 -8.26756e-06   -0.0261708 
         -50      3.61273  1.32743e-05  -8.1503e-06   -0.0261705 
         -50      3.67125  1.30011e-05  -8.0417e-06   -0.0261701 
         -50      3.73025  1.27265e-05 -7.94883e-06   -0.0261698 
         -50      3.78967  1.24475e-05 -7.84337e-06   -0.0261694 
         -50      3.84961  1.21718e-05 -7.72552e-06    -0.026169 
         -50      3.90996  1.19013e-05 -7.60914e-06   -0.0261687 
         -50      3.97084  1.16402e-05 -7.49508e-06   -0.0261683 
         -50      4.03214  1.13833e-05 -7.38373e-06    -0.026168 
         -50      4.09395  1.11293e-05 -7.27372e-06   -0.0261676 
         -50      4.15624  1.08783e-05 -7.16436e-06   -0.0261672 
         -50      4.21895  1.06308e-05 -7.05522e-06   -0.0261668 
         -50      4.28217  1.03863e-05 -6.94588e-06   -0.0261665 
         -50      4.34582  1.01454e-05 -6.83644e-06   -0.0261661 
         -50      4.40998  9.90808e-06 -6.72681e-06   -0.0261657 
         -50      4.47457  9.67477e-06 -6.61738e-06   -0.0261653 
         -50      4.53968  9.44528e-06 -6.50822e-06   -0.0261649 
         -50      4.60525  9.21994e-06 -6.39968e-06   -0.0261646 
         -50      4.67125    8.999e-06 -6.29212e-06   -0.0261642 
         -50      4.73777  8.78212e-06 -6.18557e-06   -0.0261638 
         -50       4.8047  8.56961e-06 -6.08035e-06   -0.0261634 
         -50      4.87216  8.36103e-06 -5.97634e-06    -0.026163 
         -50      4.94003  8.15658e-06 -5.87367e-06   -0.0261626 
         -50      5.00843  7.95573e-06 -5.77204e-06   -0.0261622 
         -50      5.07724  7.75863e-06 -5.67141e-06   -0.0261618 
         -50      5.14658  7.56478e-06 -5.57137e-06   -0.0261613 
         -50      5.21639  7.37426e-06 -5.47175e-06   -0.0261609 
         -50      5.28661  7.18723e-06 -5.37244e-06   -0.0261605 
         -50      5.35736   7.0036e-06 -5.27324e-06   -0.0261601 
         -50      5.42852  6.82414e-06 -5.17452e-06   -0.0261596 
         -50      5.50021  6.64942e-06 -5.07672e-06   -0.0261592 
         -50      5.57231  6.48103e-06 -4.98114e-06   -0.0261588 
         -50      5.64493  6.32063e-06 -4.88947e-06   -0.0261583 
         -50      5.71803  6.14482e-06 -4.79256e-06   -0.0261579 
         -50      5.79154  5.97634e-06 -4.69977e-06   -0.0261574 
         -50      5.86558  5.81448e-06 -4.60868e-06    -0.026157 
         -50      5.94003   5.6588e-06 -4.51813e-06   -0.0261565 
         -50      6.01501  5.50815e-06  -4.4275e-06    -0.026156 
         -50       6.0904  5.36178e-06 -4.33704e-06   -0.0261556 
         -50      6.16632  5.21851e-06 -4.24716e-06   -0.0261551 
         -50      6.24271  5.07759e-06 -4.15867e-06   -0.0261546 
         -50       6.3195  4.93851e-06  -4.0723e-06   -0.0261541 
         -50      6.39683  4.80075e-06 -3.98827e-06   -0.0261536 
         -50      6.47457  4.66463e-06 -3.90649e-06   -0.0261531 
         -50      6.55284  4.53053e-06 -3.82572e-06   -0.0261526 
         -50      6.63152  4.39984e-06 -3.74378e-06   -0.0261521 
         -50      6.71073  4.27418e-06 -3.65669e-06   -0.0261516 
         -50      6.79034  4.15436e-06 -3.57925e-06   -0.0261511 
         -50      6.87049  4.03734e-06 -3.50585e-06   -0.0261506 
         -50      6.95111  3.92291e-06 -3.43049e-06     -0.02615 
         -50      7.03214  3.81098e-06 -3.35438e-06   -0.0261495 
         -50       7.1137  3.70125e-06 -3.27826e-06    -0.026149 
         -50      7.19566  3.59381e-06 -3.20288e-06   -0.0261484 
         -50      7.27816  3.48845e-06 -3.12855e-06   -0.0261478 
         -50      7.36106  3.38533e-06 -3.05562e-06   -0.0261473 
         -50      7.44451  3.28431e-06 -2.98411e-06   -0.0261467 
         -50      7.52842  3.18554e-06 -2.91409e-06   -0.0261461 
         -50      7.61273  3.08914e-06 -2.84561e-06   -0.0261455 
         -50      7.69758  2.99502e-06 -2.77853e-06    -0.026145 
         -50      7.78283  2.90337e-06 -2.71301e-06   -0.0261444 
         -50      7.86862  2.81404e-06 -2.64909e-06   -0.0261437 
         -50      7.95481  2.72711e-06  -2.5872e-06   -0.0261431 
         -50      8.04155  2.64229e-06 -2.52781e-06   -0.0261425 
         -50      8.12868   2.5597e-06 -2.46423e-06   -0.0261419 
         -50      8.21635  2.47986e-06 -2.40112e-06   -0.0261412 
         -50      8.30449  2.40238e-06 -2.34017e-06   -0.0261406 
         -50      8.39303  2.32685e-06 -2.28103e-06   -0.0261399 
         -50      8.48211  2.25288e-06 -2.22329e-06   -0.0261393 
         -50      8.57159  2.18041e-06 -2.16681e-06   -0.0261386 
         -50      8.66161  2.10935e-06 -2.11134e-06   -0.0261379 
         -50      8.75203  2.03993e-06 -2.05688e-06   -0.0261373 
         -50      8.84299  1.97229e-06 -2.00332e-06   -0.0261366 
         -50      8.93443  1.90681e-06  -1.9507e-06   -0.0261359 
         -50      9.02626  1.84391e-06 -1.89912e-06   -0.0261351 
         -50      9.11863  1.78381e-06 -1.84851e-06   -0.0261344 
         -50      9.21139  1.72686e-06 -1.79895e-06   -0.0261337 
         -50      9.30471    1.673e-06 -1.75027e-06    -0.026133 
         -50      9.39841  1.61726e-06 -1.70292e-06   -0.0261322 
         -50      9.49267  1.55965e-06   -1.656e-06   -0.0261315 
         -50      9.58739  1.50465e-06 -1.60926e-06   -0.0261307 
         -50      9.68251  1.45203e-06 -1.56323e-06   -0.0261299 
         -50      9.77817  1.40147e-06 -1.51815e-06   -0.0261291 
         -50      9.87422  1.35283e-06 -1.47426e-06   -0.0261283 
         -50      9.97083  1.30587e-06 -1.43156e-06   -0.0261275 
         -50      10.0678  1.26051e-06 -1.39012e-06   -0.0261267 
         -50      10.1654  1.21655e-06 -1.34978e-06   -0.0261259 
         -50      10.2633  1.17398e-06  -1.3105e-06    -0.026125 
         -50      10.3618  1.13264e-06 -1.27205e-06   -0.0261242 
         -50      10.4607  1.09251e-06 -1.23433e-06   -0.0261233 
         -50      10.5601  1.05356e-06 -1.19723e-06   -0.0261225 
         -50        10.66  1.01571e-06 -1.16056e-06   -0.0261216 
         -50      10.7603  9.78975e-07 -1.12431e-06   -0.0261207 
         -50      10.8611  9.43284e-07 -1.08839e-06   -0.0261198 
         -50      10.9623  9.08673e-07 -1.05286e-06   -0.0261189 
         -50      11.0641  8.75075e-07 -1.01774e-06    -0.026118 
         -50      11.1663  8.42505e-07 -9.83166e-07   -0.0261171 
         -50       11.269  8.10976e-07 -9.49339e-07   -0.0261161 
         -50      11.3721   7.8043e-07 -9.16399e-07   -0.0261152 
         -50      11.4757  7.50905e-07 -8.84614e-07   -0.0261142 
         -50      11.5798  7.22347e-07 -8.54152e-07   -0.0261132 
         -50      11.6844  6.94799e-07 -8.25251e-07   -0.0261122 
         -50      11.7894  6.68216e-07 -7.97993e-07   -0.0261112 
         -50       11.895   6.4263e-07 -7.72433e-07   -0.0261102 
         -50      12.0009   6.1808e-07 -7.48475e-07   -0.0261092 
         -50      12.1073  5.94562e-07 -7.25765e-07   -0.0261082 
         -50      12.2142  5.72171e-07 -7.03762e-07   -0.0261071 
         -50      12.3216  5.50952e-07 -6.81518e-07   -0.0261061 
         -50      12.4294  5.31058e-07 -6.57742e-07    -0.026105 
         -50      12.5378  5.12615e-07 -6.30562e-07   -0.0261039 
         -50      12.6465  4.92887e-07 -6.01274e-07   -0.0261028 
         -50      12.7558   4.6606e-07 -5.72532e-07   -0.0261017 
         -50      12.8656  4.44892e-07 -5.55321e-07   -0.0261006 
         -50      12.9757  4.26269e-07 -5.36911e-07   -0.0260995 
         -50      13.0864  4.10593e-07 -5.22708e-07   -0.0260983 
         -50      13.1975  3.94478e-07 -5.06747e-07   -0.0260972 
         -50      13.3092  3.78287e-07 -4.89637e-07    -0.026096 
         -50      13.4212   3.6235e-07 -4.71912e-07   -0.0260948 
         -50      13.5338  3.46872e-07 -4.53938e-07   -0.0260936 
         -50      13.6468  3.32029e-07 -4.36028e-07   -0.0260924 
         -50      13.7603  3.17938e-07 -4.18407e-07   -0.0260912 
         -50      13.8743  3.04631e-07  -4.0119e-07     -0.02609 
         -50      13.9886  2.92141e-07 -3.84487e-07   -0.0260887 
         -50      14.1036  2.80426e-07  -3.6831e-07   -0.0260875 
         -50      14.2189  2.69454e-07 -3.52686e-07   -0.0260862 
         -50      14.3348  2.59137e-07  -3.3757e-07   -0.0260849 
         -50       14.451  2.49408e-07 -3.22949e-07   -0.0260836 
         -50      14.5678  2.40159e-07 -3.08759e-07   -0.0260823 
         -50      14.6851  2.31304e-07 -2.94971e-07    -0.026081 
         -50      14.8028  2.22761e-07 -2.81563e-07   -0.0260796 
         -50       14.921  2.14434e-07 -2.68493e-07   -0.0260783 
         -50      15.0396  2.06268e-07 -2.55777e-07   -0.0260769 
         -50      15.1588  1.98196e-07 -2.43406e-07   -0.0260755 
         -50      15.2783  1.90194e-07 -2.31427e-07   -0.0260741 
         -50      15.3984  1.82234e-07 -2.19859e-07   -0.0260727 
         -50       15.519  1.74325e-07 -2.08761e-07   -0.0260713 
         -50        15.64  1.66496e-07 -1.98189e-07   -0.0260698 
         -50      15.7615  1.58772e-07 -1.88165e-07   -0.0260684 
         -50      15.8834  1.51221e-07 -1.78721e-07   -0.0260669 
         -50      16.0058  1.43893e-07 -1.69821e-07   -0.0260654 
         -50      16.1286  1.36868e-07   -1.614e-07   -0.0260639 
         -50       16.252  1.30198e-07 -1.53285e-07   -0.0260624 
         -50      16.3759  1.23939e-07 -1.45219e-07   -0.0260609 
         -50      16.5002  1.18126e-07  -1.3681e-07   -0.0260594 
         -50       16.625  1.12738e-07 -1.27474e-07   -0.0260578 
         -50      16.7501   1.1178e-07 -1.20236e-07   -0.0260562 
         -50      16.8759  1.11563e-07 -1.16493e-07   -0.0260546 
         -50       17.002  1.07288e-07 -1.12383e-07    -0.026053 
         -50      17.1287  1.00647e-07 -1.08101e-07   -0.0260514 
         -50      17.2557  9.29733e-08 -1.03799e-07   -0.0260498 
         -50      17.3834  8.52395e-08 -9.95633e-08   -0.0260482 
         -50      17.5115  7.81433e-08 -9.54473e-08   -0.0260465 
         -50      17.6399  7.21249e-08 -9.14699e-08   -0.0260448 
         -50       17.769  6.73948e-08 -8.76128e-08   -0.0260431 
         -50      17.8984   6.4003e-08 -8.38492e-08   -0.0260414 
         -50      18.0284   6.1846e-08 -8.01265e-08   -0.0260397 
         -50      18.1587  6.07242e-08 -7.63963e-08    -0.026038 
         -50      18.2896  6.03608e-08 -7.25963e-08   -0.0260362 
         -50       18.421  6.04421e-08 -6.86764e-08   -0.0260345 
         -50      18.5528  6.06419e-08 -6.45949e-08   -0.0260327 
         -50      18.6851  6.06512e-08 -6.03119e-08   -0.0260309 
         -50      18.8178  6.02009e-08 -5.58163e-08   -0.0260291 
         -50      18.9511  5.90821e-08 -5.11003e-08   -0.0260272 
         -50      19.0847  5.71673e-08   -4.619e-08   -0.0260254 
         -50      19.2189  5.44166e-08 -4.11161e-08   -0.0260235 
         -50      19.3535  5.09002e-08 -3.59445e-08   -0.0260217 
         -50      19.4886  4.67865e-08 -3.07431e-08   -0.0260198 
         -50      19.6242  4.23614e-08 -2.56079e-08   -0.0260179 
         -50      19.7602  3.80172e-08 -2.06464e-08   -0.0260159 
         -50      19.8968  3.42313e-08  -1.5961e-08    -0.026014 
         -50      20.0337  3.15743e-08   -1.167e-08   -0.0260121 
         -50      20.1712  3.06669e-08 -7.86973e-09   -0.0260101 
         -50      20.3091  3.33501e-08 -4.71063e-09   -0.0260081 
         -50      20.4475  4.00609e-08 -2.68175e-09   -0.0260061 
         -50      20.5864  4.45301e-08 -1.35719e-09   -0.0260041 
         -50      20.7257  4.58738e-08 -4.85505e-11   -0.0260021 
         -50      20.8655  4.29802e-08  2.10406e-09       -0.026 
         -50      21.0058   3.4471e-08  6.16424e-09   -0.0259979 
         -50      21.1465  1.86331e-08  1.34641e-08   -0.0259959 
         -50      21.2877  7.62301e-09  1.56606e-08   -0.0259938 
         -50      21.4294  1.41693e-08  1.37269e-08   -0.0259917 
         -50      21.5716  1.84997e-08   1.7996e-08   -0.0259895 
         -50      21.7142  1.75677e-08  2.49741e-08   -0.0259874 
         -50      21.8573  1.13289e-08   3.2282e-08   -0.0259852 
         -50      22.0008  8.60375e-09   3.4963e-08    -0.025983 
         -50      22.1449  1.86248e-08  3.02519e-08   -0.0259809 
         -50      22.2893  2.62307e-08   2.6557e-08   -0.0259787 
         -50      22.4344  3.12255e-08  2.38781e-08   -0.0259764 
         -50      22.5797  3.35859e-08  2.21704e-08   -0.0259742 
         -50      22.7257  3.34724e-08  2.13403e-08   -0.0259719 
         -50      22.8721  3.11898e-08  2.12678e-08   -0.0259697 
         -50      23.0189  2.71756e-08  2.18102e-08   -0.0259674 
         -50      23.1663  2.19547e-08  2.28165e-08   -0.0259651 
         -50       23.314  1.61334e-08  2.41322e-08   -0.0259628 
         -50      23.4623  1.03347e-08  2.56131e-08   -0.0259604 
         -50       23.611  5.19572e-09   2.7125e-08   -0.0259581 
         -50      23.7602  1.29247e-09  2.85582e-08   -0.0259557 
         -50        23.91 -8.74552e-10   2.9824e-08   -0.0259533 
         -50        24.06 -9.46685e-10  3.08628e-08   -0.0259509 
         -50      24.2107   1.2469e-09  3.16473e-08   -0.0259485 
         -50      24.3617  5.62946e-09  3.21785e-08   -0.0259461 
         -50      24.5133  1.18304e-08  3.24893e-08   -0.0259436 
         -50      24.6653  1.90939e-08  3.26385e-08   -0.0259412 
         -50      24.8178  2.62469e-08  3.27084e-08   -0.0259387 
         -50      24.9708  3.15861e-08  3.27976e-08   -0.0259362 
         -50      25.1242  3.28236e-08  3.30122e-08   -0.0259337 
         -50      25.2781  2.69988e-08  3.34567e-08   -0.0259312 
         -50      25.4324  1.03985e-08  3.42187e-08   -0.0259286 
         -50      25.5873   -2.625e-09  3.76579e-08   -0.0259261 
         -50      25.7426 -2.67813e-09  3.90748e-08   -0.0259235 
         -50      25.8984  4.14788e-09  3.89309e-08   -0.0259209 
         -50      26.0546  1.31621e-08  3.78505e-08   -0.0259183 
         -50      26.2114  2.10734e-08  3.63524e-08   -0.0259157 
         -50      26.3686  2.60601e-08  3.48977e-08    -0.025913 
         -50      26.5262  2.77335e-08   3.3897e-08   -0.0259104 
         -50      26.6844  2.68756e-08  3.36801e-08   -0.0259077 
         -50      26.8429  2.49729e-08  3.44321e-08    -0.025905 
         -50       27.002  2.35422e-08  3.60831e-08   -0.0259023 
         -50      27.1615  2.32368e-08   3.8149e-08   -0.0258996 
         -50      27.3216  2.26988e-08  3.95385e-08   -0.0258969 
         -50      27.4821  1.71641e-08  3.82891e-08   -0.0258942 
         -50       27.643  1.83661e-08  3.92769e-08   -0.0258914 
         -50      27.8044  2.47333e-08  4.22604e-08   -0.0258886 
         -50      27.9663  2.78942e-08   4.4075e-08   -0.0258858 
         -50      28.1287  2.86876e-08   4.5009e-08    -0.025883 
         -50      28.2914  2.78221e-08  4.53026e-08   -0.0258802 
         -50      28.4548   2.5892e-08  4.51579e-08   -0.0258774 
         -50      28.6185  2.33898e-08  4.47395e-08   -0.0258745 
         -50      28.7828  2.07049e-08  4.41784e-08   -0.0258716 
         -50      28.9475  1.81445e-08  4.35762e-08   -0.0258688 
         -50      29.1126  1.59362e-08  4.30082e-08   -0.0258659 
         -50      29.2784  1.42317e-08  4.25249e-08    -0.025863 
         -50      29.4444  1.31264e-08   4.2158e-08     -0.02586 
         -50       29.611  1.26574e-08   4.1921e-08   -0.0258571 
         -50       29.778  1.28183e-08  4.18136e-08   -0.0258541 
         -50      29.9456   1.3564e-08  4.18239e-08   -0.0258512 
         -50      30.1137  1.48188e-08  4.19313e-08   -0.0258482 
         -50      30.2821   1.6482e-08  4.21087e-08   -0.0258452 
         -50      30.4511   1.8441e-08  4.23255e-08   -0.0258422 
         -50      30.6204  2.05677e-08   4.2549e-08   -0.0258391 
         -50      30.7903  2.27372e-08  4.27474e-08   -0.0258361 
         -50      30.9606  2.48202e-08  4.28904e-08    -0.025833 
         -50      31.1315  2.67022e-08  4.29519e-08     -0.02583 
         -50      31.3028   2.8276e-08  4.29105e-08   -0.0258269 
         -50      31.4745  2.94529e-08  4.27513e-08   -0.0258238 
         -50      31.6468  3.01679e-08   4.2466e-08   -0.0258206 
         -50      31.8194  3.03772e-08  4.20544e-08   -0.0258175 
         -50      31.9926  3.00654e-08  4.15231e-08   -0.0258144 
         -50      32.1662  2.92462e-08  4.08877e-08   -0.0258112 
         -50      32.3404  2.79616e-08  4.01694e-08    -0.025808 
         -50      32.5149  2.62872e-08  3.93978e-08   -0.0258049 
         -50        32.69  2.43245e-08  3.86056e-08   -0.0258017 
         -50      32.8655  2.22079e-08  3.78311e-08   -0.0257985 
         -50      33.0414  2.00989e-08  3.71142e-08   -0.0257952 
         -50       33.218  1.81783e-08  3.64926e-08    -0.025792 
         -50      33.3948  1.66526e-08  3.60025e-08   -0.0257887 
         -50      33.5723  1.57381e-08  3.56713e-08   -0.0257855 
         -50        33.75  1.56631e-08  3.55172e-08   -0.0257822 
         -50      33.9284   1.6656e-08  3.55423e-08   -0.0257789 
         -50      34.1073   1.8939e-08   3.5729e-08   -0.0257756 
         -50      34.2865  2.27126e-08  3.60337e-08   -0.0257723 
         -50      34.4663  2.81592e-08  3.63814e-08   -0.0257689 
         -50      34.6465  3.54055e-08  3.66581e-08   -0.0257656 
         -50      34.8272  4.45443e-08  3.67042e-08   -0.0257622 
         -50      35.0083  4.43717e-08  3.72248e-08   -0.0257589 
         -50        35.19  3.49773e-08   3.9844e-08   -0.0257555 
         -50      35.3721  2.30774e-08  4.48535e-08   -0.0257521 
         -50      35.5546  1.17909e-08  4.98256e-08   -0.0257487 
         -50      35.7377   2.0003e-08   4.1962e-08   -0.0257453 
         -50      35.9211  2.66649e-08  3.64613e-08   -0.0257418 
         -50      36.1052  3.18646e-08  3.28575e-08   -0.0257384 
         -50      36.2895   3.5694e-08  3.07702e-08   -0.0257349 
         -50      36.4745  3.82794e-08  2.98757e-08   -0.0257315 
         -50      36.6598  3.97526e-08  2.99166e-08    -0.025728 
         -50      36.8457  4.00678e-08  3.06557e-08   -0.0257245 
         -50      37.0321  3.66248e-08  3.11073e-08    -0.025721 
         -50      37.2188  3.33395e-08  3.16023e-08   -0.0257175 
         -50      37.4062  3.03194e-08   3.2153e-08   -0.0257139 
         -50      37.5938  2.76478e-08  3.27568e-08   -0.0257104 
         -50      37.7821  2.53687e-08  3.34021e-08   -0.0257068 
         -50      37.9707   2.3508e-08  3.40678e-08   -0.0257033 
         -50      38.1599  2.20627e-08  3.47298e-08   -0.0256997 
         -50      38.3496  2.10161e-08  3.53596e-08   -0.0256961 
         -50      38.5396  2.03357e-08  3.59287e-08   -0.0256925 
         -50      38.7302   1.9976e-08  3.64115e-08   -0.0256889 
         -50      38.9211  1.98855e-08   3.6784e-08   -0.0256853 
         -50      39.1127  2.00071e-08  3.70285e-08   -0.0256817 
         -50      39.3046  2.02815e-08  3.71326e-08   -0.0256781 
         -50      39.4971  2.06509e-08  3.70912e-08   -0.0256744 
         -50      39.6899  2.10593e-08  3.69071e-08   -0.0256707 
         -50      39.8833  2.14573e-08  3.65903e-08   -0.0256671 
         -50      40.0772  2.18013e-08  3.61595e-08   -0.0256634 
         -50      40.2714  2.20565e-08  3.56408e-08   -0.0256597 
         -50      40.4663  2.21986e-08  3.50662e-08    -0.025656 
         -50      40.6615  2.22131e-08  3.44744e-08   -0.0256523 
         -50      40.8573   2.2097e-08  3.39064e-08   -0.0256486 
         -50      41.0534   2.1859e-08   3.3407e-08   -0.0256449 
         -50      41.2501  2.15182e-08  3.30182e-08   -0.0256411 
         -50      41.4473   2.1105e-08    3.278e-08   -0.0256374 
         -50      41.6448  2.06593e-08  3.27247e-08   -0.0256336 
         -50      41.8429  2.02279e-08   3.2873e-08   -0.0256298 
         -50      42.0414  1.98652e-08  3.32303e-08   -0.0256261 
         -50      42.2405  1.96276e-08  3.37814e-08   -0.0256223 
         -50      42.4399   1.9573e-08  3.44836e-08   -0.0256185 
         -50      42.6399   1.9756e-08   3.5263e-08   -0.0256147 
         -50      42.8404  2.02244e-08  3.60044e-08   -0.0256109 
         -50      43.0412  2.10132e-08  3.65452e-08   -0.0256071 
         -50      43.2426  2.21426e-08  3.66684e-08   -0.0256032 
         -50      43.4444  2.36065e-08  3.60913e-08   -0.0255994 
         -50      43.6467  2.53738e-08  3.44559e-08   -0.0255955 
         -50      43.8494  2.73712e-08  3.13232e-08   -0.0255917 
         -50      44.0527   2.9487e-08  2.61496e-08   -0.0255878 
         -50      44.2563  3.13918e-08  1.86654e-08    -0.025584 
         -50      44.4606   2.6466e-08  2.49246e-08   -0.0255801 
         -50      44.6653  2.20263e-08  2.97015e-08   -0.0255762 
         -50      44.8704  1.83004e-08  3.31809e-08   -0.0255723 
         -50       45.076  1.54721e-08  3.55375e-08   -0.0255684 
         -50       45.282  1.36824e-08   3.6921e-08   -0.0255645 
         -50      45.4886  1.29927e-08  3.74749e-08   -0.0255606 
         -50      45.6955  1.33774e-08  3.73298e-08   -0.0255567 
         -50       45.903  1.46984e-08  3.66089e-08   -0.0255527 
         -50      46.1111   1.6685e-08  3.54307e-08   -0.0255488 
         -50      46.3194  1.89101e-08  3.39113e-08   -0.0255449 
         -50      46.5283  2.07762e-08  3.21614e-08   -0.0255409 
         -50      46.7376  2.14802e-08  3.02967e-08    -0.025537 
         -50      46.9475  1.99991e-08  2.84285e-08    -0.025533 
         -50      47.1577  1.50641e-08  2.66761e-08    -0.025529 
         -50      47.3685  1.28047e-08  2.56657e-08   -0.0255251 
         -50      47.5798  2.07192e-08  2.56788e-08   -0.0255211 
         -50      47.7914   2.7225e-08    2.579e-08   -0.0255171 
         -50      48.0037  3.22896e-08  2.59927e-08   -0.0255131 