Variables = x, y, u, v, p

Zone, I=20800, F=POINT
         -50            0            0            0    0.0264873 
         -50     0.000234 -6.17237e-08  1.32358e-10    0.0264873 
         -50     0.000939 -2.50306e-07  5.61394e-10    0.0264873 
         -50     0.002113 -5.72313e-07  1.37577e-09    0.0264873 
         -50     0.003759 -1.03807e-06  2.72446e-09    0.0264873 
         -50     0.005872 -1.65509e-06  4.80136e-09    0.0264873 
         -50     0.008457 -2.43027e-06  7.85305e-09    0.0264873 
         -50      0.01151 -3.36212e-06  1.21494e-08    0.0264873 
         -50     0.015036 -4.44533e-06  1.79917e-08    0.0264873 
         -50     0.019031 -5.66628e-06  2.56704e-08    0.0264873 
         -50     0.023493   -7.009e-06  3.54623e-08    0.0264873 
         -50     0.028429 -8.46066e-06  4.76338e-08    0.0264873 
         -50     0.033831 -1.00073e-05  6.23705e-08    0.0264873 
         -50     0.039706 -1.16438e-05  7.98405e-08    0.0264873 
         -50     0.046047 -1.33626e-05  1.00111e-07    0.0264873 
         -50     0.052863 -1.51565e-05   1.2323e-07    0.0264873 
         -50      0.06015 -1.70037e-05  1.49124e-07    0.0264873 
         -50       0.0679 -1.88689e-05  1.77574e-07    0.0264873 
         -50     0.076126 -2.07281e-05  2.08212e-07    0.0264873 
         -50     0.084816 -2.26033e-05   2.4019e-07    0.0264873 
         -50     0.093982 -2.44333e-05  2.73576e-07    0.0264873 
         -50     0.103611  -2.6217e-05  3.07222e-07    0.0264873 
         -50     0.113718 -2.79377e-05  3.39528e-07    0.0264873 
         -50     0.124286 -2.95746e-05  3.68833e-07    0.0264873 
         -50     0.135333 -3.11156e-05  3.93549e-07    0.0264873 
         -50      0.14685 -3.25469e-05  4.11881e-07    0.0264873 
         -50     0.158827 -3.38582e-05  4.21812e-07    0.0264873 
         -50     0.171284 -3.50456e-05  4.21033e-07    0.0264873 
         -50     0.184201 -3.61038e-05  4.06979e-07    0.0264873 
         -50     0.197599 -3.70341e-05  3.77157e-07    0.0264873 
         -50     0.211455 -3.78369e-05  3.30055e-07    0.0264873 
         -50     0.225792 -3.85187e-05  2.66455e-07    0.0264873 
         -50       0.2406 -3.90878e-05  1.92242e-07    0.0264873 
         -50     0.255865 -3.95605e-05  1.27746e-07    0.0264873 
         -50     0.271613 -3.99375e-05  4.11815e-08    0.0264873 
         -50     0.287818 -4.02273e-05  -5.6989e-08    0.0264872 
         -50     0.304506 -4.04488e-05 -1.29758e-07    0.0264872 
         -50      0.32165 -4.06164e-05 -1.56115e-07    0.0264872 
         -50     0.339278 -4.07413e-05 -1.30374e-07    0.0264872 
         -50     0.357377 -4.08305e-05 -5.97461e-08    0.0264872 
         -50      0.37593 -4.08881e-05  3.86793e-08    0.0264872 
         -50     0.394968 -4.09154e-05  1.42482e-07    0.0264872 
         -50     0.414461 -4.09116e-05  2.28016e-07    0.0264872 
         -50      0.43444 -4.08753e-05  2.75734e-07    0.0264872 
         -50     0.454872  -4.0805e-05  2.73887e-07    0.0264871 
         -50     0.475791 -4.07001e-05  2.21511e-07    0.0264871 
         -50     0.497163 -4.05619e-05  1.28583e-07    0.0264871 
         -50     0.519021 -4.03924e-05  1.18913e-08    0.0264871 
         -50      0.54135  -4.0195e-05 -1.14114e-07    0.0264871 
         -50     0.564131 -3.99714e-05 -2.54872e-07    0.0264871 
         -50       0.5874 -3.97174e-05 -4.63918e-07    0.0264871 
         -50     0.611121 -3.94119e-05 -8.81301e-07     0.026487 
         -50      0.63533 -3.89927e-05 -1.35449e-06     0.026487 
         -50      0.65999 -3.85104e-05 -1.67262e-06     0.026487 
         -50     0.685139 -3.79458e-05  -1.8557e-06     0.026487 
         -50     0.710759 -3.72854e-05 -1.92357e-06     0.026487 
         -50     0.736828 -3.65214e-05 -1.89668e-06     0.026487 
         -50     0.763387 -3.56491e-05 -1.79534e-06     0.026487 
         -50     0.790396 -3.46713e-05 -1.63956e-06     0.026487 
         -50     0.817896 -3.35923e-05 -1.44816e-06    0.0264869 
         -50     0.845843  -3.2424e-05 -1.23927e-06    0.0264869 
         -50     0.874283 -3.11777e-05 -1.02877e-06    0.0264869 
         -50      0.90317 -2.98713e-05  -8.3125e-07    0.0264869 
         -50     0.932551 -2.85205e-05 -6.58301e-07    0.0264869 
         -50     0.962401  -2.7145e-05 -5.19365e-07    0.0264869 
         -50     0.992697 -2.57643e-05 -4.20834e-07    0.0264869 
         -50      1.02349 -2.43932e-05 -3.65756e-07    0.0264869 
         -50      1.05472  -2.3049e-05 -3.54193e-07     0.026487 
         -50      1.08645 -2.17411e-05 -3.82856e-07     0.026487 
         -50      1.11863 -2.04793e-05 -4.45325e-07     0.026487 
         -50       1.1513 -1.92645e-05 -5.32512e-07     0.026487 
         -50      1.18444 -1.80957e-05 -6.32857e-07    0.0264871 
         -50      1.21802 -1.69668e-05 -7.33158e-07    0.0264871 
         -50      1.25211 -1.58646e-05 -8.19852e-07    0.0264871 
         -50      1.28663 -1.47763e-05 -8.79765e-07    0.0264871 
         -50      1.32165 -1.36842e-05 -9.02303e-07    0.0264872 
         -50      1.35712  -1.2576e-05 -8.81148e-07    0.0264872 
         -50      1.39308 -1.14414e-05 -8.16938e-07    0.0264872 
         -50      1.42951 -1.02837e-05 -7.20356e-07    0.0264873 
         -50      1.46638 -9.12461e-06 -6.15866e-07    0.0264873 
         -50      1.50375 -8.00946e-06 -5.45678e-07    0.0264874 
         -50      1.54156 -6.89381e-06 -6.19212e-07    0.0264874 
         -50      1.57987 -5.76813e-06 -6.80494e-07    0.0264875 
         -50      1.61863 -4.64523e-06 -7.23774e-07    0.0264875 
         -50      1.65788 -3.53042e-06 -7.51971e-07    0.0264876 
         -50      1.69757 -2.43227e-06 -7.67696e-07    0.0264876 
         -50      1.73776 -1.35536e-06 -7.73431e-07    0.0264877 
         -50      1.77842  -3.0651e-07 -7.71408e-07    0.0264878 
         -50      1.81952  7.07932e-07 -7.63665e-07    0.0264878 
         -50      1.86113  1.68463e-06 -7.51995e-07    0.0264879 
         -50      1.90316  2.61746e-06 -7.37998e-07     0.026488 
         -50      1.94571  3.50394e-06 -7.23009e-07    0.0264881 
         -50      1.98869  4.33919e-06 -7.08187e-07    0.0264881 
         -50      2.03217  5.12165e-06 -6.94428e-07    0.0264882 
         -50      2.07612  5.84827e-06 -6.82455e-07    0.0264883 
         -50      2.12051  6.51679e-06 -6.72789e-07    0.0264883 
         -50       2.1654  7.12705e-06  -6.6574e-07    0.0264884 
         -50      2.21073  7.67742e-06 -6.61476e-07    0.0264885 
         -50      2.25656   8.1687e-06 -6.59992e-07    0.0264885 
         -50      2.30283  8.60054e-06 -6.61158e-07    0.0264886 
         -50       2.3496  8.97457e-06 -6.64729e-07    0.0264886 
         -50      2.39685   9.2919e-06 -6.70366e-07    0.0264887 
         -50      2.44452  9.55425e-06 -6.77657e-07    0.0264887 
         -50      2.49271  9.76437e-06 -6.86162e-07    0.0264888 
         -50      2.54132  9.92467e-06 -6.95401e-07    0.0264888 
         -50      2.59044  1.00385e-05 -7.04924e-07    0.0264889 
         -50         2.64  1.01089e-05 -7.14282e-07    0.0264889 
         -50      2.69006  1.01398e-05  -7.2311e-07     0.026489 
         -50      2.74056  1.01349e-05 -7.31086e-07     0.026489 
         -50      2.79156   1.0098e-05 -7.38007e-07     0.026489 
         -50      2.84304  1.00331e-05 -7.43756e-07     0.026489 
         -50      2.89494  9.94428e-06 -7.48335e-07     0.026489 
         -50      2.94735  9.83526e-06 -7.51878e-07    0.0264891 
         -50       3.0002  9.70993e-06 -7.54623e-07    0.0264891 
         -50      3.05355   9.5716e-06 -7.56927e-07    0.0264891 
         -50      3.10733  9.42368e-06 -7.59226e-07    0.0264891 
         -50      3.16163  9.26877e-06 -7.62022e-07    0.0264891 
         -50      3.21639  9.10938e-06 -7.65828e-07     0.026489 
         -50      3.27158  8.94754e-06  -7.7111e-07     0.026489 
         -50      3.32729   8.7843e-06 -7.78233e-07     0.026489 
         -50      3.38342  8.62063e-06 -7.87339e-07     0.026489 
         -50      3.44007  8.45631e-06 -7.98278e-07    0.0264889 
         -50      3.49714   8.2909e-06 -8.10418e-07    0.0264889 
         -50      3.55472  8.12275e-06 -8.22559e-07    0.0264888 
         -50      3.61273  7.94994e-06 -8.32667e-07    0.0264888 
         -50      3.67125  7.76928e-06 -8.37736e-07    0.0264887 
         -50      3.73025  7.57724e-06  -8.3347e-07    0.0264886 
         -50      3.78967  7.40385e-06 -8.31827e-07    0.0264886 
         -50      3.84961  7.24117e-06 -8.39386e-07    0.0264885 
         -50      3.90996  7.07623e-06 -8.50222e-07    0.0264884 
         -50      3.97084   6.9142e-06 -8.53263e-07    0.0264883 
         -50      4.03214  6.75414e-06 -8.54884e-07    0.0264882 
         -50      4.09395  6.59592e-06 -8.56704e-07    0.0264881 
         -50      4.15624   6.4401e-06 -8.58864e-07     0.026488 
         -50      4.21895  6.28711e-06 -8.61429e-07    0.0264879 
         -50      4.28217  6.13689e-06  -8.6441e-07    0.0264877 
         -50      4.34582  5.98975e-06 -8.67756e-07    0.0264876 
         -50      4.40998  5.84546e-06 -8.71387e-07    0.0264874 
         -50      4.47457  5.70422e-06 -8.75181e-07    0.0264873 
         -50      4.53968   5.5657e-06  -8.7901e-07    0.0264871 
         -50      4.60525  5.42992e-06 -8.82727e-07     0.026487 
         -50      4.67125   5.2969e-06 -8.86189e-07    0.0264868 
         -50      4.73777  5.16634e-06 -8.89271e-07    0.0264866 
         -50       4.8047  5.03842e-06 -8.91862e-07    0.0264864 
         -50      4.87216  4.91291e-06 -8.93884e-07    0.0264863 
         -50      4.94003  4.79005e-06 -8.95291e-07    0.0264861 
         -50      5.00843  4.66972e-06  -8.9608e-07    0.0264858 
         -50      5.07724  4.55223e-06 -8.96292e-07    0.0264856 
         -50      5.14658  4.43752e-06 -8.96013e-07    0.0264854 
         -50      5.21639   4.3258e-06 -8.95374e-07    0.0264852 
         -50      5.28661  4.21727e-06 -8.94549e-07    0.0264849 
         -50      5.35736  4.11178e-06 -8.93745e-07    0.0264847 
         -50      5.42852  4.00941e-06 -8.93197e-07    0.0264844 
         -50      5.50021  3.90971e-06 -8.93147e-07    0.0264842 
         -50      5.57231  3.81234e-06 -8.93835e-07    0.0264839 
         -50      5.64493  3.71625e-06 -8.95469e-07    0.0264836 
         -50      5.71803  3.62251e-06 -8.92275e-07    0.0264833 
         -50      5.79154  3.53226e-06  -8.9223e-07     0.026483 
         -50      5.86558  3.44455e-06   -8.932e-07    0.0264827 
         -50      5.94003  3.35897e-06  -8.9385e-07    0.0264824 
         -50      6.01501  3.27506e-06 -8.93498e-07    0.0264821 
         -50       6.0904  3.19282e-06 -8.91972e-07    0.0264818 
         -50      6.16632  3.11213e-06 -8.89461e-07    0.0264815 
         -50      6.24271  3.03314e-06 -8.86376e-07    0.0264811 
         -50       6.3195  2.95604e-06 -8.83198e-07    0.0264808 
         -50      6.39683   2.8808e-06 -8.80329e-07    0.0264804 
         -50      6.47457  2.80753e-06 -8.77967e-07      0.02648 
         -50      6.55284  2.73596e-06 -8.75951e-07    0.0264796 
         -50      6.63152  2.66584e-06 -8.73651e-07    0.0264793 
         -50      6.71073  2.59636e-06 -8.69834e-07    0.0264789 
         -50      6.79034  2.53129e-06 -8.65304e-07    0.0264785 
         -50      6.87049  2.46898e-06 -8.61505e-07     0.026478 
         -50      6.95111  2.40779e-06 -8.57705e-07    0.0264776 
         -50      7.03214  2.34789e-06 -8.53697e-07    0.0264772 
         -50       7.1137  2.28928e-06 -8.49341e-07    0.0264767 
         -50      7.19566  2.23217e-06 -8.44574e-07    0.0264763 
         -50      7.27816  2.17658e-06 -8.39378e-07    0.0264758 
         -50      7.36106  2.12268e-06 -8.33801e-07    0.0264754 
         -50      7.44451  2.07048e-06 -8.27918e-07    0.0264749 
         -50      7.52842  2.02011e-06 -8.21854e-07    0.0264744 
         -50      7.61273  1.97165e-06 -8.15778e-07    0.0264739 
         -50      7.69758  1.92507e-06 -8.09875e-07    0.0264734 
         -50      7.78283  1.88046e-06 -8.04391e-07    0.0264729 
         -50      7.86862  1.83773e-06 -7.99595e-07    0.0264723 
         -50      7.95481  1.79688e-06 -7.95822e-07    0.0264718 
         -50      8.04155  1.75775e-06 -7.93454e-07    0.0264713 
         -50      8.12868  1.71753e-06 -7.86287e-07    0.0264707 
         -50      8.21635   1.6784e-06 -7.78138e-07    0.0264701 
         -50      8.30449  1.64094e-06 -7.70725e-07    0.0264696 
         -50      8.39303  1.60495e-06  -7.6396e-07     0.026469 
         -50      8.48211   1.5702e-06 -7.57703e-07    0.0264684 
         -50      8.57159  1.53661e-06 -7.51802e-07    0.0264678 
         -50      8.66161  1.50407e-06 -7.46065e-07    0.0264671 
         -50      8.75203  1.47259e-06 -7.40302e-07    0.0264665 
         -50      8.84299  1.44209e-06 -7.34317e-07    0.0264659 
         -50      8.93443  1.41249e-06 -7.27951e-07    0.0264652 
         -50      9.02626  1.38364e-06 -7.21107e-07    0.0264646 
         -50      9.11863  1.35512e-06 -7.13761e-07    0.0264639 
         -50      9.21139  1.32638e-06 -7.06046e-07    0.0264632 
         -50      9.30471  1.29639e-06 -6.98251e-07    0.0264625 
         -50      9.39841  1.26774e-06 -6.91501e-07    0.0264618 
         -50      9.49267  1.24232e-06 -6.85196e-07    0.0264611 
         -50      9.58739  1.21738e-06 -6.78541e-07    0.0264604 
         -50      9.68251  1.19305e-06 -6.71607e-07    0.0264596 
         -50      9.77817  1.16936e-06 -6.64445e-07    0.0264589 
         -50      9.87422  1.14638e-06 -6.57123e-07    0.0264581 
         -50      9.97083  1.12411e-06 -6.49685e-07    0.0264573 
         -50      10.0678  1.10257e-06 -6.42189e-07    0.0264566 
         -50      10.1654  1.08174e-06 -6.34663e-07    0.0264558 
         -50      10.2633  1.06161e-06 -6.27155e-07     0.026455 
         -50      10.3618  1.04213e-06 -6.19676e-07    0.0264541 
         -50      10.4607  1.02326e-06 -6.12251e-07    0.0264533 
         -50      10.5601  1.00497e-06 -6.04896e-07    0.0264525 
         -50        10.66   9.8719e-07 -5.97598e-07    0.0264516 
         -50      10.7603  9.69898e-07 -5.90364e-07    0.0264508 
         -50      10.8611  9.53021e-07 -5.83168e-07    0.0264499 
         -50      10.9623  9.36549e-07 -5.76001e-07     0.026449 
         -50      11.0641  9.20424e-07 -5.68828e-07    0.0264481 
         -50      11.1663  9.04636e-07 -5.61627e-07    0.0264472 
         -50       11.269  8.89189e-07 -5.54372e-07    0.0264463 
         -50      11.3721  8.74059e-07 -5.47026e-07    0.0264453 
         -50      11.4757  8.59285e-07 -5.39575e-07    0.0264444 
         -50      11.5798  8.44877e-07 -5.31991e-07    0.0264434 
         -50      11.6844  8.30901e-07  -5.2428e-07    0.0264424 
         -50      11.7894  8.17397e-07 -5.16439e-07    0.0264414 
         -50       11.895  8.04454e-07 -5.08505e-07    0.0264404 
         -50      12.0009   7.9217e-07 -5.00541e-07    0.0264394 
         -50      12.1073  7.80631e-07 -4.92622e-07    0.0264384 
         -50      12.2142   7.6997e-07 -4.84888e-07    0.0264374 
         -50      12.3216  7.60294e-07 -4.77501e-07    0.0264363 
         -50      12.4294   7.5175e-07   -4.707e-07    0.0264352 
         -50      12.5378  7.44456e-07 -4.64769e-07    0.0264342 
         -50      12.6465  7.37398e-07 -4.60479e-07    0.0264331 
         -50      12.7558  7.30121e-07 -4.57476e-07     0.026432 
         -50      12.8656  7.23031e-07 -4.47959e-07    0.0264309 
         -50      12.9757  7.15101e-07 -4.39445e-07    0.0264297 
         -50      13.0864  7.03309e-07 -4.28682e-07    0.0264286 
         -50      13.1975  6.92511e-07 -4.19128e-07    0.0264274 
         -50      13.3092  6.82413e-07 -4.10447e-07    0.0264263 
         -50      13.4212  6.72827e-07 -4.02387e-07    0.0264251 
         -50      13.5338  6.63599e-07 -3.94717e-07    0.0264239 
         -50      13.6468  6.54651e-07 -3.87272e-07    0.0264227 
         -50      13.7603  6.45948e-07 -3.79928e-07    0.0264214 
         -50      13.8743  6.37468e-07 -3.72581e-07    0.0264202 
         -50      13.9886  6.29239e-07 -3.65182e-07    0.0264189 
         -50      14.1036  6.21278e-07 -3.57692e-07    0.0264177 
         -50      14.2189  6.13636e-07 -3.50116e-07    0.0264164 
         -50      14.3348  6.06339e-07 -3.42459e-07    0.0264151 
         -50       14.451   5.9943e-07 -3.34766e-07    0.0264138 
         -50      14.5678  5.92919e-07 -3.27069e-07    0.0264125 
         -50      14.6851  5.86815e-07 -3.19425e-07    0.0264111 
         -50      14.8028  5.81108e-07 -3.11896e-07    0.0264098 
         -50       14.921  5.75753e-07 -3.04524e-07    0.0264084 
         -50      15.0396  5.70704e-07  -2.9737e-07     0.026407 
         -50      15.1588  5.65875e-07  -2.9046e-07    0.0264056 
         -50      15.2783  5.61182e-07 -2.83832e-07    0.0264042 
         -50      15.3984  5.56514e-07 -2.77482e-07    0.0264028 
         -50       15.519  5.51765e-07   -2.714e-07    0.0264013 
         -50        15.64  5.46834e-07 -2.65551e-07    0.0263999 
         -50      15.7615  5.41624e-07 -2.59857e-07    0.0263984 
         -50      15.8834  5.36082e-07 -2.54224e-07    0.0263969 
         -50      16.0058  5.30183e-07 -2.48505e-07    0.0263954 
         -50      16.1286  5.23986e-07 -2.42532e-07    0.0263939 
         -50       16.252  5.17616e-07 -2.36077e-07    0.0263924 
         -50      16.3759  5.11324e-07 -2.28883e-07    0.0263908 
         -50      16.5002  5.05502e-07 -2.20648e-07    0.0263893 
         -50       16.625  5.00699e-07 -2.11001e-07    0.0263877 
         -50      16.7501  4.96687e-07 -2.04343e-07    0.0263861 
         -50      16.8759  4.92238e-07 -2.02153e-07    0.0263845 
         -50       17.002  4.87951e-07 -1.99105e-07    0.0263829 
         -50      17.1287  4.83779e-07 -1.95317e-07    0.0263812 
         -50      17.2557  4.79695e-07 -1.90927e-07    0.0263796 
         -50      17.3834  4.75672e-07 -1.86066e-07    0.0263779 
         -50      17.5115  4.71697e-07 -1.80873e-07    0.0263762 
         -50      17.6399  4.67763e-07 -1.75482e-07    0.0263745 
         -50       17.769   4.6386e-07 -1.70006e-07    0.0263728 
         -50      17.8984  4.59991e-07 -1.64559e-07    0.0263711 
         -50      18.0284  4.56153e-07 -1.59221e-07    0.0263693 
         -50      18.1587  4.52353e-07 -1.54072e-07    0.0263676 
         -50      18.2896   4.4859e-07 -1.49148e-07    0.0263658 
         -50       18.421  4.44871e-07 -1.44477e-07     0.026364 
         -50      18.5528  4.41205e-07  -1.4006e-07    0.0263622 
         -50      18.6851  4.37592e-07 -1.35864e-07    0.0263604 
         -50      18.8178  4.34045e-07 -1.31842e-07    0.0263585 
         -50      18.9511  4.30567e-07 -1.27915e-07    0.0263567 
         -50      19.0847  4.27176e-07 -1.23993e-07    0.0263548 
         -50      19.2189  4.23883e-07 -1.19957e-07    0.0263529 
         -50      19.3535  4.20713e-07 -1.15688e-07     0.026351 
         -50      19.4886   4.1769e-07 -1.11048e-07    0.0263491 
         -50      19.6242  4.14857e-07 -1.05905e-07    0.0263472 
         -50      19.7602  4.12268e-07  -1.0014e-07    0.0263452 
         -50      19.8968  4.09985e-07 -9.36338e-08    0.0263432 
         -50      20.0337  4.08101e-07 -8.63165e-08    0.0263413 
         -50      20.1712  4.06724e-07 -7.81351e-08    0.0263392 
         -50      20.3091  4.05069e-07 -7.09143e-08    0.0263372 
         -50      20.4475  4.01191e-07 -6.94814e-08    0.0263352 
         -50      20.5864  3.98062e-07 -6.77416e-08    0.0263332 
         -50      20.7257    3.953e-07  -6.5159e-08    0.0263311 
         -50      20.8655    3.925e-07 -6.11326e-08     0.026329 
         -50      21.0058  3.89266e-07 -5.50073e-08    0.0263269 
         -50      21.1465  3.85207e-07 -4.60367e-08    0.0263248 
         -50      21.2877  3.79284e-07 -4.24121e-08    0.0263227 
         -50      21.4294  3.76088e-07 -4.40417e-08    0.0263205 
         -50      21.5716  3.76009e-07 -4.05242e-08    0.0263184 
         -50      21.7142  3.76608e-07 -3.40632e-08    0.0263162 
         -50      21.8573  3.76074e-07 -2.64241e-08     0.026314 
         -50      22.0008  3.72639e-07 -2.11759e-08    0.0263118 
         -50      22.1449  3.67818e-07  -2.0604e-08    0.0263095 
         -50      22.2893  3.63944e-07 -1.96149e-08    0.0263073 
         -50      22.4344  3.60861e-07 -1.81505e-08     0.026305 
         -50      22.5797  3.58402e-07 -1.62101e-08    0.0263028 
         -50      22.7257  3.56384e-07 -1.38281e-08    0.0263005 
         -50      22.8721  3.54632e-07 -1.10711e-08    0.0262982 
         -50      23.0189  3.52984e-07 -8.02458e-09    0.0262958 
         -50      23.1663  3.51299e-07 -4.77404e-09    0.0262935 
         -50       23.314  3.49469e-07 -1.41479e-09    0.0262911 
         -50      23.4623  3.47416e-07  1.97503e-09    0.0262887 
         -50       23.611  3.45105e-07  5.31815e-09    0.0262864 
         -50      23.7602  3.42531e-07  8.56235e-09    0.0262839 
         -50        23.91  3.39732e-07  1.16628e-08    0.0262815 
         -50        24.06  3.36775e-07  1.45892e-08    0.0262791 
         -50      24.2107  3.33748e-07  1.73294e-08    0.0262766 
         -50      24.3617  3.30757e-07   1.9867e-08    0.0262742 
         -50      24.5133  3.27902e-07  2.21909e-08    0.0262717 
         -50      24.6653  3.25275e-07  2.42682e-08    0.0262692 
         -50      24.8178  3.22923e-07  2.60449e-08    0.0262666 
         -50      24.9708  3.20838e-07  2.74169e-08    0.0262641 
         -50      25.1242  3.18922e-07  2.82165e-08    0.0262615 
         -50      25.2781  3.16955e-07  2.81895e-08     0.026259 
         -50      25.4324  3.14564e-07  2.69656e-08    0.0262564 
         -50      25.5873  3.11988e-07  3.10343e-08    0.0262538 
         -50      25.7426  3.10876e-07  3.51344e-08    0.0262512 
         -50      25.8984  3.10398e-07  3.85943e-08    0.0262485 
         -50      26.0546  3.09901e-07  4.13451e-08    0.0262459 
         -50      26.2114  3.08952e-07  4.34021e-08    0.0262432 
         -50      26.3686  3.07324e-07  4.48665e-08    0.0262405 
         -50      26.5262  3.04976e-07   4.5939e-08    0.0262378 
         -50      26.6844   3.0203e-07   4.6912e-08    0.0262351 
         -50      26.8429  2.98773e-07  4.81404e-08    0.0262324 
         -50       27.002  2.95629e-07  5.00102e-08    0.0262296 
         -50      27.1615  2.93173e-07   5.2874e-08    0.0262269 
         -50      27.3216  2.92107e-07  5.69916e-08    0.0262241 
         -50      27.4821  2.93282e-07  6.24238e-08    0.0262213 
         -50       27.643  2.92584e-07  6.48734e-08    0.0262185 
         -50      27.8044      2.9e-07   6.5294e-08    0.0262157 
         -50      27.9663  2.87751e-07  6.58419e-08    0.0262128 
         -50      28.1287  2.85744e-07  6.64953e-08      0.02621 
         -50      28.2914   2.8391e-07  6.72331e-08    0.0262071 
         -50      28.4548  2.82187e-07   6.8038e-08    0.0262042 
         -50      28.6185  2.80532e-07  6.88925e-08    0.0262013 
         -50      28.7828  2.78906e-07  6.97838e-08    0.0261984 
         -50      28.9475  2.77287e-07  7.06986e-08    0.0261955 
         -50      29.1126  2.75657e-07  7.16256e-08    0.0261925 
         -50      29.2784  2.74006e-07  7.25573e-08    0.0261896 
         -50      29.4444  2.72332e-07  7.34847e-08    0.0261866 
         -50       29.611  2.70635e-07  7.44036e-08    0.0261836 
         -50       29.778  2.68922e-07  7.53079e-08    0.0261806 
         -50      29.9456  2.67199e-07  7.61959e-08    0.0261776 
         -50      30.1137  2.65477e-07   7.7065e-08    0.0261745 
         -50      30.2821  2.63768e-07  7.79135e-08    0.0261715 
         -50      30.4511  2.62081e-07   7.8743e-08    0.0261684 
         -50      30.6204  2.60428e-07  7.95531e-08    0.0261653 
         -50      30.7903  2.58815e-07  8.03469e-08    0.0261622 
         -50      30.9606  2.57251e-07  8.11253e-08    0.0261591 
         -50      31.1315  2.55739e-07  8.18924e-08     0.026156 
         -50      31.3028   2.5428e-07   8.2651e-08    0.0261528 
         -50      31.4745  2.52876e-07  8.34037e-08    0.0261497 
         -50      31.6468  2.51518e-07  8.41555e-08    0.0261465 
         -50      31.8194    2.502e-07  8.49084e-08    0.0261433 
         -50      31.9926   2.4891e-07  8.56672e-08    0.0261401 
         -50      32.1662  2.47636e-07  8.64336e-08    0.0261369 
         -50      32.3404   2.4636e-07  8.72112e-08    0.0261337 
         -50      32.5149  2.45065e-07  8.80007e-08    0.0261304 
         -50        32.69  2.43731e-07  8.88045e-08    0.0261272 
         -50      32.8655  2.42339e-07   8.9622e-08    0.0261239 
         -50      33.0414  2.40874e-07  9.04515e-08    0.0261206 
         -50       33.218  2.39316e-07  9.12922e-08    0.0261173 
         -50      33.3948  2.37657e-07  9.21387e-08     0.026114 
         -50      33.5723  2.35888e-07  9.29873e-08    0.0261107 
         -50        33.75  2.34013e-07  9.38291e-08    0.0261074 
         -50      33.9284  2.32041e-07  9.46565e-08     0.026104 
         -50      34.1073  2.29996e-07  9.54574e-08    0.0261006 
         -50      34.2865   2.2792e-07  9.62173e-08    0.0260973 
         -50      34.4663  2.25864e-07  9.69213e-08    0.0260939 
         -50      34.6465   2.2391e-07  9.75492e-08    0.0260905 
         -50      34.8272  2.22156e-07  9.80799e-08    0.0260871 
         -50      35.0083  2.21498e-07  9.75907e-08    0.0260836 
         -50        35.19  2.20946e-07  9.74199e-08    0.0260802 
         -50      35.3721  2.19546e-07  9.87808e-08    0.0260767 
         -50      35.5546  2.17583e-07  1.00724e-07    0.0260733 
         -50      35.7377  2.17606e-07  9.75904e-08    0.0260698 
         -50      35.9211  2.17559e-07  9.54086e-08    0.0260663 
         -50      36.1052  2.17469e-07  9.39353e-08    0.0260628 
         -50      36.2895  2.17358e-07  9.29651e-08    0.0260593 
         -50      36.4745  2.17246e-07  9.23179e-08    0.0260557 
         -50      36.6598  2.17152e-07  9.18441e-08    0.0260522 
         -50      36.8457  2.17025e-07  9.15552e-08    0.0260486 
         -50      37.0321  2.15667e-07  9.35328e-08    0.0260451 
         -50      37.2188  2.14138e-07  9.53541e-08    0.0260415 
         -50      37.4062  2.12521e-07  9.69872e-08    0.0260379 
         -50      37.5938  2.10886e-07  9.84061e-08    0.0260343 
         -50      37.7821  2.09277e-07  9.95997e-08    0.0260307 
         -50      37.9707  2.07732e-07  1.00562e-07    0.0260271 
         -50      38.1599  2.06271e-07  1.01297e-07    0.0260234 
         -50      38.3496  2.04905e-07  1.01815e-07    0.0260198 
         -50      38.5396  2.03636e-07   1.0213e-07    0.0260161 
         -50      38.7302  2.02458e-07  1.02263e-07    0.0260124 
         -50      38.9211  2.01363e-07  1.02237e-07    0.0260088 
         -50      39.1127  2.00333e-07  1.02076e-07    0.0260051 
         -50      39.3046  1.99354e-07  1.01809e-07    0.0260014 
         -50      39.4971  1.98407e-07  1.01461e-07    0.0259977 
         -50      39.6899  1.97476e-07  1.01062e-07    0.0259939 
         -50      39.8833  1.96542e-07  1.00635e-07    0.0259902 
         -50      40.0772  1.95594e-07  1.00206e-07    0.0259865 
         -50      40.2714  1.94621e-07  9.97975e-08    0.0259827 
         -50      40.4663  1.93613e-07  9.94277e-08    0.0259789 
         -50      40.6615   1.9257e-07  9.91134e-08    0.0259752 
         -50      40.8573  1.91489e-07  9.88664e-08    0.0259714 
         -50      41.0534  1.90378e-07  9.86958e-08    0.0259676 
         -50      41.2501  1.89242e-07  9.86057e-08    0.0259638 
         -50      41.4473  1.88096e-07  9.85969e-08      0.02596 
         -50      41.6448  1.86955e-07  9.86656e-08    0.0259561 
         -50      41.8429  1.85834e-07  9.88047e-08    0.0259523 
         -50      42.0414  1.84753e-07  9.90029e-08    0.0259485 
         -50      42.2405  1.83727e-07  9.92465e-08    0.0259446 
         -50      42.4399  1.82772e-07  9.95185e-08    0.0259408 
         -50      42.6399  1.81897e-07  9.98008e-08    0.0259369 
         -50      42.8404  1.81106e-07  1.00074e-07     0.025933 
         -50      43.0412  1.80395e-07  1.00317e-07    0.0259291 
         -50      43.2426  1.79745e-07  1.00513e-07    0.0259252 
         -50      43.4444  1.79123e-07  1.00645e-07    0.0259213 
         -50      43.6467  1.78475e-07  1.00701e-07    0.0259174 
         -50      43.8494  1.77728e-07  1.00673e-07    0.0259135 
         -50      44.0527  1.76776e-07  1.00564e-07    0.0259096 
         -50      44.2563   1.7548e-07  1.00359e-07    0.0259056 
         -50      44.4606   1.7389e-07  9.94988e-08    0.0259017 
         -50      44.6653  1.72685e-07  9.91756e-08    0.0258977 
         -50      44.8704  1.71734e-07  9.92223e-08    0.0258938 
         -50       45.076  1.70932e-07   9.9493e-08    0.0258898 
         -50       45.282  1.70197e-07  9.98642e-08    0.0258858 
         -50      45.4886  1.69459e-07  1.00237e-07    0.0258819 
         -50      45.6955  1.68665e-07   1.0054e-07    0.0258779 
         -50       45.903  1.67764e-07  1.00728e-07    0.0258739 
         -50      46.1111  1.66713e-07  1.00787e-07    0.0258699 
         -50      46.3194  1.65464e-07  1.00737e-07    0.0258659 
         -50      46.5283  1.63958e-07  1.00634e-07    0.0258618 
         -50      46.7376  1.62127e-07   1.0057e-07    0.0258578 
         -50      46.9475  1.59874e-07  1.00681e-07    0.0258538 
         -50      47.1577  1.57084e-07  1.01146e-07    0.0258497 
         -50      47.3685  1.55717e-07  1.01038e-07    0.0258457 
         -50      47.5798  1.57306e-07  9.96121e-08    0.0258417 
         -50      47.7914  1.58392e-07  9.86778e-08    0.0258376 
         -50      48.0037  1.59031e-07  9.81281e-08    0.0258335 