Variables = x, y, u, v, p

Zone, I=20800, F=POINT
         -50            0            0            0     0.035296 
         -50     0.000234  3.92381e-08  1.04899e-12     0.035296 
         -50     0.000939  1.55576e-07  3.86036e-12     0.035296 
         -50     0.002113  3.43399e-07  6.87891e-12     0.035296 
         -50     0.003759  5.95465e-07  6.33463e-12     0.035296 
         -50     0.005872  9.02235e-07 -4.01682e-12     0.035296 
         -50     0.008457  1.25595e-06 -3.06989e-11     0.035296 
         -50      0.01151  1.64883e-06 -7.41811e-11     0.035296 
         -50     0.015036  2.07583e-06 -1.18068e-10     0.035296 
         -50     0.019031  2.53176e-06 -1.13961e-10     0.035296 
         -50     0.023493  3.01143e-06  3.43021e-11     0.035296 
         -50     0.028429  3.50859e-06  4.84221e-10     0.035296 
         -50     0.033831  4.01214e-06   1.4572e-09     0.035296 
         -50     0.039706  4.50891e-06  3.23251e-09     0.035296 
         -50     0.046047  4.98245e-06   6.1187e-09     0.035296 
         -50     0.052863  5.41882e-06  1.04358e-08     0.035296 
         -50      0.06015  5.80825e-06  1.64947e-08     0.035296 
         -50       0.0679  6.14711e-06  2.46577e-08     0.035296 
         -50     0.076126  6.42983e-06  3.55923e-08     0.035296 
         -50     0.084816  6.62479e-06  5.06893e-08     0.035296 
         -50     0.093982  6.75028e-06  6.83343e-08     0.035296 
         -50     0.103611  6.78956e-06  8.89146e-08     0.035296 
         -50     0.113718  6.74163e-06  1.14624e-07     0.035296 
         -50     0.124286  6.60744e-06  1.46455e-07     0.035296 
         -50     0.135333   6.3896e-06  1.84545e-07     0.035296 
         -50      0.14685  6.09299e-06  2.28407e-07     0.035296 
         -50     0.158827  5.72472e-06   2.7758e-07     0.035296 
         -50     0.171284  5.29282e-06  3.32455e-07     0.035296 
         -50     0.184201  4.80836e-06  3.94534e-07     0.035296 
         -50     0.197599  4.28249e-06  4.66927e-07     0.035296 
         -50     0.211455  3.72912e-06  5.53187e-07     0.035296 
         -50     0.225792  3.16089e-06   6.5553e-07     0.035296 
         -50       0.2406  2.59128e-06  7.69702e-07     0.035296 
         -50     0.255865  2.03551e-06  8.83893e-07     0.035296 
         -50     0.271613  1.49659e-06  1.04975e-06     0.035296 
         -50     0.287818  9.83503e-07  1.26465e-06     0.035296 
         -50     0.304506  5.12282e-07  1.50379e-06    0.0352959 
         -50      0.32165  9.72056e-08  1.74293e-06    0.0352959 
         -50     0.339278 -2.52696e-07  1.96074e-06    0.0352959 
         -50     0.357377 -5.31565e-07  2.13837e-06    0.0352959 
         -50      0.37593  -7.3816e-07  2.26106e-06    0.0352959 
         -50     0.394968 -8.76209e-07  2.31935e-06    0.0352959 
         -50     0.414461 -9.53122e-07   2.3094e-06    0.0352959 
         -50      0.43444   -9.805e-07  2.23437e-06    0.0352959 
         -50     0.454872 -9.72942e-07  2.10551e-06    0.0352959 
         -50     0.475791 -9.47346e-07  1.94273e-06    0.0352959 
         -50     0.497163 -9.21724e-07  1.77654e-06    0.0352959 
         -50     0.519021 -9.13689e-07  1.64828e-06    0.0352959 
         -50      0.54135 -9.38971e-07  1.61234e-06    0.0352959 
         -50     0.564131 -1.00944e-06  1.73698e-06    0.0352959 
         -50       0.5874 -1.13147e-06  2.10662e-06    0.0352959 
         -50     0.611121 -1.31289e-06   2.7889e-06    0.0352958 
         -50      0.63533 -1.59631e-06   3.2248e-06    0.0352958 
         -50      0.65999 -1.87037e-06  3.50153e-06    0.0352958 
         -50     0.685139 -2.15494e-06  3.64269e-06    0.0352957 
         -50     0.710759 -2.46489e-06  3.67119e-06    0.0352957 
         -50     0.736828 -2.81048e-06  3.60986e-06    0.0352957 
         -50     0.763387 -3.19823e-06   3.4806e-06    0.0352957 
         -50     0.790396  -3.6291e-06  3.30441e-06    0.0352957 
         -50     0.817896 -4.10106e-06  3.10035e-06    0.0352956 
         -50     0.845843 -4.60673e-06  2.88622e-06    0.0352956 
         -50     0.874283 -5.13689e-06  2.67696e-06    0.0352956 
         -50      0.90317 -5.67775e-06  2.48569e-06    0.0352956 
         -50     0.932551 -6.21511e-06  2.32217e-06    0.0352955 
         -50     0.962401 -6.73198e-06  2.19368e-06    0.0352955 
         -50     0.992697 -7.21103e-06  2.10427e-06    0.0352955 
         -50      1.02349 -7.63647e-06  2.05463e-06    0.0352954 
         -50      1.05472  -7.9924e-06  2.04255e-06    0.0352953 
         -50      1.08645 -8.26657e-06  2.06272e-06    0.0352953 
         -50      1.11863  -8.4489e-06  2.10711e-06    0.0352952 
         -50       1.1513 -8.53408e-06  2.16549e-06    0.0352951 
         -50      1.18444 -8.52095e-06  2.22584e-06     0.035295 
         -50      1.21802 -8.41371e-06  2.27524e-06     0.035295 
         -50      1.25211 -8.22133e-06  2.30106e-06    0.0352949 
         -50      1.28663   -7.958e-06    2.292e-06    0.0352948 
         -50      1.32165 -7.64098e-06  2.23977e-06    0.0352947 
         -50      1.35712 -7.29079e-06  2.14116e-06    0.0352947 
         -50      1.39308 -6.92683e-06  1.99988e-06    0.0352946 
         -50      1.42951   -6.566e-06  1.82975e-06    0.0352945 
         -50      1.46638 -6.21753e-06  1.65769e-06    0.0352944 
         -50      1.50375 -5.87631e-06  1.52679e-06    0.0352943 
         -50      1.54156 -5.57684e-06  1.53776e-06    0.0352942 
         -50      1.57987 -5.27998e-06  1.53808e-06    0.0352941 
         -50      1.61863 -4.98372e-06  1.52215e-06     0.035294 
         -50      1.65788 -4.68852e-06  1.49234e-06    0.0352938 
         -50      1.69757 -4.39577e-06  1.45095e-06    0.0352937 
         -50      1.73776 -4.10583e-06  1.40001e-06    0.0352936 
         -50      1.77842 -3.81975e-06  1.34147e-06    0.0352935 
         -50      1.81952 -3.53852e-06  1.27714e-06    0.0352933 
         -50      1.86113 -3.26239e-06  1.20847e-06    0.0352932 
         -50      1.90316 -2.99246e-06  1.13696e-06     0.035293 
         -50      1.94571 -2.72888e-06  1.06372e-06    0.0352929 
         -50      1.98869 -2.47261e-06  9.89896e-07    0.0352927 
         -50      2.03217 -2.22369e-06   9.1623e-07    0.0352926 
         -50      2.07612 -1.98274e-06  8.43486e-07    0.0352924 
         -50      2.12051 -1.75027e-06  7.72267e-07    0.0352923 
         -50       2.1654 -1.52618e-06  7.02862e-07    0.0352921 
         -50      2.21073 -1.31102e-06  6.35653e-07     0.035292 
         -50      2.25656 -1.10457e-06  5.70688e-07    0.0352918 
         -50      2.30283  -9.0723e-07  5.08122e-07    0.0352916 
         -50       2.3496 -7.18682e-07  4.47828e-07    0.0352914 
         -50      2.39685 -5.39019e-07  3.89758e-07    0.0352913 
         -50      2.44452 -3.68256e-07  3.33813e-07    0.0352911 
         -50      2.49271 -2.05946e-07  2.79731e-07    0.0352909 
         -50      2.54132  -5.2114e-08  2.27416e-07    0.0352907 
         -50      2.59044  9.37583e-08  1.76611e-07    0.0352905 
         -50         2.64  2.31752e-07  1.27253e-07    0.0352903 
         -50      2.69006   3.6243e-07  7.91581e-08    0.0352902 
         -50      2.74056  4.85959e-07   3.2356e-08      0.03529 
         -50      2.79156  6.02924e-07 -1.32091e-08    0.0352898 
         -50      2.84304  7.13622e-07 -5.74069e-08    0.0352896 
         -50      2.89494  8.18371e-07 -1.00036e-07    0.0352893 
         -50      2.94735  9.17725e-07 -1.40925e-07    0.0352891 
         -50       3.0002  1.01189e-06 -1.79704e-07    0.0352889 
         -50      3.05355  1.10134e-06 -2.16087e-07    0.0352887 
         -50      3.10733  1.18623e-06 -2.49651e-07    0.0352885 
         -50      3.16163  1.26691e-06 -2.80103e-07    0.0352883 
         -50      3.21639  1.34348e-06 -3.07134e-07     0.035288 
         -50      3.27158  1.41594e-06 -3.30577e-07    0.0352878 
         -50      3.32729   1.4844e-06 -3.50527e-07    0.0352876 
         -50      3.38342   1.5486e-06  -3.6731e-07    0.0352873 
         -50      3.44007  1.60837e-06 -3.81723e-07    0.0352871 
         -50      3.49714  1.66323e-06 -3.95061e-07    0.0352868 
         -50      3.55472   1.7127e-06 -4.09366e-07    0.0352866 
         -50      3.61273  1.75597e-06 -4.27522e-07    0.0352863 
         -50      3.67125  1.79221e-06 -4.53559e-07    0.0352861 
         -50      3.73025  1.82026e-06 -4.92809e-07    0.0352858 
         -50      3.78967   1.8575e-06 -5.24021e-07    0.0352855 
         -50      3.84961  1.89847e-06 -5.44038e-07    0.0352853 
         -50      3.90996  1.93499e-06 -5.63171e-07     0.035285 
         -50      3.97084  1.95812e-06 -5.76763e-07    0.0352847 
         -50      4.03214  1.97712e-06 -5.91787e-07    0.0352844 
         -50      4.09395  1.99401e-06 -6.08099e-07    0.0352841 
         -50      4.15624  2.00918e-06 -6.24815e-07    0.0352838 
         -50      4.21895   2.0229e-06 -6.41296e-07    0.0352835 
         -50      4.28217  2.03534e-06 -6.57153e-07    0.0352832 
         -50      4.34582  2.04659e-06 -6.72123e-07    0.0352829 
         -50      4.40998  2.05667e-06 -6.86135e-07    0.0352825 
         -50      4.47457  2.06554e-06 -6.99179e-07    0.0352822 
         -50      4.53968  2.07315e-06 -7.11366e-07    0.0352819 
         -50      4.60525  2.07941e-06 -7.22815e-07    0.0352815 
         -50      4.67125  2.08424e-06 -7.33669e-07    0.0352812 
         -50      4.73777  2.08757e-06 -7.44081e-07    0.0352808 
         -50       4.8047  2.08934e-06 -7.54145e-07    0.0352805 
         -50      4.87216  2.08953e-06 -7.63937e-07    0.0352801 
         -50      4.94003  2.08814e-06 -7.73449e-07    0.0352797 
         -50      5.00843  2.08519e-06 -7.82643e-07    0.0352793 
         -50      5.07724  2.08071e-06 -7.91399e-07    0.0352789 
         -50      5.14658  2.07475e-06 -7.99585e-07    0.0352785 
         -50      5.21639  2.06732e-06 -8.07037e-07    0.0352781 
         -50      5.28661  2.05841e-06 -8.13619e-07    0.0352777 
         -50      5.35736  2.04791e-06 -8.19285e-07    0.0352773 
         -50      5.42852   2.0356e-06 -8.24112e-07    0.0352769 
         -50      5.50021  2.02105e-06 -8.28423e-07    0.0352764 
         -50      5.57231  2.00362e-06  -8.3285e-07     0.035276 
         -50      5.64493  1.98231e-06 -8.38489e-07    0.0352756 
         -50      5.71803  1.97014e-06 -8.38728e-07    0.0352751 
         -50      5.79154  1.95412e-06 -8.40422e-07    0.0352746 
         -50      5.86558  1.93552e-06  -8.4268e-07    0.0352741 
         -50      5.94003  1.91537e-06 -8.44907e-07    0.0352737 
         -50      6.01501  1.89435e-06 -8.46742e-07    0.0352732 
         -50       6.0904  1.87299e-06 -8.47993e-07    0.0352727 
         -50      6.16632  1.85155e-06  -8.4859e-07    0.0352721 
         -50      6.24271  1.83015e-06 -8.48544e-07    0.0352716 
         -50       6.3195  1.80878e-06 -8.47923e-07    0.0352711 
         -50      6.39683   1.7873e-06 -8.46837e-07    0.0352706 
         -50      6.47457  1.76558e-06 -8.45451e-07      0.03527 
         -50      6.55284  1.74339e-06 -8.44011e-07    0.0352694 
         -50      6.63152  1.72063e-06 -8.42891e-07    0.0352689 
         -50      6.71073   1.6972e-06 -8.42674e-07    0.0352683 
         -50      6.79034  1.67251e-06  -8.4094e-07    0.0352677 
         -50      6.87049  1.64724e-06 -8.38168e-07    0.0352671 
         -50      6.95111  1.62159e-06 -8.35405e-07    0.0352665 
         -50      7.03214  1.59543e-06  -8.3257e-07    0.0352659 
         -50       7.1137  1.56858e-06 -8.29581e-07    0.0352652 
         -50      7.19566  1.54101e-06  -8.2638e-07    0.0352646 
         -50      7.27816  1.51263e-06 -8.22909e-07    0.0352639 
         -50      7.36106  1.48352e-06 -8.19134e-07    0.0352633 
         -50      7.44451  1.45368e-06 -8.15015e-07    0.0352626 
         -50      7.52842  1.42326e-06 -8.10522e-07    0.0352619 
         -50      7.61273  1.39246e-06  -8.0561e-07    0.0352612 
         -50      7.69758   1.3615e-06 -8.00187e-07    0.0352605 
         -50      7.78283  1.33075e-06 -7.94123e-07    0.0352598 
         -50      7.86862  1.30058e-06 -7.87184e-07    0.0352591 
         -50      7.95481  1.27154e-06 -7.79033e-07    0.0352583 
         -50      8.04155  1.24424e-06 -7.69145e-07    0.0352576 
         -50      8.12868  1.21387e-06 -7.62215e-07    0.0352568 
         -50      8.21635  1.18293e-06  -7.5549e-07     0.035256 
         -50      8.30449  1.15275e-06 -7.47877e-07    0.0352552 
         -50      8.39303  1.12328e-06 -7.39607e-07    0.0352544 
         -50      8.48211  1.09439e-06 -7.30826e-07    0.0352536 
         -50      8.57159  1.06605e-06 -7.21653e-07    0.0352528 
         -50      8.66161  1.03811e-06 -7.12133e-07    0.0352519 
         -50      8.75203  1.01052e-06 -7.02315e-07    0.0352511 
         -50      8.84299  9.83129e-07 -6.92216e-07    0.0352502 
         -50      8.93443  9.55876e-07 -6.81908e-07    0.0352493 
         -50      9.02626  9.28715e-07 -6.71534e-07    0.0352484 
         -50      9.11863  9.01567e-07 -6.61335e-07    0.0352475 
         -50      9.21139  8.74494e-07 -6.51765e-07    0.0352466 
         -50      9.30471  8.47538e-07 -6.43496e-07    0.0352456 
         -50      9.39841  8.21224e-07 -6.34084e-07    0.0352447 
         -50      9.49267  7.96309e-07 -6.23261e-07    0.0352437 
         -50      9.58739  7.72414e-07 -6.13605e-07    0.0352427 
         -50      9.68251  7.49231e-07 -6.04667e-07    0.0352418 
         -50      9.77817  7.26468e-07 -5.96077e-07    0.0352407 
         -50      9.87422  7.03969e-07 -5.87581e-07    0.0352397 
         -50      9.97083  6.81561e-07 -5.78979e-07    0.0352387 
         -50      10.0678  6.59193e-07 -5.70167e-07    0.0352376 
         -50      10.1654  6.36785e-07  -5.6107e-07    0.0352366 
         -50      10.2633  6.14363e-07 -5.51693e-07    0.0352355 
         -50      10.3618  5.91912e-07 -5.42051e-07    0.0352344 
         -50      10.4607  5.69492e-07 -5.32208e-07    0.0352333 
         -50      10.5601   5.4718e-07 -5.22254e-07    0.0352322 
         -50        10.66   5.2501e-07 -5.12263e-07     0.035231 
         -50      10.7603  5.03092e-07 -5.02347e-07    0.0352299 
         -50      10.8611  4.81468e-07 -4.92582e-07    0.0352287 
         -50      10.9623  4.60243e-07 -4.83065e-07    0.0352275 
         -50      11.0641   4.3945e-07 -4.73848e-07    0.0352263 
         -50      11.1663  4.19158e-07 -4.64981e-07    0.0352251 
         -50       11.269  3.99427e-07 -4.56493e-07    0.0352238 
         -50      11.3721  3.80252e-07 -4.48361e-07    0.0352226 
         -50      11.4757  3.61681e-07 -4.40563e-07    0.0352213 
         -50      11.5798  3.43685e-07 -4.33021e-07      0.03522 
         -50      11.6844  3.26284e-07 -4.25658e-07    0.0352187 
         -50      11.7894  3.09435e-07 -4.18347e-07    0.0352174 
         -50       11.895  2.93135e-07 -4.10964e-07    0.0352161 
         -50      12.0009  2.77381e-07 -4.03375e-07    0.0352147 
         -50      12.1073  2.62146e-07 -3.95429e-07    0.0352134 
         -50      12.2142  2.47475e-07  -3.8701e-07     0.035212 
         -50      12.3216  2.33399e-07  -3.7801e-07    0.0352106 
         -50      12.4294  2.20041e-07 -3.68388e-07    0.0352092 
         -50      12.5378  2.07546e-07 -3.58146e-07    0.0352077 
         -50      12.6465  1.93657e-07 -3.49484e-07    0.0352063 
         -50      12.7558  1.77145e-07 -3.44799e-07    0.0352048 
         -50      12.8656  1.67784e-07 -3.40782e-07    0.0352033 
         -50      12.9757  1.56025e-07 -3.36303e-07    0.0352018 
         -50      13.0864  1.39047e-07 -3.27255e-07    0.0352003 
         -50      13.1975   1.2317e-07 -3.18405e-07    0.0351987 
         -50      13.3092  1.08443e-07 -3.09764e-07    0.0351972 
         -50      13.4212  9.49026e-08 -3.01369e-07    0.0351956 
         -50      13.5338  8.24848e-08 -2.93222e-07     0.035194 
         -50      13.6468  7.11187e-08  -2.8534e-07    0.0351924 
         -50      13.7603  6.06996e-08 -2.77735e-07    0.0351908 
         -50      13.8743  5.10779e-08 -2.70391e-07    0.0351891 
         -50      13.9886   4.2126e-08 -2.63312e-07    0.0351874 
         -50      14.1036  3.36851e-08 -2.56471e-07    0.0351858 
         -50      14.2189  2.56309e-08 -2.49857e-07    0.0351841 
         -50      14.3348   1.7826e-08 -2.43433e-07    0.0351823 
         -50       14.451  1.01784e-08 -2.37176e-07    0.0351806 
         -50      14.5678  2.59535e-09  -2.3104e-07    0.0351788 
         -50      14.6851 -4.96985e-09 -2.24991e-07     0.035177 
         -50      14.8028 -1.25342e-08 -2.18992e-07    0.0351752 
         -50       14.921 -2.01028e-08 -2.12992e-07    0.0351734 
         -50      15.0396 -2.76281e-08 -2.06964e-07    0.0351716 
         -50      15.1588 -3.50612e-08 -2.00863e-07    0.0351697 
         -50      15.2783 -4.23092e-08 -1.94675e-07    0.0351679 
         -50      15.3984 -4.92902e-08 -1.88372e-07     0.035166 
         -50       15.519 -5.59016e-08  -1.8196e-07     0.035164 
         -50        15.64 -6.20518e-08 -1.75461e-07    0.0351621 
         -50      15.7615 -6.76881e-08 -1.68903e-07    0.0351602 
         -50      15.8834 -7.27816e-08 -1.62365e-07    0.0351582 
         -50      16.0058 -7.73836e-08 -1.55935e-07    0.0351562 
         -50      16.1286 -8.16175e-08 -1.49765e-07    0.0351542 
         -50       16.252 -8.57359e-08 -1.44026e-07    0.0351521 
         -50      16.3759  -9.0128e-08 -1.38962e-07    0.0351501 
         -50      16.5002 -9.53632e-08 -1.34871e-07     0.035148 
         -50       16.625 -1.02245e-07 -1.32112e-07    0.0351459 
         -50      16.7501 -1.06094e-07 -1.26159e-07    0.0351438 
         -50      16.8759 -1.05389e-07 -1.16886e-07    0.0351417 
         -50       17.002 -1.06158e-07 -1.09838e-07    0.0351395 
         -50      17.1287 -1.07985e-07 -1.04357e-07    0.0351373 
         -50      17.2557 -1.10525e-07 -9.99174e-08    0.0351351 
         -50      17.3834 -1.13509e-07 -9.60889e-08    0.0351329 
         -50      17.5115 -1.16723e-07 -9.25464e-08    0.0351307 
         -50      17.6399 -1.20002e-07 -8.90506e-08    0.0351284 
         -50       17.769 -1.23236e-07 -8.54303e-08    0.0351262 
         -50      17.8984 -1.26341e-07 -8.15923e-08    0.0351239 
         -50      18.0284 -1.29272e-07  -7.7488e-08    0.0351215 
         -50      18.1587 -1.31998e-07 -7.31282e-08    0.0351192 
         -50      18.2896 -1.34512e-07 -6.85479e-08    0.0351168 
         -50       18.421 -1.36815e-07 -6.38205e-08    0.0351144 
         -50      18.5528 -1.38913e-07 -5.90395e-08     0.035112 
         -50      18.6851 -1.40817e-07 -5.42979e-08    0.0351096 
         -50      18.8178 -1.42531e-07  -4.9707e-08    0.0351072 
         -50      18.9511 -1.44061e-07 -4.53585e-08    0.0351047 
         -50      19.0847 -1.45398e-07  -4.1347e-08    0.0351022 
         -50      19.2189 -1.46533e-07 -3.77359e-08    0.0350997 
         -50      19.3535  -1.4744e-07 -3.45774e-08    0.0350972 
         -50      19.4886 -1.48094e-07 -3.18843e-08    0.0350946 
         -50      19.6242  -1.4846e-07 -2.96445e-08    0.0350921 
         -50      19.7602 -1.48502e-07 -2.78087e-08    0.0350895 
         -50      19.8968 -1.48188e-07 -2.62852e-08    0.0350869 
         -50      20.0337 -1.47495e-07 -2.49481e-08    0.0350842 
         -50      20.1712 -1.46416e-07 -2.36273e-08    0.0350816 
         -50      20.3091 -1.46156e-07 -2.12954e-08    0.0350789 
         -50      20.4475 -1.48816e-07 -1.65206e-08    0.0350762 
         -50      20.5864 -1.49946e-07 -1.25848e-08    0.0350735 
         -50      20.7257 -1.49473e-07 -9.63685e-09    0.0350707 
         -50      20.8655 -1.47188e-07 -7.86714e-09    0.0350679 
         -50      21.0058 -1.42721e-07 -7.53932e-09    0.0350652 
         -50      21.1465 -1.35471e-07 -9.00026e-09    0.0350623 
         -50      21.2877  -1.3511e-07 -5.04657e-09    0.0350595 
         -50      21.4294 -1.43987e-07  2.23588e-09    0.0350567 
         -50      21.5716 -1.47762e-07   5.2605e-09    0.0350538 
         -50      21.7142 -1.46551e-07  7.43157e-09    0.0350509 
         -50      21.8573 -1.41281e-07  1.07741e-08     0.035048 
         -50      22.0008 -1.36671e-07   1.5466e-08     0.035045 
         -50      22.1449 -1.38404e-07  1.92767e-08    0.0350421 
         -50      22.2893 -1.39897e-07   2.2819e-08    0.0350391 
         -50      22.4344  -1.4099e-07  2.59799e-08    0.0350361 
         -50      22.5797 -1.41548e-07  2.86864e-08    0.0350331 
         -50      22.7257 -1.41482e-07  3.09194e-08      0.03503 
         -50      22.8721 -1.40747e-07  3.26911e-08     0.035027 
         -50      23.0189 -1.39346e-07  3.40471e-08    0.0350239 
         -50      23.1663 -1.37327e-07  3.50613e-08    0.0350208 
         -50       23.314 -1.34788e-07  3.58222e-08    0.0350176 
         -50      23.4623 -1.31859e-07  3.64334e-08    0.0350145 
         -50       23.611 -1.28714e-07  3.70014e-08    0.0350113 
         -50      23.7602 -1.25538e-07  3.76331e-08    0.0350081 
         -50        23.91 -1.22532e-07  3.84255e-08    0.0350049 
         -50        24.06 -1.19888e-07  3.94597e-08    0.0350016 
         -50      24.2107 -1.17765e-07  4.07972e-08    0.0349984 
         -50      24.3617 -1.16273e-07   4.2466e-08    0.0349951 
         -50      24.5133 -1.15441e-07  4.44627e-08    0.0349918 
         -50      24.6653 -1.15184e-07  4.67348e-08    0.0349885 
         -50      24.8178 -1.15271e-07   4.9186e-08    0.0349851 
         -50      24.9708 -1.15279e-07  5.16574e-08    0.0349817 
         -50      25.1242 -1.14553e-07  5.39259e-08    0.0349783 
         -50      25.2781 -1.12151e-07  5.57028e-08    0.0349749 
         -50      25.4324 -1.06797e-07  5.66152e-08    0.0349715 
         -50      25.5873 -1.05088e-07  5.94114e-08     0.034968 
         -50      25.7426 -1.06296e-07  6.12188e-08    0.0349646 
         -50      25.8984 -1.07923e-07  6.25432e-08    0.0349611 
         -50      26.0546  -1.0851e-07  6.38832e-08    0.0349576 
         -50      26.2114 -1.07306e-07  6.54352e-08     0.034954 
         -50      26.3686 -1.04232e-07  6.71205e-08    0.0349504 
         -50      26.5262 -9.97933e-08  6.86603e-08    0.0349469 
         -50      26.6844 -9.49106e-08  6.96913e-08    0.0349433 
         -50      26.8429 -9.07264e-08  6.99098e-08    0.0349396 
         -50       27.002 -8.82919e-08  6.92734e-08     0.034936 
         -50      27.1615 -8.82309e-08  6.82407e-08    0.0349323 
         -50      27.3216 -9.02919e-08  6.80595e-08    0.0349286 
         -50      27.4821 -9.28366e-08   7.1114e-08    0.0349249 
         -50       27.643 -9.46734e-08  7.21439e-08    0.0349212 
         -50      27.8044 -9.52504e-08  7.06704e-08    0.0349174 
         -50      27.9663 -9.42714e-08  7.01743e-08    0.0349137 
         -50      28.1287 -9.21962e-08  7.04024e-08    0.0349099 
         -50      28.2914  -8.9411e-08  7.11428e-08    0.0349061 
         -50      28.4548 -8.62238e-08   7.2222e-08    0.0349022 
         -50      28.6185 -8.28873e-08  7.34972e-08    0.0348984 
         -50      28.7828 -7.95863e-08  7.48596e-08    0.0348945 
         -50      28.9475 -7.64625e-08  7.62237e-08    0.0348906 
         -50      29.1126 -7.36118e-08  7.75277e-08    0.0348867 
         -50      29.2784 -7.10848e-08  7.87328e-08    0.0348828 
         -50      29.4444 -6.89075e-08  7.98137e-08    0.0348788 
         -50       29.611 -6.70712e-08  8.07625e-08    0.0348748 
         -50       29.778 -6.55521e-08  8.15795e-08    0.0348708 
         -50      29.9456 -6.43043e-08  8.22766e-08    0.0348668 
         -50      30.1137 -6.32739e-08  8.28698e-08    0.0348628 
         -50      30.2821 -6.23993e-08  8.33792e-08    0.0348587 
         -50      30.4511  -6.1614e-08  8.38279e-08    0.0348547 
         -50      30.6204 -6.08549e-08  8.42374e-08    0.0348506 
         -50      30.7903  -6.0061e-08  8.46286e-08    0.0348465 
         -50      30.9606 -5.91809e-08  8.50181e-08    0.0348423 
         -50      31.1315 -5.81703e-08  8.54193e-08    0.0348382 
         -50      31.3028 -5.69988e-08  8.58396e-08     0.034834 
         -50      31.4745 -5.56494e-08  8.62804e-08    0.0348298 
         -50      31.6468 -5.41161e-08  8.67385e-08    0.0348256 
         -50      31.8194 -5.24117e-08  8.72029e-08    0.0348214 
         -50      31.9926 -5.05578e-08  8.76592e-08    0.0348171 
         -50      32.1662 -4.85943e-08  8.80866e-08    0.0348129 
         -50      32.3404 -4.65663e-08  8.84626e-08    0.0348086 
         -50      32.5149 -4.45335e-08  8.87617e-08    0.0348043 
         -50        32.69 -4.25545e-08  8.89599e-08    0.0347999 
         -50      32.8655 -4.06933e-08  8.90356e-08    0.0347956 
         -50      33.0414 -3.90097e-08  8.89737e-08    0.0347912 
         -50       33.218 -3.75493e-08  8.87686e-08    0.0347869 
         -50      33.3948 -3.63452e-08   8.8429e-08    0.0347825 
         -50      33.5723 -3.54013e-08  8.79814e-08    0.0347781 
         -50        33.75 -3.46906e-08  8.74771e-08    0.0347736 
         -50      33.9284  -3.4139e-08  8.69959e-08    0.0347692 
         -50      34.1073 -3.36182e-08  8.66551e-08    0.0347647 
         -50      34.2865 -3.29315e-08  8.66149e-08    0.0347602 
         -50      34.4663 -3.17984e-08  8.70872e-08    0.0347557 
         -50      34.6465 -2.98443e-08  8.83426e-08    0.0347512 
         -50      34.8272 -2.65752e-08  9.07244e-08    0.0347467 
         -50      35.0083 -2.29597e-08  9.20242e-08    0.0347421 
         -50        35.19 -1.84867e-08  9.29035e-08    0.0347375 
         -50      35.3721 -1.19041e-08  9.47885e-08    0.0347329 
         -50      35.5546 -7.90785e-09   9.6569e-08    0.0347283 
         -50      35.7377 -2.39468e-08  9.51305e-08    0.0347237 
         -50      35.9211 -3.30077e-08  9.33925e-08    0.0347191 
         -50      36.1052 -3.65763e-08  9.16847e-08    0.0347144 
         -50      36.2895 -3.59498e-08  9.02819e-08    0.0347098 
         -50      36.4745 -3.22742e-08  8.93985e-08    0.0347051 
         -50      36.6598 -2.65525e-08  8.92015e-08    0.0347004 
         -50      36.8457 -1.95763e-08  8.99201e-08    0.0346956 
         -50      37.0321 -1.15847e-08   9.2858e-08    0.0346909 
         -50      37.2188 -4.46682e-09  9.55504e-08    0.0346862 
         -50      37.4062  1.51885e-09  9.79154e-08    0.0346814 
         -50      37.5938  6.21279e-09  9.98966e-08    0.0346766 
         -50      37.7821  9.57374e-09  1.01473e-07    0.0346718 
         -50      37.9707  1.16319e-08  1.02643e-07     0.034667 
         -50      38.1599  1.24943e-08  1.03427e-07    0.0346622 
         -50      38.3496  1.23146e-08   1.0386e-07    0.0346573 
         -50      38.5396  1.12878e-08  1.03986e-07    0.0346525 
         -50      38.7302  9.62966e-09   1.0386e-07    0.0346476 
         -50      38.9211  7.57127e-09  1.03539e-07    0.0346427 
         -50      39.1127  5.33748e-09  1.03079e-07    0.0346378 
         -50      39.3046  3.14881e-09  1.02537e-07    0.0346329 
         -50      39.4971  1.19875e-09  1.01963e-07     0.034628 
         -50      39.6899 -3.40875e-10  1.01402e-07     0.034623 
         -50      39.8833 -1.33825e-09  1.00888e-07    0.0346181 
         -50      40.0772 -1.69727e-09  1.00447e-07    0.0346131 
         -50      40.2714 -1.36696e-09  1.00094e-07    0.0346081 
         -50      40.4663 -3.40227e-10  9.98313e-08    0.0346031 
         -50      40.6615  1.34287e-09  9.96519e-08    0.0345981 
         -50      40.8573  3.60331e-09  9.95367e-08    0.0345931 
         -50      41.0534  6.31628e-09  9.94578e-08     0.034588 
         -50      41.2501  9.33087e-09  9.93791e-08     0.034583 
         -50      41.4473  1.24636e-08  9.92588e-08    0.0345779 
         -50      41.6448  1.55144e-08  9.90526e-08    0.0345728 
         -50      41.8429  1.82868e-08  9.87164e-08    0.0345677 
         -50      42.0414  2.05862e-08  9.82116e-08    0.0345626 
         -50      42.2405  2.22538e-08  9.75084e-08    0.0345575 
         -50      42.4399  2.31728e-08   9.6594e-08    0.0345524 
         -50      42.6399  2.33008e-08   9.5475e-08    0.0345473 
         -50      42.8404  2.26891e-08   9.4189e-08    0.0345421 
         -50      43.0412  2.15158e-08  9.28109e-08     0.034537 
         -50      43.2426  2.01115e-08  9.14583e-08    0.0345318 
         -50      43.4444  1.90015e-08  9.03085e-08    0.0345266 
         -50      43.6467   1.8936e-08   8.9601e-08    0.0345214 
         -50      43.8494  2.09363e-08  8.96562e-08    0.0345162 
         -50      44.0527  2.63431e-08  9.08843e-08     0.034511 
         -50      44.2563  3.67247e-08  9.36556e-08    0.0345058 
         -50      44.4606  4.30469e-08  9.15219e-08    0.0345005 
         -50      44.6653  4.61227e-08  8.98737e-08    0.0344953 
         -50      44.8704  4.64664e-08  8.86437e-08      0.03449 
         -50       45.076  4.46298e-08  8.77565e-08    0.0344847 
         -50       45.282   4.1198e-08  8.71413e-08    0.0344795 
         -50      45.4886  3.67723e-08  8.67317e-08    0.0344742 
         -50      45.6955  3.19843e-08  8.64759e-08    0.0344689 
         -50       45.903  2.74626e-08  8.63412e-08    0.0344636 
         -50      46.1111  2.38539e-08  8.63223e-08    0.0344583 
         -50      46.3194   2.1802e-08  8.64484e-08    0.0344529 
         -50      46.5283  2.19411e-08  8.67909e-08    0.0344476 
         -50      46.7376  2.48981e-08  8.74713e-08    0.0344422 
         -50      46.9475  3.12913e-08   8.8672e-08    0.0344369 
         -50      47.1577  4.17053e-08  9.06403e-08    0.0344315 
         -50      47.3685  4.67771e-08  8.99685e-08    0.0344262 
         -50      47.5798  3.87068e-08  8.45559e-08    0.0344208 
         -50      47.7914  3.32159e-08  8.06352e-08    0.0344154 
         -50      48.0037  2.97679e-08  7.79748e-08      0.03441 