Variables = x, y, u, v, p

Zone, I=20800, F=POINT
         -50            0            0            0    0.0374517 
         -50     0.000234  2.59539e-08  1.07043e-10    0.0374517 
         -50     0.000939   1.0207e-07  4.57717e-10    0.0374517 
         -50     0.002113  2.22282e-07  1.13498e-09    0.0374517 
         -50     0.003759  3.78315e-07  2.27896e-09    0.0374517 
         -50     0.005872  5.59901e-07  4.07592e-09    0.0374517 
         -50     0.008457  7.57964e-07  6.76866e-09    0.0374517 
         -50      0.01151  9.64142e-07  1.06374e-08    0.0374517 
         -50     0.015036  1.17265e-06  1.60158e-08    0.0374517 
         -50     0.019031  1.37871e-06  2.32646e-08    0.0374517 
         -50     0.023493  1.57822e-06  3.27795e-08    0.0374517 
         -50     0.028429  1.76639e-06  4.50069e-08    0.0374517 
         -50     0.033831  1.93562e-06  6.03804e-08    0.0374517 
         -50     0.039706  2.07641e-06  7.93845e-08    0.0374517 
         -50     0.046047  2.17806e-06  1.02459e-07    0.0374517 
         -50     0.052863  2.23255e-06  1.30083e-07    0.0374517 
         -50      0.06015   2.2378e-06  1.62658e-07    0.0374517 
         -50       0.0679  2.19887e-06  2.00524e-07    0.0374517 
         -50     0.076126  2.11831e-06  2.44111e-07    0.0374517 
         -50     0.084816   1.9735e-06  2.93766e-07    0.0374517 
         -50     0.093982  1.78886e-06  3.49312e-07    0.0374517 
         -50     0.103611  1.55624e-06  4.10657e-07    0.0374517 
         -50     0.113718  1.27955e-06  4.77937e-07    0.0374517 
         -50     0.124286  9.64139e-07  5.50619e-07    0.0374517 
         -50     0.135333  6.14764e-07  6.27921e-07    0.0374517 
         -50      0.14685  2.37154e-07  7.08415e-07    0.0374517 
         -50     0.158827 -1.62833e-07  7.90282e-07    0.0374517 
         -50     0.171284 -5.80414e-07  8.71672e-07    0.0374517 
         -50     0.184201 -1.00962e-06  9.50424e-07    0.0374517 
         -50     0.197599 -1.44607e-06  1.02484e-06    0.0374517 
         -50     0.211455 -1.88435e-06  1.09344e-06    0.0374517 
         -50     0.225792 -2.32128e-06  1.15572e-06    0.0374517 
         -50       0.2406 -2.75405e-06   1.2119e-06    0.0374517 
         -50     0.255865 -3.18298e-06  1.27255e-06    0.0374517 
         -50     0.271613 -3.60161e-06  1.33092e-06    0.0374517 
         -50     0.287818 -4.00564e-06  1.38711e-06    0.0374517 
         -50     0.304506  -4.3958e-06  1.46173e-06    0.0374517 
         -50      0.32165 -4.76981e-06  1.56704e-06    0.0374516 
         -50     0.339278 -5.12496e-06    1.708e-06    0.0374516 
         -50     0.357377 -5.45617e-06  1.88276e-06    0.0374516 
         -50      0.37593 -5.75727e-06  2.08439e-06    0.0374516 
         -50     0.394968 -6.02215e-06  2.30353e-06    0.0374516 
         -50     0.414461 -6.24359e-06  2.52956e-06    0.0374516 
         -50      0.43444 -6.41556e-06   2.7543e-06    0.0374516 
         -50     0.454872 -6.53233e-06  2.97274e-06    0.0374516 
         -50     0.475791 -6.59021e-06  3.18586e-06    0.0374515 
         -50     0.497163 -6.58708e-06  3.39938e-06    0.0374515 
         -50     0.519021 -6.52304e-06  3.62335e-06    0.0374515 
         -50      0.54135     -6.4e-06  3.86641e-06    0.0374515 
         -50     0.564131 -6.22121e-06  4.12772e-06    0.0374515 
         -50       0.5874 -5.98911e-06  4.38412e-06    0.0374515 
         -50     0.611121  -5.6978e-06  4.54992e-06    0.0374514 
         -50      0.63533 -5.27568e-06  4.49912e-06    0.0374514 
         -50      0.65999 -4.78348e-06   4.5159e-06    0.0374514 
         -50     0.685139 -4.23046e-06  4.59626e-06    0.0374514 
         -50     0.710759 -3.62729e-06  4.73486e-06    0.0374514 
         -50     0.736828 -2.98514e-06    4.925e-06    0.0374514 
         -50     0.763387 -2.31368e-06  5.15939e-06    0.0374514 
         -50     0.790396 -1.62462e-06  5.42936e-06    0.0374514 
         -50     0.817896 -9.27438e-07  5.72641e-06    0.0374513 
         -50     0.845843 -2.33495e-07  6.04093e-06    0.0374513 
         -50     0.874283  4.48531e-07  6.36434e-06    0.0374513 
         -50      0.90317   1.1083e-06  6.68742e-06    0.0374512 
         -50     0.932551  1.73835e-06  7.00275e-06    0.0374512 
         -50     0.962401  2.33042e-06  7.30314e-06    0.0374512 
         -50     0.992697  2.87741e-06  7.58291e-06    0.0374511 
         -50      1.02349  3.37462e-06  7.83872e-06    0.0374511 
         -50      1.05472  3.81684e-06  8.06829e-06    0.0374511 
         -50      1.08645  4.20175e-06   8.2722e-06     0.037451 
         -50      1.11863  4.52702e-06  8.45248e-06     0.037451 
         -50       1.1513  4.79291e-06   8.6138e-06     0.037451 
         -50      1.18444  5.00032e-06  8.76217e-06     0.037451 
         -50      1.21802  5.15174e-06  8.90491e-06    0.0374509 
         -50      1.25211  5.25139e-06  9.05023e-06    0.0374509 
         -50      1.28663  5.30431e-06  9.20529e-06    0.0374509 
         -50      1.32165  5.31687e-06  9.37579e-06    0.0374508 
         -50      1.35712  5.29618e-06  9.56296e-06    0.0374508 
         -50      1.39308  5.24988e-06  9.76232e-06    0.0374508 
         -50      1.42951  5.18579e-06  9.95961e-06    0.0374507 
         -50      1.46638  5.11148e-06  1.01275e-05    0.0374507 
         -50      1.50375  5.03337e-06  1.02217e-05    0.0374506 
         -50      1.54156  4.96659e-06  1.02855e-05    0.0374506 
         -50      1.57987   4.8965e-06  1.03505e-05    0.0374506 
         -50      1.61863  4.82237e-06  1.04128e-05    0.0374505 
         -50      1.65788  4.74426e-06   1.0471e-05    0.0374505 
         -50      1.69757  4.66248e-06  1.05237e-05    0.0374504 
         -50      1.73776  4.57709e-06    1.057e-05    0.0374504 
         -50      1.77842  4.48837e-06  1.06087e-05    0.0374503 
         -50      1.81952  4.39663e-06  1.06391e-05    0.0374503 
         -50      1.86113  4.30195e-06  1.06606e-05    0.0374502 
         -50      1.90316  4.20472e-06  1.06727e-05    0.0374502 
         -50      1.94571  4.10505e-06   1.0675e-05    0.0374501 
         -50      1.98869  4.00337e-06  1.06673e-05      0.03745 
         -50      2.03217  3.89977e-06  1.06496e-05      0.03745 
         -50      2.07612  3.79462e-06  1.06219e-05    0.0374499 
         -50      2.12051  3.68829e-06  1.05845e-05    0.0374498 
         -50       2.1654   3.5809e-06  1.05377e-05    0.0374498 
         -50      2.21073  3.47292e-06   1.0482e-05    0.0374497 
         -50      2.25656  3.36447e-06  1.04178e-05    0.0374496 
         -50      2.30283  3.25602e-06  1.03457e-05    0.0374495 
         -50       2.3496   3.1477e-06  1.02665e-05    0.0374494 
         -50      2.39685  3.03988e-06  1.01807e-05    0.0374493 
         -50      2.44452  2.93294e-06  1.00892e-05    0.0374492 
         -50      2.49271    2.827e-06   9.9927e-06    0.0374491 
         -50      2.54132   2.7225e-06  9.89195e-06     0.037449 
         -50      2.59044  2.61954e-06  9.78755e-06    0.0374489 
         -50         2.64  2.51854e-06  9.68034e-06    0.0374488 
         -50      2.69006  2.41957e-06  9.57077e-06    0.0374487 
         -50      2.74056  2.32302e-06  9.45954e-06    0.0374485 
         -50      2.79156  2.22893e-06  9.34695e-06    0.0374484 
         -50      2.84304  2.13757e-06  9.23345e-06    0.0374483 
         -50      2.89494  2.04915e-06  9.11941e-06    0.0374481 
         -50      2.94735  1.96365e-06  9.00481e-06     0.037448 
         -50       3.0002  1.88131e-06  8.88992e-06    0.0374478 
         -50      3.05355  1.80205e-06  8.77453e-06    0.0374477 
         -50      3.10733  1.72601e-06  8.65874e-06    0.0374475 
         -50      3.16163  1.65304e-06  8.54222e-06    0.0374473 
         -50      3.21639  1.58315e-06  8.42489e-06    0.0374471 
         -50      3.27158  1.51624e-06  8.30668e-06     0.037447 
         -50      3.32729  1.45204e-06  8.18733e-06    0.0374468 
         -50      3.38342  1.39042e-06  8.06706e-06    0.0374466 
         -50      3.44007  1.33096e-06  7.94594e-06    0.0374464 
         -50      3.49714  1.27339e-06  7.82469e-06    0.0374462 
         -50      3.55472  1.21718e-06  7.70408e-06    0.0374459 
         -50      3.61273  1.16189e-06  7.58577e-06    0.0374457 
         -50      3.67125  1.10681e-06  7.47174e-06    0.0374455 
         -50      3.73025   1.0513e-06  7.36508e-06    0.0374453 
         -50      3.78967  9.93218e-07  7.25687e-06     0.037445 
         -50      3.84961  9.40498e-07  7.14471e-06    0.0374448 
         -50      3.90996  8.93372e-07  7.03267e-06    0.0374445 
         -50      3.97084  8.56222e-07  6.92134e-06    0.0374442 
         -50      4.03214  8.19398e-07  6.81169e-06     0.037444 
         -50      4.09395  7.81526e-07  6.70343e-06    0.0374437 
         -50      4.15624  7.42725e-07  6.59658e-06    0.0374434 
         -50      4.21895  7.03274e-07  6.49111e-06    0.0374431 
         -50      4.28217  6.63474e-07  6.38678e-06    0.0374428 
         -50      4.34582  6.23813e-07  6.28367e-06    0.0374425 
         -50      4.40998  5.84676e-07  6.18154e-06    0.0374422 
         -50      4.47457  5.46552e-07   6.0805e-06    0.0374418 
         -50      4.53968   5.0975e-07  5.98035e-06    0.0374415 
         -50      4.60525  4.74582e-07  5.88116e-06    0.0374412 
         -50      4.67125  4.41245e-07    5.783e-06    0.0374408 
         -50      4.73777  4.09727e-07  5.68577e-06    0.0374404 
         -50       4.8047  3.79988e-07  5.58965e-06    0.0374401 
         -50      4.87216  3.51759e-07  5.49458e-06    0.0374397 
         -50      4.94003  3.24758e-07  5.40077e-06    0.0374393 
         -50      5.00843  2.98534e-07  5.30815e-06    0.0374389 
         -50      5.07724  2.72701e-07  5.21693e-06    0.0374385 
         -50      5.14658  2.46828e-07  5.12702e-06    0.0374381 
         -50      5.21639  2.20681e-07  5.03846e-06    0.0374377 
         -50      5.28661  1.94274e-07  4.95126e-06    0.0374373 
         -50      5.35736  1.67945e-07  4.86509e-06    0.0374368 
         -50      5.42852  1.42669e-07   4.7798e-06    0.0374364 
         -50      5.50021  1.20095e-07  4.69478e-06    0.0374359 
         -50      5.57231  1.02933e-07  4.60948e-06    0.0374354 
         -50      5.64493  9.50868e-08  4.52283e-06     0.037435 
         -50      5.71803  6.19333e-08  4.44626e-06    0.0374345 
         -50      5.79154  3.62246e-08  4.36816e-06     0.037434 
         -50      5.86558  1.64534e-08  4.28942e-06    0.0374335 
         -50      5.94003  1.01338e-09  4.21096e-06    0.0374329 
         -50      6.01501 -1.18102e-08  4.13328e-06    0.0374324 
         -50       6.0904 -2.36112e-08   4.0569e-06    0.0374319 
         -50      6.16632 -3.58287e-08  3.98195e-06    0.0374313 
         -50      6.24271 -4.95561e-08  3.90854e-06    0.0374308 
         -50       6.3195 -6.54451e-08  3.83668e-06    0.0374302 
         -50      6.39683 -8.36371e-08  3.76608e-06    0.0374296 
         -50      6.47457 -1.03558e-07  3.69664e-06     0.037429 
         -50      6.55284 -1.23936e-07  3.62805e-06    0.0374284 
         -50      6.63152 -1.42579e-07  3.56027e-06    0.0374278 
         -50      6.71073 -1.56422e-07  3.49322e-06    0.0374272 
         -50      6.79034 -1.71265e-07  3.42651e-06    0.0374266 
         -50      6.87049 -1.85598e-07   3.3618e-06    0.0374259 
         -50      6.95111 -1.96855e-07   3.2992e-06    0.0374253 
         -50      7.03214 -2.05734e-07   3.2383e-06    0.0374246 
         -50       7.1137 -2.12854e-07  3.17854e-06    0.0374239 
         -50      7.19566 -2.18704e-07  3.11966e-06    0.0374232 
         -50      7.27816 -2.23699e-07  3.06125e-06    0.0374225 
         -50      7.36106 -2.28145e-07   3.0032e-06    0.0374218 
         -50      7.44451 -2.32289e-07   2.9453e-06    0.0374211 
         -50      7.52842 -2.36313e-07  2.88761e-06    0.0374203 
         -50      7.61273 -2.40375e-07  2.83033e-06    0.0374196 
         -50      7.69758 -2.44649e-07  2.77367e-06    0.0374188 
         -50      7.78283 -2.49354e-07  2.71823e-06     0.037418 
         -50      7.86862 -2.54827e-07   2.6646e-06    0.0374172 
         -50      7.95481 -2.61561e-07  2.61378e-06    0.0374164 
         -50      8.04155 -2.70314e-07  2.56687e-06    0.0374156 
         -50      8.12868 -2.69319e-07  2.51418e-06    0.0374148 
         -50      8.21635 -2.67003e-07  2.46141e-06    0.0374139 
         -50      8.30449 -2.66762e-07  2.41094e-06    0.0374131 
         -50      8.39303 -2.68397e-07  2.36235e-06    0.0374122 
         -50      8.48211 -2.71646e-07  2.31517e-06    0.0374113 
         -50      8.57159 -2.76167e-07  2.26918e-06    0.0374104 
         -50      8.66161 -2.81547e-07  2.22407e-06    0.0374095 
         -50      8.75203 -2.87258e-07  2.17975e-06    0.0374086 
         -50      8.84299 -2.92666e-07  2.13604e-06    0.0374076 
         -50      8.93443 -2.96964e-07  2.09294e-06    0.0374067 
         -50      9.02626 -2.99146e-07  2.05044e-06    0.0374057 
         -50      9.11863 -2.97959e-07  2.00844e-06    0.0374047 
         -50      9.21139 -2.91827e-07  1.96693e-06    0.0374037 
         -50      9.30471 -2.78767e-07  1.92573e-06    0.0374027 
         -50      9.39841 -2.73701e-07  1.88598e-06    0.0374017 
         -50      9.49267 -2.80262e-07  1.84781e-06    0.0374007 
         -50      9.58739 -2.84115e-07  1.81002e-06    0.0373996 
         -50      9.68251 -2.85893e-07  1.77261e-06    0.0373985 
         -50      9.77817 -2.86158e-07   1.7355e-06    0.0373974 
         -50      9.87422 -2.85388e-07  1.69878e-06    0.0373963 
         -50      9.97083 -2.83989e-07  1.66238e-06    0.0373952 
         -50      10.0678 -2.82294e-07  1.62642e-06    0.0373941 
         -50      10.1654 -2.80558e-07  1.59087e-06     0.037393 
         -50      10.2633 -2.78974e-07  1.55584e-06    0.0373918 
         -50      10.3618 -2.77665e-07  1.52133e-06    0.0373906 
         -50      10.4607 -2.76696e-07  1.48741e-06    0.0373894 
         -50      10.5601 -2.76074e-07  1.45416e-06    0.0373882 
         -50        10.66 -2.75758e-07  1.42158e-06     0.037387 
         -50      10.7603 -2.75663e-07  1.38976e-06    0.0373857 
         -50      10.8611 -2.75669e-07   1.3587e-06    0.0373845 
         -50      10.9623 -2.75631e-07  1.32845e-06    0.0373832 
         -50      11.0641 -2.75387e-07    1.299e-06    0.0373819 
         -50      11.1663  -2.7477e-07  1.27036e-06    0.0373806 
         -50       11.269 -2.73624e-07  1.24256e-06    0.0373793 
         -50      11.3721 -2.71809e-07  1.21553e-06    0.0373779 
         -50      11.4757 -2.69228e-07  1.18928e-06    0.0373766 
         -50      11.5798 -2.65826e-07  1.16371e-06    0.0373752 
         -50      11.6844 -2.61633e-07  1.13882e-06    0.0373738 
         -50      11.7894 -2.56754e-07  1.11449e-06    0.0373724 
         -50       11.895 -2.51415e-07  1.09068e-06     0.037371 
         -50      12.0009 -2.45977e-07  1.06732e-06    0.0373695 
         -50      12.1073 -2.40949e-07  1.04428e-06    0.0373681 
         -50      12.2142 -2.37037e-07  1.02154e-06    0.0373666 
         -50      12.3216 -2.35149e-07  9.98973e-07    0.0373651 
         -50      12.4294 -2.36445e-07  9.76562e-07    0.0373636 
         -50      12.5378  -2.4236e-07   9.5423e-07     0.037362 
         -50      12.6465  -2.4208e-07  9.37286e-07    0.0373605 
         -50      12.7558  -2.1957e-07  9.33529e-07    0.0373589 
         -50      12.8656 -2.38942e-07  8.99662e-07    0.0373573 
         -50      12.9757  -2.4903e-07  8.75232e-07    0.0373557 
         -50      13.0864 -2.39351e-07  8.56963e-07    0.0373541 
         -50      13.1975 -2.32416e-07  8.39086e-07    0.0373524 
         -50      13.3092 -2.27153e-07  8.21462e-07    0.0373508 
         -50      13.4212 -2.22754e-07  8.04039e-07    0.0373491 
         -50      13.5338 -2.18614e-07  7.86735e-07    0.0373474 
         -50      13.6468 -2.14329e-07  7.69535e-07    0.0373457 
         -50      13.7603 -2.09657e-07  7.52444e-07    0.0373439 
         -50      13.8743  -2.0448e-07  7.35441e-07    0.0373422 
         -50      13.9886 -1.98809e-07  7.18576e-07    0.0373404 
         -50      14.1036  -1.9272e-07  7.01854e-07    0.0373386 
         -50      14.2189  -1.8637e-07  6.85341e-07    0.0373368 
         -50      14.3348 -1.79935e-07  6.69056e-07    0.0373349 
         -50       14.451 -1.73633e-07   6.5307e-07    0.0373331 
         -50      14.5678 -1.67658e-07  6.37403e-07    0.0373312 
         -50      14.6851 -1.62206e-07  6.22112e-07    0.0373293 
         -50      14.8028 -1.57439e-07  6.07246e-07    0.0373274 
         -50       14.921 -1.53468e-07  5.92814e-07    0.0373255 
         -50      15.0396 -1.50364e-07  5.78863e-07    0.0373235 
         -50      15.1588 -1.48133e-07  5.65385e-07    0.0373215 
         -50      15.2783 -1.46729e-07  5.52407e-07    0.0373195 
         -50      15.3984 -1.46046e-07  5.39905e-07    0.0373175 
         -50       15.519 -1.45927e-07  5.27877e-07    0.0373155 
         -50        15.64 -1.46174e-07  5.16309e-07    0.0373134 
         -50      15.7615 -1.46565e-07  5.05155e-07    0.0373113 
         -50      15.8834 -1.46868e-07  4.94398e-07    0.0373092 
         -50      16.0058 -1.46873e-07  4.83984e-07    0.0373071 
         -50      16.1286 -1.46418e-07  4.73893e-07     0.037305 
         -50       16.252 -1.45429e-07  4.64078e-07    0.0373028 
         -50      16.3759 -1.43963e-07  4.54525e-07    0.0373006 
         -50      16.5002 -1.42262e-07  4.45232e-07    0.0372984 
         -50       16.625 -1.40804e-07  4.36198e-07    0.0372962 
         -50      16.7501 -1.26068e-07  4.26936e-07    0.0372939 
         -50      16.8759 -1.06269e-07  4.17452e-07    0.0372917 
         -50       17.002 -9.82229e-08  4.08302e-07    0.0372894 
         -50      17.1287 -9.76539e-08  3.99345e-07    0.0372871 
         -50      17.2557 -1.01213e-07  3.90518e-07    0.0372847 
         -50      17.3834 -1.06361e-07  3.81769e-07    0.0372824 
         -50      17.5115  -1.1126e-07  3.73101e-07      0.03728 
         -50      17.6399 -1.14685e-07  3.64539e-07    0.0372776 
         -50       17.769 -1.15936e-07  3.56107e-07    0.0372752 
         -50      17.8984 -1.14736e-07  3.47867e-07    0.0372728 
         -50      18.0284 -1.11146e-07  3.39855e-07    0.0372703 
         -50      18.1587 -1.05492e-07  3.32135e-07    0.0372678 
         -50      18.2896 -9.82671e-08  3.24736e-07    0.0372653 
         -50       18.421 -9.00844e-08  3.17698e-07    0.0372628 
         -50      18.5528 -8.16036e-08  3.11042e-07    0.0372602 
         -50      18.6851 -7.34477e-08  3.04756e-07    0.0372576 
         -50      18.8178 -6.61992e-08   2.9883e-07     0.037255 
         -50      18.9511  -6.0308e-08  2.93213e-07    0.0372524 
         -50      19.0847 -5.61025e-08  2.87854e-07    0.0372498 
         -50      19.2189 -5.37311e-08  2.82663e-07    0.0372471 
         -50      19.3535 -5.31755e-08  2.77552e-07    0.0372444 
         -50      19.4886 -5.42356e-08  2.72403e-07    0.0372417 
         -50      19.6242 -5.65484e-08  2.67103e-07     0.037239 
         -50      19.7602 -5.96078e-08  2.61539e-07    0.0372362 
         -50      19.8968 -6.28164e-08  2.55591e-07    0.0372335 
         -50      20.0337 -6.55247e-08  2.49176e-07    0.0372307 
         -50      20.1712  -6.7121e-08  2.42221e-07    0.0372278 
         -50      20.3091 -6.48233e-08  2.35207e-07     0.037225 
         -50      20.4475 -5.47097e-08  2.29824e-07    0.0372221 
         -50      20.5864  -4.5873e-08  2.24814e-07    0.0372192 
         -50      20.7257 -3.90442e-08  2.20374e-07    0.0372163 
         -50      20.8655 -3.53869e-08  2.16875e-07    0.0372134 
         -50      21.0058 -3.66341e-08  2.14936e-07    0.0372104 
         -50      21.1465 -4.51877e-08  2.15462e-07    0.0372075 
         -50      21.2877 -6.12833e-08  2.11855e-07    0.0372045 
         -50      21.4294 -6.42723e-08  2.01813e-07    0.0372014 
         -50      21.5716 -6.20971e-08  1.94186e-07    0.0371984 
         -50      21.7142 -6.27316e-08  1.88748e-07    0.0371953 
         -50      21.8573 -6.73396e-08  1.86144e-07    0.0371922 
         -50      22.0008 -6.10347e-08  1.84146e-07    0.0371891 
         -50      22.1449 -3.45168e-08  1.76938e-07     0.037186 
         -50      22.2893 -1.59183e-08  1.70506e-07    0.0371828 
         -50      22.4344  -4.8328e-09  1.64782e-07    0.0371796 
         -50      22.5797 -4.39587e-10  1.59738e-07    0.0371764 
         -50      22.7257 -1.55883e-09  1.55333e-07    0.0371732 
         -50      22.8721 -6.80959e-09  1.51542e-07    0.0371699 
         -50      23.0189 -1.46969e-08  1.48326e-07    0.0371666 
         -50      23.1663 -2.37477e-08   1.4563e-07    0.0371633 
         -50       23.314 -3.25577e-08   1.4339e-07      0.03716 
         -50      23.4623 -3.99241e-08  1.41518e-07    0.0371567 
         -50       23.611 -4.48638e-08  1.39916e-07    0.0371533 
         -50      23.7602 -4.67114e-08  1.38471e-07    0.0371499 
         -50        23.91 -4.51298e-08  1.37063e-07    0.0371465 
         -50        24.06 -4.01598e-08  1.35577e-07     0.037143 
         -50      24.2107 -3.22063e-08  1.33906e-07    0.0371396 
         -50      24.3617 -2.20641e-08  1.31978e-07    0.0371361 
         -50      24.5133 -1.08432e-08  1.29759e-07    0.0371326 
         -50      24.6653  1.53809e-11  1.27288e-07    0.0371291 
         -50      24.8178  8.87376e-09  1.24688e-07    0.0371255 
         -50      24.9708  1.39246e-08  1.22206e-07    0.0371219 
         -50      25.1242  1.33439e-08  1.20241e-07    0.0371183 
         -50      25.2781  5.41321e-09  1.19373e-07    0.0371147 
         -50      25.4324 -1.12977e-08  1.20413e-07    0.0371111 
         -50      25.5873 -2.88338e-08   1.1283e-07    0.0371074 
         -50      25.7426 -2.81097e-08  1.05898e-07    0.0371037 
         -50      25.8984 -1.69951e-08  1.00491e-07       0.0371 
         -50      26.0546 -2.47275e-09  9.64776e-08    0.0370963 
         -50      26.2114  1.05084e-08  9.37287e-08    0.0370925 
         -50      26.3686  1.91665e-08  9.21714e-08    0.0370887 
         -50      26.5262  2.28508e-08  9.17512e-08    0.0370849 
         -50      26.6844  2.26476e-08  9.23579e-08    0.0370811 
         -50      26.8429   2.0652e-08  9.36934e-08    0.0370773 
         -50       27.002  1.89169e-08    9.508e-08    0.0370734 
         -50      27.1615  1.80404e-08  9.51979e-08    0.0370695 
         -50      27.3216  1.53511e-08  9.17645e-08    0.0370656 
         -50      27.4821  2.69941e-09  8.11343e-08    0.0370617 
         -50       27.643  4.73062e-09  7.73274e-08    0.0370577 
         -50      27.8044  1.79295e-08  7.99135e-08    0.0370537 
         -50      27.9663  2.56675e-08  8.06885e-08    0.0370497 
         -50      28.1287  2.92766e-08  8.00973e-08    0.0370457 
         -50      28.2914  2.98855e-08  7.85182e-08    0.0370417 
         -50      28.4548  2.84596e-08  7.62658e-08    0.0370376 
         -50      28.6185  2.58053e-08  7.36054e-08    0.0370335 
         -50      28.7828  2.25762e-08  7.07443e-08    0.0370294 
         -50      28.9475  1.92972e-08  6.78508e-08    0.0370253 
         -50      29.1126  1.63707e-08  6.50531e-08    0.0370211 
         -50      29.2784  1.40812e-08  6.24369e-08    0.0370169 
         -50      29.4444  1.26224e-08  6.00655e-08    0.0370128 
         -50       29.611  1.20948e-08  5.79676e-08    0.0370085 
         -50       29.778  1.25267e-08  5.61572e-08    0.0370043 
         -50      29.9456  1.38816e-08  5.46236e-08        0.037 
         -50      30.1137  1.60693e-08  5.33467e-08    0.0369958 
         -50      30.2821  1.89546e-08  5.22949e-08    0.0369915 
         -50      30.4511  2.23774e-08  5.14274e-08    0.0369871 
         -50      30.6204  2.61459e-08  5.07024e-08    0.0369828 
         -50      30.7903  3.00676e-08  5.00749e-08    0.0369784 
         -50      30.9606  3.39351e-08  4.95034e-08    0.0369741 
         -50      31.1315  3.75589e-08  4.89487e-08    0.0369696 
         -50      31.3028  4.07545e-08  4.83785e-08    0.0369652 
         -50      31.4745  4.33604e-08  4.77679e-08    0.0369608 
         -50      31.6468  4.52502e-08  4.70988e-08    0.0369563 
         -50      31.8194  4.63257e-08  4.63645e-08    0.0369518 
         -50      31.9926  4.65342e-08  4.55648e-08    0.0369473 
         -50      32.1662   4.5867e-08  4.47113e-08    0.0369428 
         -50      32.3404  4.43644e-08  4.38209e-08    0.0369383 
         -50      32.5149  4.21234e-08  4.29202e-08    0.0369337 
         -50        32.69  3.92904e-08  4.20377e-08    0.0369291 
         -50      32.8655  3.60739e-08  4.12064e-08    0.0369245 
         -50      33.0414  3.27405e-08  4.04584e-08    0.0369199 
         -50       33.218  2.96049e-08  3.98195e-08    0.0369152 
         -50      33.3948  2.70457e-08  3.93084e-08    0.0369106 
         -50      33.5723   2.5484e-08  3.89273e-08    0.0369059 
         -50        33.75  2.53931e-08  3.86599e-08    0.0369012 
         -50      33.9284  2.72849e-08  3.84612e-08    0.0368965 
         -50      34.1073  3.17057e-08  3.82518e-08    0.0368917 
         -50      34.2865   3.9218e-08   3.7909e-08     0.036887 
         -50      34.4663  5.04176e-08  3.72563e-08    0.0368822 
         -50      34.6465  6.58719e-08  3.60556e-08    0.0368774 
         -50      34.8272  8.61797e-08  3.39907e-08    0.0368726 
         -50      35.0083  8.85223e-08  3.39425e-08    0.0368678 
         -50        35.19  6.96132e-08  3.54799e-08    0.0368629 
         -50      35.3721  4.09549e-08  3.68057e-08     0.036858 
         -50      35.5546  8.23893e-09  3.76024e-08    0.0368532 
         -50      35.7377  1.96205e-08  3.47142e-08    0.0368483 
         -50      35.9211  2.91173e-08  3.30677e-08    0.0368433 
         -50      36.1052  3.68565e-08  3.25173e-08    0.0368384 
         -50      36.2895  4.29206e-08  3.29433e-08    0.0368335 
         -50      36.4745  4.73994e-08  3.42458e-08    0.0368285 
         -50      36.6598  5.03541e-08  3.63399e-08    0.0368235 
         -50      36.8457  5.16643e-08  3.87681e-08    0.0368185 
         -50      37.0321  4.93884e-08  3.44957e-08    0.0368135 
         -50      37.2188  4.74986e-08  2.99732e-08    0.0368084 
         -50      37.4062  4.58796e-08  2.54902e-08    0.0368034 
         -50      37.5938  4.44389e-08  2.12713e-08    0.0367983 
         -50      37.7821  4.30952e-08  1.74587e-08    0.0367932 
         -50      37.9707  4.17875e-08  1.41492e-08    0.0367881 
         -50      38.1599   4.0465e-08    1.138e-08     0.036783 
         -50      38.3496  3.90934e-08  9.15687e-09    0.0367779 
         -50      38.5396  3.76514e-08  7.45385e-09    0.0367727 
         -50      38.7302  3.61255e-08  6.21862e-09    0.0367675 
         -50      38.9211  3.45178e-08   5.3889e-09    0.0367623 
         -50      39.1127  3.28347e-08  4.89107e-09    0.0367571 
         -50      39.3046  3.10963e-08  4.65192e-09    0.0367519 
         -50      39.4971  2.93246e-08  4.60044e-09    0.0367467 
         -50      39.6899  2.75534e-08  4.67419e-09    0.0367415 
         -50      39.8833  2.58161e-08  4.82238e-09    0.0367362 
         -50      40.0772  2.41541e-08  5.00845e-09    0.0367309 
         -50      40.2714  2.26114e-08  5.21187e-09    0.0367256 
         -50      40.4663    2.123e-08  5.42951e-09    0.0367203 
         -50      40.6615  2.00568e-08  5.67415e-09     0.036715 
         -50      40.8573   1.9134e-08  5.97441e-09    0.0367097 
         -50      41.0534  1.85049e-08  6.37047e-09    0.0367044 
         -50      41.2501  1.82069e-08  6.91218e-09     0.036699 
         -50      41.4473  1.82748e-08  7.65191e-09    0.0366936 
         -50      41.6448  1.87362e-08  8.63816e-09    0.0366883 
         -50      41.8429  1.96126e-08  9.91065e-09    0.0366829 
         -50      42.0414  2.09152e-08  1.14848e-08    0.0366774 
         -50      42.2405  2.26487e-08  1.33487e-08     0.036672 
         -50      42.4399  2.48019e-08  1.54408e-08    0.0366666 
         -50      42.6399  2.73575e-08  1.76469e-08    0.0366611 
         -50      42.8404  3.02791e-08  1.97728e-08    0.0366557 
         -50      43.0412  3.35142e-08  2.15317e-08    0.0366502 
         -50      43.2426  3.70016e-08  2.25285e-08    0.0366447 
         -50      43.4444  4.06517e-08  2.22293e-08    0.0366392 
         -50      43.6467  4.43668e-08  1.99425e-08    0.0366337 
         -50      43.8494  4.80171e-08  1.47972e-08    0.0366282 
         -50      44.0527  5.14622e-08  5.69657e-09    0.0366227 
         -50      44.2563  5.38815e-08  -8.0553e-09    0.0366171 
         -50      44.4606  3.20418e-08  5.90938e-10    0.0366116 
         -50      44.6653  1.78984e-08   6.3716e-09     0.036606 
         -50      44.8704  1.04553e-08  9.80425e-09    0.0366004 
         -50       45.076  8.70206e-09  1.13484e-08    0.0365948 
         -50       45.282  1.16118e-08  1.13923e-08    0.0365892 
         -50      45.4886    1.809e-08   1.0267e-08    0.0365836 
         -50      45.6955   2.6923e-08  8.24723e-09     0.036578 
         -50       45.903  3.67747e-08  5.54846e-09    0.0365724 
         -50      46.1111  4.60993e-08  2.33944e-09    0.0365667 
         -50      46.3194    5.312e-08 -1.25741e-09    0.0365611 
         -50      46.5283  5.57961e-08 -5.17283e-09    0.0365554 
         -50      46.7376  5.17434e-08 -9.36593e-09    0.0365498 
         -50      46.9475  3.81895e-08  -1.3845e-08    0.0365441 
         -50      47.1577  1.19543e-08 -1.86361e-08    0.0365384 
         -50      47.3685 -4.03398e-09 -2.01513e-08    0.0365327 
         -50      47.5798  1.58086e-08  -1.5793e-08     0.036527 
         -50      47.7914  3.12615e-08 -1.17731e-08    0.0365213 
         -50      48.0037   4.2846e-08 -8.19063e-09    0.0365156 