Variables = x, y, u, v, p

Zone, I=20800, F=POINT
         -50            0            0            0   -0.0108719 
         -50     0.000234  -2.8517e-08 -9.02967e-11   -0.0108719 
         -50     0.000939 -1.12421e-07 -3.72866e-10   -0.0108719 
         -50     0.002113 -2.45836e-07 -8.79201e-10   -0.0108719 
         -50     0.003759 -4.20929e-07 -1.66675e-09   -0.0108719 
         -50     0.005872 -6.28038e-07 -2.81553e-09   -0.0108719 
         -50     0.008457 -8.59125e-07  -4.4396e-09   -0.0108719 
         -50      0.01151 -1.10709e-06 -6.67847e-09   -0.0108719 
         -50     0.015036 -1.36785e-06 -9.70886e-09   -0.0108719 
         -50     0.019031 -1.63841e-06 -1.37302e-08   -0.0108719 
         -50     0.023493 -1.91652e-06 -1.89694e-08   -0.0108719 
         -50     0.028429 -2.19923e-06 -2.56907e-08   -0.0108719 
         -50     0.033831 -2.48005e-06 -3.41649e-08   -0.0108719 
         -50     0.039706  -2.7502e-06 -4.47137e-08   -0.0108719 
         -50     0.046047 -2.99854e-06 -5.76709e-08   -0.0108719 
         -50     0.052863  -3.2161e-06 -7.34428e-08   -0.0108719 
         -50      0.06015 -3.39889e-06 -9.24454e-08   -0.0108719 
         -50       0.0679  -3.5496e-06 -1.15076e-07   -0.0108719 
         -50     0.076126 -3.66924e-06 -1.41692e-07   -0.0108719 
         -50     0.084816 -3.73347e-06 -1.72355e-07   -0.0108719 
         -50     0.093982 -3.76192e-06 -2.08199e-07   -0.0108719 
         -50     0.103611 -3.74417e-06 -2.48926e-07   -0.0108719 
         -50     0.113718 -3.68258e-06 -2.94257e-07   -0.0108719 
         -50     0.124286 -3.58008e-06 -3.43959e-07   -0.0108719 
         -50     0.135333 -3.43966e-06 -3.98045e-07   -0.0108719 
         -50      0.14685 -3.26485e-06 -4.56326e-07   -0.0108719 
         -50     0.158827 -3.05956e-06 -5.18336e-07   -0.0108719 
         -50     0.171284 -2.82757e-06 -5.83337e-07   -0.0108719 
         -50     0.184201 -2.57377e-06 -6.49919e-07   -0.0108719 
         -50     0.197599 -2.30273e-06 -7.16643e-07   -0.0108719 
         -50     0.211455 -2.02011e-06 -7.82295e-07   -0.0108719 
         -50     0.225792 -1.73025e-06 -8.47749e-07   -0.0108719 
         -50       0.2406 -1.43643e-06 -9.18107e-07   -0.0108719 
         -50     0.255865 -1.13482e-06 -9.99871e-07   -0.0108719 
         -50     0.271613 -8.41381e-07 -1.06079e-06   -0.0108719 
         -50     0.287818 -5.61286e-07 -1.13472e-06   -0.0108719 
         -50     0.304506 -2.86849e-07 -1.25168e-06   -0.0108719 
         -50      0.32165  -1.7371e-08  -1.4178e-06   -0.0108719 
         -50     0.339278  2.43252e-07 -1.61909e-06   -0.0108719 
         -50     0.357377   4.8605e-07 -1.82546e-06   -0.0108719 
         -50      0.37593  6.99158e-07 -1.99758e-06   -0.0108719 
         -50     0.394968  8.70167e-07 -2.09514e-06   -0.0108719 
         -50     0.414461  9.87014e-07 -2.08442e-06   -0.0108719 
         -50      0.43444  1.04113e-06 -1.94705e-06   -0.0108719 
         -50     0.454872  1.02862e-06 -1.68708e-06   -0.0108719 
         -50     0.475791  9.51882e-07 -1.33412e-06   -0.0108719 
         -50     0.497163  8.20002e-07 -9.44084e-07   -0.0108719 
         -50     0.519021  6.47093e-07 -5.89076e-07   -0.0108719 
         -50      0.54135  4.49429e-07 -3.41008e-07   -0.0108719 
         -50     0.564131  2.38785e-07 -2.38121e-07    -0.010872 
         -50       0.5874  1.13112e-08 -2.34448e-07    -0.010872 
         -50     0.611121 -2.47069e-07 -2.33712e-07    -0.010872 
         -50      0.63533 -3.92079e-07 -1.12686e-06    -0.010872 
         -50      0.65999 -5.98989e-07 -1.93533e-06    -0.010872 
         -50     0.685139  -8.4052e-07 -2.64818e-06    -0.010872 
         -50     0.710759 -1.09213e-06 -3.25695e-06    -0.010872 
         -50     0.736828 -1.33274e-06 -3.75776e-06   -0.0108719 
         -50     0.763387 -1.54555e-06 -4.15217e-06   -0.0108719 
         -50     0.790396 -1.71696e-06  -4.4443e-06   -0.0108719 
         -50     0.817896 -1.83783e-06 -4.64289e-06   -0.0108718 
         -50     0.845843 -1.90243e-06 -4.75903e-06   -0.0108718 
         -50     0.874283 -1.90904e-06 -4.80681e-06   -0.0108718 
         -50      0.90317  -1.8593e-06 -4.80182e-06   -0.0108718 
         -50     0.932551 -1.75786e-06 -4.76075e-06   -0.0108718 
         -50     0.962401 -1.61221e-06 -4.70041e-06   -0.0108718 
         -50     0.992697 -1.43211e-06 -4.63688e-06   -0.0108718 
         -50      1.02349  -1.2284e-06 -4.58443e-06   -0.0108718 
         -50      1.05472 -1.01346e-06 -4.55492e-06   -0.0108718 
         -50      1.08645 -7.99123e-07 -4.55671e-06   -0.0108718 
         -50      1.11863 -5.97378e-07 -4.59419e-06   -0.0108718 
         -50       1.1513 -4.18231e-07 -4.66732e-06   -0.0108718 
         -50      1.18444 -2.70204e-07 -4.77131e-06   -0.0108718 
         -50      1.21802 -1.59104e-07  -4.8968e-06   -0.0108718 
         -50      1.25211 -8.73872e-08 -5.03095e-06   -0.0108717 
         -50      1.28663 -5.44046e-08 -5.15797e-06   -0.0108717 
         -50      1.32165 -5.58641e-08 -5.26194e-06   -0.0108717 
         -50      1.35712 -8.43231e-08 -5.32888e-06   -0.0108717 
         -50      1.39308 -1.29818e-07 -5.35128e-06   -0.0108716 
         -50      1.42951 -1.80908e-07  -5.3328e-06   -0.0108716 
         -50      1.46638 -2.26457e-07 -5.29511e-06   -0.0108716 
         -50      1.50375 -2.58229e-07 -5.28587e-06   -0.0108716 
         -50      1.54156 -3.18507e-07 -5.34742e-06   -0.0108716 
         -50      1.57987 -3.64163e-07 -5.39828e-06   -0.0108715 
         -50      1.61863 -3.93939e-07 -5.43692e-06   -0.0108715 
         -50      1.65788 -4.10155e-07 -5.46456e-06   -0.0108715 
         -50      1.69757 -4.14954e-07 -5.48222e-06   -0.0108715 
         -50      1.73776 -4.10395e-07 -5.49097e-06   -0.0108714 
         -50      1.77842 -3.98399e-07 -5.49174e-06   -0.0108714 
         -50      1.81952 -3.80776e-07 -5.48542e-06   -0.0108714 
         -50      1.86113 -3.59147e-07 -5.47283e-06   -0.0108713 
         -50      1.90316 -3.35045e-07 -5.45472e-06   -0.0108713 
         -50      1.94571 -3.09775e-07 -5.43173e-06   -0.0108713 
         -50      1.98869 -2.84565e-07 -5.40448e-06   -0.0108712 
         -50      2.03217 -2.60399e-07 -5.37344e-06   -0.0108712 
         -50      2.07612 -2.38164e-07 -5.33909e-06   -0.0108712 
         -50      2.12051 -2.18576e-07 -5.30182e-06   -0.0108711 
         -50       2.1654 -2.02152e-07 -5.26188e-06   -0.0108711 
         -50      2.21073 -1.89308e-07  -5.2196e-06   -0.0108711 
         -50      2.25656 -1.80268e-07 -5.17509e-06    -0.010871 
         -50      2.30283 -1.75149e-07 -5.12858e-06    -0.010871 
         -50       2.3496 -1.73915e-07 -5.08008e-06   -0.0108709 
         -50      2.39685 -1.76422e-07 -5.02971e-06   -0.0108709 
         -50      2.44452 -1.82406e-07 -4.97754e-06   -0.0108708 
         -50      2.49271 -1.91524e-07 -4.92351e-06   -0.0108708 
         -50      2.54132 -2.03333e-07 -4.86771e-06   -0.0108707 
         -50      2.59044 -2.17356e-07 -4.81007e-06   -0.0108707 
         -50         2.64 -2.33031e-07 -4.75069e-06   -0.0108706 
         -50      2.69006 -2.49818e-07  -4.6895e-06   -0.0108706 
         -50      2.74056 -2.67117e-07 -4.62665e-06   -0.0108705 
         -50      2.79156 -2.84392e-07 -4.56212e-06   -0.0108705 
         -50      2.84304 -3.01102e-07 -4.49607e-06   -0.0108704 
         -50      2.89494 -3.16756e-07  -4.4287e-06   -0.0108704 
         -50      2.94735 -3.30973e-07  -4.3601e-06   -0.0108703 
         -50       3.0002 -3.43416e-07 -4.29061e-06   -0.0108702 
         -50      3.05355 -3.53897e-07  -4.2204e-06   -0.0108702 
         -50      3.10733 -3.62317e-07 -4.14988e-06   -0.0108701 
         -50      3.16163 -3.68742e-07 -4.07926e-06   -0.0108701 
         -50      3.21639 -3.73366e-07 -4.00896e-06     -0.01087 
         -50      3.27158 -3.76547e-07 -3.93936e-06   -0.0108699 
         -50      3.32729 -3.78807e-07 -3.87067e-06   -0.0108699 
         -50      3.38342 -3.80817e-07 -3.80324e-06   -0.0108698 
         -50      3.44007 -3.83406e-07 -3.73714e-06   -0.0108697 
         -50      3.49714 -3.87534e-07 -3.67249e-06   -0.0108696 
         -50      3.55472 -3.94288e-07 -3.60904e-06   -0.0108696 
         -50      3.61273 -4.04826e-07 -3.54648e-06   -0.0108695 
         -50      3.67125 -4.20383e-07 -3.48398e-06   -0.0108694 
         -50      3.73025 -4.42174e-07 -3.42048e-06   -0.0108693 
         -50      3.78967 -4.58395e-07 -3.36366e-06   -0.0108692 
         -50      3.84961 -4.67005e-07 -3.30952e-06   -0.0108692 
         -50      3.90996 -4.74322e-07 -3.25382e-06   -0.0108691 
         -50      3.97084 -4.74068e-07 -3.19712e-06    -0.010869 
         -50      4.03214 -4.74172e-07 -3.14166e-06   -0.0108689 
         -50      4.09395 -4.75492e-07 -3.08716e-06   -0.0108688 
         -50      4.15624 -4.77713e-07 -3.03349e-06   -0.0108687 
         -50      4.21895 -4.80557e-07 -2.98059e-06   -0.0108686 
         -50      4.28217   -4.838e-07 -2.92835e-06   -0.0108685 
         -50      4.34582  -4.8725e-07 -2.87687e-06   -0.0108684 
         -50      4.40998 -4.90762e-07 -2.82614e-06   -0.0108683 
         -50      4.47457 -4.94222e-07 -2.77634e-06   -0.0108682 
         -50      4.53968 -4.97556e-07  -2.7275e-06   -0.0108681 
         -50      4.60525 -5.00713e-07 -2.67977e-06    -0.010868 
         -50      4.67125 -5.03666e-07  -2.6333e-06   -0.0108679 
         -50      4.73777 -5.06412e-07 -2.58809e-06   -0.0108678 
         -50       4.8047 -5.08952e-07 -2.54428e-06   -0.0108677 
         -50      4.87216 -5.11298e-07 -2.50183e-06   -0.0108676 
         -50      4.94003 -5.13447e-07 -2.46079e-06   -0.0108675 
         -50      5.00843 -5.15387e-07 -2.42104e-06   -0.0108673 
         -50      5.07724 -5.17074e-07 -2.38257e-06   -0.0108672 
         -50      5.14658 -5.18428e-07 -2.34518e-06   -0.0108671 
         -50      5.21639 -5.19309e-07 -2.30878e-06    -0.010867 
         -50      5.28661  -5.1951e-07 -2.27323e-06   -0.0108668 
         -50      5.35736 -5.18736e-07 -2.23833e-06   -0.0108667 
         -50      5.42852 -5.16588e-07 -2.20403e-06   -0.0108666 
         -50      5.50021 -5.12534e-07 -2.17023e-06   -0.0108664 
         -50      5.57231 -5.05903e-07 -2.13705e-06   -0.0108663 
         -50      5.64493 -4.95836e-07 -2.10465e-06   -0.0108662 
         -50      5.71803  -5.0207e-07 -2.06959e-06    -0.010866 
         -50      5.79154  -5.0366e-07 -2.03747e-06   -0.0108659 
         -50      5.86558 -5.01604e-07 -2.00626e-06   -0.0108657 
         -50      5.94003 -4.96996e-07 -1.97487e-06   -0.0108656 
         -50      6.01501 -4.90945e-07 -1.94278e-06   -0.0108654 
         -50       6.0904 -4.84516e-07 -1.91008e-06   -0.0108653 
         -50      6.16632 -4.78627e-07 -1.87715e-06   -0.0108651 
         -50      6.24271    -4.74e-07 -1.84461e-06    -0.010865 
         -50       6.3195 -4.71069e-07 -1.81312e-06   -0.0108648 
         -50      6.39683 -4.69902e-07 -1.78312e-06   -0.0108646 
         -50      6.47457 -4.70138e-07 -1.75479e-06   -0.0108644 
         -50      6.55284 -4.70915e-07 -1.72775e-06   -0.0108643 
         -50      6.63152 -4.70801e-07 -1.70098e-06   -0.0108641 
         -50      6.71073 -4.67734e-07  -1.6725e-06   -0.0108639 
         -50      6.79034 -4.62562e-07  -1.6457e-06   -0.0108637 
         -50      6.87049  -4.5723e-07  -1.6215e-06   -0.0108635 
         -50      6.95111 -4.51026e-07 -1.59819e-06   -0.0108634 
         -50      7.03214 -4.43941e-07 -1.57564e-06   -0.0108632 
         -50       7.1137 -4.36036e-07 -1.55367e-06    -0.010863 
         -50      7.19566 -4.27465e-07 -1.53212e-06   -0.0108628 
         -50      7.27816 -4.18406e-07 -1.51077e-06   -0.0108626 
         -50      7.36106 -4.09097e-07 -1.48951e-06   -0.0108624 
         -50      7.44451 -3.99767e-07 -1.46818e-06   -0.0108622 
         -50      7.52842 -3.90669e-07 -1.44674e-06   -0.0108619 
         -50      7.61273 -3.82043e-07  -1.4252e-06   -0.0108617 
         -50      7.69758  -3.7409e-07 -1.40363e-06   -0.0108615 
         -50      7.78283 -3.67003e-07 -1.38227e-06   -0.0108613 
         -50      7.86862 -3.60914e-07 -1.36143e-06   -0.0108611 
         -50      7.95481 -3.55935e-07 -1.34158e-06   -0.0108608 
         -50      8.04155 -3.52118e-07 -1.32331e-06   -0.0108606 
         -50      8.12868 -3.43629e-07 -1.30577e-06   -0.0108604 
         -50      8.21635 -3.34413e-07 -1.28758e-06   -0.0108601 
         -50      8.30449  -3.2626e-07 -1.26889e-06   -0.0108599 
         -50      8.39303 -3.19194e-07 -1.24983e-06   -0.0108596 
         -50      8.48211 -3.13091e-07 -1.23057e-06   -0.0108594 
         -50      8.57159 -3.07731e-07 -1.21141e-06   -0.0108591 
         -50      8.66161 -3.02781e-07 -1.19257e-06   -0.0108588 
         -50      8.75203 -2.97854e-07 -1.17433e-06   -0.0108586 
         -50      8.84299 -2.92504e-07 -1.15683e-06   -0.0108583 
         -50      8.93443 -2.86295e-07 -1.14016e-06    -0.010858 
         -50      9.02626 -2.78833e-07 -1.12425e-06   -0.0108578 
         -50      9.11863 -2.69803e-07 -1.10879e-06   -0.0108575 
         -50      9.21139 -2.59067e-07 -1.09328e-06   -0.0108572 
         -50      9.30471 -2.46679e-07  -1.0768e-06   -0.0108569 
         -50      9.39841 -2.37238e-07 -1.06197e-06   -0.0108566 
         -50      9.49267 -2.31945e-07 -1.04903e-06   -0.0108563 
         -50      9.58739 -2.26933e-07 -1.03519e-06    -0.010856 
         -50      9.68251 -2.22064e-07 -1.02093e-06   -0.0108557 
         -50      9.77817 -2.17231e-07 -1.00658e-06   -0.0108554 
         -50      9.87422 -2.12386e-07  -9.9239e-07   -0.0108551 
         -50      9.97083 -2.07494e-07 -9.78476e-07   -0.0108548 
         -50      10.0678 -2.02567e-07 -9.64928e-07   -0.0108545 
         -50      10.1654 -1.97615e-07 -9.51732e-07   -0.0108541 
         -50      10.2633  -1.9268e-07 -9.38871e-07   -0.0108538 
         -50      10.3618 -1.87796e-07 -9.26261e-07   -0.0108535 
         -50      10.4607 -1.83009e-07 -9.13828e-07   -0.0108531 
         -50      10.5601 -1.78364e-07 -9.01496e-07   -0.0108528 
         -50        10.66 -1.73885e-07 -8.89168e-07   -0.0108524 
         -50      10.7603 -1.69604e-07   -8.768e-07   -0.0108521 
         -50      10.8611 -1.65523e-07 -8.64334e-07   -0.0108517 
         -50      10.9623 -1.61643e-07 -8.51778e-07   -0.0108513 
         -50      11.0641 -1.57937e-07 -8.39135e-07    -0.010851 
         -50      11.1663 -1.54374e-07 -8.26467e-07   -0.0108506 
         -50       11.269 -1.50905e-07 -8.13868e-07   -0.0108502 
         -50      11.3721 -1.47465e-07 -8.01423e-07   -0.0108498 
         -50      11.4757 -1.43993e-07 -7.89276e-07   -0.0108494 
         -50      11.5798 -1.40415e-07 -7.77532e-07    -0.010849 
         -50      11.6844 -1.36676e-07 -7.66322e-07   -0.0108486 
         -50      11.7894 -1.32726e-07 -7.55706e-07   -0.0108482 
         -50       11.895 -1.28552e-07 -7.45709e-07   -0.0108478 
         -50      12.0009 -1.24182e-07 -7.36268e-07   -0.0108474 
         -50      12.1073 -1.19691e-07 -7.27169e-07    -0.010847 
         -50      12.2142 -1.15244e-07 -7.18064e-07   -0.0108466 
         -50      12.3216 -1.11086e-07 -7.08359e-07   -0.0108461 
         -50      12.4294 -1.07599e-07 -6.97224e-07   -0.0108457 
         -50      12.5378 -1.05295e-07 -6.83464e-07   -0.0108453 
         -50      12.6465 -1.02959e-07 -6.66974e-07   -0.0108448 
         -50      12.7558 -9.37945e-08 -6.54965e-07   -0.0108444 
         -50      12.8656 -9.73667e-08 -6.46918e-07   -0.0108439 
         -50      12.9757 -9.62271e-08 -6.40945e-07   -0.0108434 
         -50      13.0864 -8.93258e-08 -6.35279e-07    -0.010843 
         -50      13.1975 -8.45293e-08 -6.28258e-07   -0.0108425 
         -50      13.3092 -8.12141e-08 -6.20247e-07    -0.010842 
         -50      13.4212 -7.88892e-08 -6.11578e-07   -0.0108416 
         -50      13.5338 -7.71614e-08 -6.02501e-07   -0.0108411 
         -50      13.6468 -7.57386e-08 -5.93238e-07   -0.0108406 
         -50      13.7603 -7.44112e-08 -5.83965e-07   -0.0108401 
         -50      13.8743 -7.30392e-08 -5.74798e-07   -0.0108396 
         -50      13.9886  -7.1548e-08 -5.65847e-07   -0.0108391 
         -50      14.1036 -6.99082e-08  -5.5716e-07   -0.0108385 
         -50      14.2189 -6.81355e-08 -5.48792e-07    -0.010838 
         -50      14.3348 -6.62695e-08 -5.40742e-07   -0.0108375 
         -50       14.451 -6.43759e-08 -5.33024e-07   -0.0108369 
         -50      14.5678 -6.25261e-08 -5.25608e-07   -0.0108364 
         -50      14.6851 -6.07992e-08 -5.18476e-07   -0.0108359 
         -50      14.8028 -5.92704e-08 -5.11598e-07   -0.0108353 
         -50       14.921  -5.8001e-08 -5.04926e-07   -0.0108348 
         -50      15.0396 -5.70417e-08 -4.98432e-07   -0.0108342 
         -50      15.1588 -5.64203e-08 -4.92067e-07   -0.0108336 
         -50      15.2783 -5.61451e-08 -4.85806e-07    -0.010833 
         -50      15.3984 -5.61993e-08 -4.79604e-07   -0.0108325 
         -50       15.519 -5.65437e-08  -4.7344e-07   -0.0108319 
         -50        15.64 -5.71164e-08 -4.67292e-07   -0.0108313 
         -50      15.7615 -5.78389e-08  -4.6113e-07   -0.0108307 
         -50      15.8834 -5.86181e-08 -4.54945e-07   -0.0108301 
         -50      16.0058 -5.93576e-08 -4.48707e-07   -0.0108295 
         -50      16.1286 -5.99634e-08 -4.42405e-07   -0.0108289 
         -50       16.252 -6.03597e-08 -4.35998e-07   -0.0108282 
         -50      16.3759    -6.05e-08 -4.29451e-07   -0.0108276 
         -50      16.5002 -6.03867e-08 -4.22712e-07    -0.010827 
         -50       16.625   -6.009e-08 -4.15685e-07   -0.0108263 
         -50      16.7501 -5.50247e-08 -4.09097e-07   -0.0108257 
         -50      16.8759 -4.68507e-08  -4.0317e-07    -0.010825 
         -50       17.002 -4.16306e-08 -3.97014e-07   -0.0108244 
         -50      17.1287 -3.87695e-08  -3.9067e-07   -0.0108237 
         -50      17.2557 -3.77553e-08 -3.84203e-07    -0.010823 
         -50      17.3834 -3.81341e-08 -3.77657e-07   -0.0108223 
         -50      17.5115 -3.95147e-08 -3.71094e-07   -0.0108217 
         -50      17.6399  -4.1558e-08 -3.64574e-07    -0.010821 
         -50       17.769 -4.39809e-08 -3.58137e-07   -0.0108203 
         -50      17.8984 -4.65403e-08 -3.51839e-07   -0.0108196 
         -50      18.0284 -4.90431e-08 -3.45709e-07   -0.0108189 
         -50      18.1587  -5.1327e-08 -3.39791e-07   -0.0108181 
         -50      18.2896 -5.32726e-08 -3.34101e-07   -0.0108174 
         -50       18.421 -5.47874e-08 -3.28659e-07   -0.0108167 
         -50      18.5528 -5.58093e-08 -3.23477e-07   -0.0108159 
         -50      18.6851 -5.63062e-08 -3.18547e-07   -0.0108152 
         -50      18.8178  -5.6269e-08 -3.13868e-07   -0.0108145 
         -50      18.9511 -5.57135e-08 -3.09416e-07   -0.0108137 
         -50      19.0847 -5.46797e-08 -3.05173e-07   -0.0108129 
         -50      19.2189 -5.32289e-08 -3.01106e-07   -0.0108122 
         -50      19.3535 -5.14497e-08 -2.97189e-07   -0.0108114 
         -50      19.4886 -4.94509e-08 -2.93382e-07   -0.0108106 
         -50      19.6242 -4.73729e-08 -2.89656e-07   -0.0108098 
         -50      19.7602 -4.53857e-08 -2.85988e-07    -0.010809 
         -50      19.8968 -4.36883e-08 -2.82353e-07   -0.0108082 
         -50      20.0337 -4.25234e-08 -2.78751e-07   -0.0108074 
         -50      20.1712 -4.21729e-08 -2.75187e-07   -0.0108066 
         -50      20.3091 -4.29094e-08 -2.71966e-07   -0.0108058 
         -50      20.4475 -4.49254e-08  -2.6947e-07    -0.010805 
         -50      20.5864 -4.78695e-08 -2.66291e-07   -0.0108041 
         -50      20.7257 -5.07984e-08 -2.61938e-07   -0.0108033 
         -50      20.8655 -5.26544e-08 -2.55867e-07   -0.0108024 
         -50      21.0058 -5.22351e-08 -2.47525e-07   -0.0108016 
         -50      21.1465 -4.81819e-08 -2.36342e-07   -0.0108007 
         -50      21.2877 -6.05852e-08 -2.31828e-07   -0.0107998 
         -50      21.4294 -7.84565e-08 -2.35431e-07    -0.010799 
         -50      21.5716 -7.81456e-08 -2.34639e-07   -0.0107981 
         -50      21.7142 -6.95286e-08 -2.30439e-07   -0.0107972 
         -50      21.8573 -5.91185e-08 -2.23717e-07   -0.0107963 
         -50      22.0008 -5.01453e-08 -2.17007e-07   -0.0107954 
         -50      22.1449 -4.44431e-08 -2.13309e-07   -0.0107945 
         -50      22.2893 -4.32018e-08 -2.09455e-07   -0.0107936 
         -50      22.4344 -4.52813e-08 -2.05487e-07   -0.0107927 
         -50      22.5797 -4.95623e-08 -2.01479e-07   -0.0107917 
         -50      22.7257 -5.50101e-08 -1.97501e-07   -0.0107908 
         -50      22.8721 -6.07013e-08 -1.93629e-07   -0.0107899 
         -50      23.0189 -6.58712e-08 -1.89932e-07   -0.0107889 
         -50      23.1663 -6.99563e-08 -1.86451e-07    -0.010788 
         -50       23.314 -7.25858e-08 -1.83216e-07    -0.010787 
         -50      23.4623 -7.36152e-08  -1.8022e-07    -0.010786 
         -50       23.611  -7.3107e-08 -1.77437e-07   -0.0107851 
         -50      23.7602 -7.13229e-08 -1.74807e-07   -0.0107841 
         -50        23.91 -6.86963e-08 -1.72251e-07   -0.0107831 
         -50        24.06 -6.57922e-08 -1.69671e-07   -0.0107821 
         -50      24.2107 -6.32424e-08 -1.66952e-07   -0.0107811 
         -50      24.3617  -6.1689e-08 -1.63988e-07   -0.0107801 
         -50      24.5133 -6.16842e-08 -1.60674e-07   -0.0107791 
         -50      24.6653 -6.35929e-08  -1.5695e-07   -0.0107781 
         -50      24.8178 -6.74726e-08  -1.5279e-07    -0.010777 
         -50      24.9708 -7.29239e-08 -1.48253e-07    -0.010776 
         -50      25.1242 -7.89288e-08 -1.43498e-07    -0.010775 
         -50      25.2781 -8.36876e-08 -1.38803e-07   -0.0107739 
         -50      25.4324  -8.4385e-08 -1.34627e-07   -0.0107729 
         -50      25.5873 -8.29698e-08 -1.33343e-07   -0.0107718 
         -50      25.7426 -7.93113e-08 -1.31737e-07   -0.0107707 
         -50      25.8984 -7.48828e-08 -1.29547e-07   -0.0107697 
         -50      26.0546 -7.10273e-08  -1.2689e-07   -0.0107686 
         -50      26.2114 -6.85663e-08    -1.24e-07   -0.0107675 
         -50      26.3686 -6.78046e-08 -1.21205e-07   -0.0107664 
         -50      26.5262 -6.85603e-08  -1.1884e-07   -0.0107653 
         -50      26.6844 -7.02846e-08 -1.17129e-07   -0.0107642 
         -50      26.8429 -7.22382e-08 -1.16046e-07   -0.0107631 
         -50       27.002 -7.37574e-08 -1.15108e-07    -0.010762 
         -50      27.1615 -7.45798e-08 -1.13148e-07   -0.0107609 
         -50      27.3216 -7.52731e-08 -1.08021e-07   -0.0107597 
         -50      27.4821 -7.77392e-08 -9.62779e-08   -0.0107586 
         -50       27.643 -7.46123e-08 -9.27594e-08   -0.0107574 
         -50      27.8044 -6.93633e-08 -9.61847e-08   -0.0107563 
         -50      27.9663 -6.68499e-08 -9.78151e-08   -0.0107551 
         -50      28.1287 -6.63713e-08 -9.80354e-08    -0.010754 
         -50      28.2914 -6.73365e-08 -9.71788e-08   -0.0107528 
         -50      28.4548 -6.92501e-08 -9.55321e-08   -0.0107516 
         -50      28.6185 -7.17009e-08 -9.33429e-08   -0.0107504 
         -50      28.7828  -7.4364e-08 -9.08134e-08   -0.0107493 
         -50      28.9475 -7.69807e-08 -8.81136e-08   -0.0107481 
         -50      29.1126  -7.9357e-08 -8.53802e-08   -0.0107469 
         -50      29.2784 -8.13615e-08 -8.27121e-08   -0.0107457 
         -50      29.4444 -8.29054e-08 -8.01885e-08   -0.0107444 
         -50       29.611 -8.39481e-08  -7.7855e-08   -0.0107432 
         -50       29.778 -8.44807e-08 -7.57426e-08    -0.010742 
         -50      29.9456 -8.45261e-08 -7.38555e-08   -0.0107408 
         -50      30.1137 -8.41284e-08 -7.21866e-08   -0.0107395 
         -50      30.2821 -8.33506e-08 -7.07138e-08   -0.0107383 
         -50      30.4511 -8.22652e-08 -6.94008e-08    -0.010737 
         -50      30.6204 -8.09539e-08 -6.82072e-08   -0.0107358 
         -50      30.7903  -7.9497e-08 -6.70827e-08   -0.0107345 
         -50      30.9606 -7.79764e-08 -6.59777e-08   -0.0107333 
         -50      31.1315 -7.64638e-08 -6.48383e-08    -0.010732 
         -50      31.3028 -7.50254e-08  -6.3615e-08   -0.0107307 
         -50      31.4745 -7.37154e-08 -6.22627e-08   -0.0107294 
         -50      31.6468  -7.2572e-08 -6.07393e-08   -0.0107281 
         -50      31.8194 -7.16222e-08 -5.90158e-08   -0.0107268 
         -50      31.9926 -7.08745e-08 -5.70688e-08   -0.0107255 
         -50      32.1662 -7.03256e-08 -5.48928e-08   -0.0107242 
         -50      32.3404 -6.99557e-08   -5.249e-08   -0.0107229 
         -50      32.5149 -6.97347e-08 -4.98856e-08   -0.0107216 
         -50        32.69 -6.96223e-08  -4.7114e-08   -0.0107203 
         -50      32.8655 -6.95727e-08 -4.42341e-08   -0.0107189 
         -50      33.0414 -6.95394e-08 -4.13247e-08   -0.0107176 
         -50       33.218 -6.94802e-08 -3.84779e-08   -0.0107162 
         -50      33.3948 -6.93645e-08 -3.58158e-08   -0.0107149 
         -50      33.5723 -6.91808e-08 -3.34733e-08   -0.0107135 
         -50        33.75 -6.89462e-08 -3.16149e-08   -0.0107122 
         -50      33.9284 -6.87162e-08   -3.042e-08   -0.0107108 
         -50      34.1073 -6.85967e-08  -3.0094e-08   -0.0107094 
         -50      34.2865 -6.87566e-08 -3.08605e-08   -0.0107081 
         -50      34.4663 -6.94428e-08 -3.29648e-08   -0.0107067 
         -50      34.6465 -7.09937e-08 -3.66662e-08   -0.0107053 
         -50      34.8272 -7.38624e-08 -4.22507e-08   -0.0107039 
         -50      35.0083 -7.56883e-08 -4.14295e-08   -0.0107025 
         -50        35.19 -7.91266e-08 -3.43592e-08   -0.0107011 
         -50      35.3721 -8.82514e-08  -2.6101e-08   -0.0106997 
         -50      35.5546 -9.83803e-08 -1.74968e-08   -0.0106983 
         -50      35.7377 -8.16187e-08 -1.71935e-08   -0.0106969 
         -50      35.9211 -7.16654e-08 -1.62182e-08   -0.0106955 
         -50      36.1052 -6.69245e-08 -1.47637e-08    -0.010694 
         -50      36.2895 -6.60472e-08 -1.30014e-08   -0.0106926 
         -50      36.4745 -6.78792e-08 -1.10752e-08   -0.0106912 
         -50      36.6598 -7.14525e-08 -9.11566e-09   -0.0106897 
         -50      36.8457 -7.60159e-08 -7.31866e-09   -0.0106883 
         -50      37.0321 -8.10294e-08 -7.19226e-09   -0.0106868 
         -50      37.2188 -8.50459e-08 -7.18728e-09   -0.0106854 
         -50      37.4062 -8.79531e-08 -7.22586e-09   -0.0106839 
         -50      37.5938 -8.97152e-08 -7.24974e-09   -0.0106824 
         -50      37.7821 -9.03771e-08 -7.21758e-09   -0.0106809 
         -50      37.9707 -9.00378e-08  -7.1024e-09   -0.0106795 
         -50      38.1599  -8.8842e-08 -6.88887e-09    -0.010678 
         -50      38.3496 -8.69667e-08 -6.57146e-09   -0.0106765 
         -50      38.5396 -8.46108e-08 -6.15237e-09    -0.010675 
         -50      38.7302  -8.1976e-08 -5.63816e-09   -0.0106735 
         -50      38.9211 -7.92698e-08 -5.04041e-09    -0.010672 
         -50      39.1127 -7.66804e-08  -4.3708e-09   -0.0106705 
         -50      39.3046 -7.43848e-08  -3.6434e-09    -0.010669 
         -50      39.4971  -7.2526e-08 -2.86914e-09   -0.0106675 
         -50      39.6899  -7.1221e-08 -2.05933e-09    -0.010666 
         -50      39.8833  -7.0545e-08  -1.2199e-09   -0.0106645 
         -50      40.0772 -7.05359e-08 -3.55216e-10   -0.0106629 
         -50      40.2714 -7.11873e-08  5.34131e-10   -0.0106614 
         -50      40.4663 -7.24517e-08  1.45369e-09   -0.0106599 
         -50      40.6615 -7.42371e-08  2.40992e-09   -0.0106583 
         -50      40.8573 -7.64171e-08  3.41569e-09   -0.0106568 
         -50      41.0534 -7.88251e-08  4.48333e-09   -0.0106552 
         -50      41.2501  -8.1273e-08  5.63004e-09   -0.0106537 
         -50      41.4473 -8.35474e-08  6.87065e-09   -0.0106521 
         -50      41.6448 -8.54251e-08  8.21811e-09   -0.0106506 
         -50      41.8429 -8.66902e-08  9.68486e-09    -0.010649 
         -50      42.0414 -8.71386e-08  1.12727e-08   -0.0106475 
         -50      42.2405  -8.6602e-08   1.2979e-08   -0.0106459 
         -50      42.4399 -8.49651e-08  1.47838e-08   -0.0106443 
         -50      42.6399 -8.21824e-08  1.66561e-08   -0.0106427 
         -50      42.8404   -7.831e-08  1.85406e-08   -0.0106412 
         -50      43.0412 -7.35317e-08  2.03566e-08   -0.0106396 
         -50      43.2426 -6.81732e-08  2.19978e-08    -0.010638 
         -50      43.4444 -6.27618e-08  2.33167e-08   -0.0106364 
         -50      43.6467 -5.80293e-08   2.4128e-08   -0.0106348 
         -50      43.8494  -5.4982e-08  2.41949e-08   -0.0106332 
         -50      44.0527 -5.49158e-08  2.32256e-08   -0.0106316 
         -50      44.2563 -5.96793e-08  2.09861e-08     -0.01063 
         -50      44.4606  -7.3251e-08  2.25784e-08   -0.0106284 
         -50      44.6653 -8.13589e-08  2.31721e-08   -0.0106268 
         -50      44.8704 -8.47149e-08  2.30464e-08   -0.0106252 
         -50       45.076 -8.41273e-08  2.24375e-08   -0.0106235 
         -50       45.282  -8.0475e-08  2.15404e-08   -0.0106219 
         -50      45.4886 -7.46927e-08  2.05051e-08   -0.0106203 
         -50      45.6955 -6.77743e-08  1.94423e-08   -0.0106187 
         -50       45.903 -6.07228e-08  1.84173e-08   -0.0106171 
         -50      46.1111  -5.4568e-08  1.74567e-08   -0.0106154 
         -50      46.3194 -5.03281e-08  1.65465e-08   -0.0106138 
         -50      46.5283 -4.89814e-08  1.56321e-08   -0.0106122 
         -50      46.7376 -5.14635e-08  1.46243e-08   -0.0106105 
         -50      46.9475 -5.86384e-08  1.33961e-08   -0.0106089 
         -50      47.1577 -7.12563e-08  1.17915e-08   -0.0106072 
         -50      47.3685  -7.6618e-08    1.071e-08   -0.0106056 
         -50      47.5798 -6.41936e-08  1.19254e-08   -0.0106039 
         -50      47.7914 -5.50779e-08  1.37475e-08   -0.0106023 
         -50      48.0037 -4.85343e-08  1.57971e-08   -0.0106006 