Variables = x, y, u, v, p

Zone, I=416, F=POINT
         -50            0 -2.19399e-19  2.25244e-24      27.1157 
         -50     0.013333 -0.000203427 -3.37402e-08      27.1157 
         -50     0.053333 -0.000185241 -3.53049e-07      27.1157 
         -50         0.12 -0.000166293 -1.18205e-06      27.1157 
         -50     0.213332 -0.000150271 -2.60672e-06      27.1157 
         -50     0.333332 -0.000139033  -4.2526e-06      27.1156 
         -50         0.48 -0.000133922 -5.77207e-06      27.1156 
         -50     0.653331 -0.000135581 -8.64988e-06      27.1155 
         -50     0.853332 -0.000143552 -1.05706e-05      27.1153 
         -50         1.08 -0.000152694 -1.24758e-05      27.1151 
         -50      1.33333 -0.000160762 -1.45264e-05      27.1149 
         -50      1.61333  -0.00016777 -1.55571e-05      27.1145 
         -50         1.92 -0.000172975  -1.5021e-05       27.114 
         -50      2.25333 -0.000174172 -1.57659e-05      27.1134 
         -50      2.61333 -0.000179381 -2.09398e-05      27.1126 
         -50            3  -0.00018985 -2.85558e-05      27.1116 
         -25            0           -0           -0       26.028 
         -25     0.013333 -0.000147812 -1.90926e-08       26.028 
         -25     0.053333 -0.000131984 -2.23827e-07       26.028 
         -25         0.12 -0.000114978 -8.14401e-07       26.028 
         -25     0.213332 -0.000101243 -1.81873e-06       26.028 
         -25     0.333332  -9.3629e-05 -3.01788e-06       26.028 
         -25         0.48 -9.29847e-05 -4.28538e-06       26.028 
         -25     0.653331 -9.82364e-05  -5.4653e-06      26.0279 
         -25     0.853332 -0.000107404  -6.7897e-06      26.0279 
         -25         1.08  -0.00011693 -8.04194e-06      26.0278 
         -25      1.33333 -0.000124629 -9.02888e-06      26.0277 
         -25      1.61333 -0.000132747 -9.98053e-06      26.0276 
         -25         1.92 -0.000141401 -1.03899e-05      26.0274 
         -25      2.25333 -0.000145151 -1.14242e-05      26.0271 
         -25      2.61333 -0.000143546 -1.12718e-05      26.0268 
         -25            3 -0.000138782 -7.13774e-06      26.0265 
           0            0 -2.89871e-15  1.96793e-15      25.1411 
           0     0.013333 -0.000463954  0.000251505      25.1416 
           0     0.053333 -0.000245061  0.000135709      25.1433 
           0         0.12 -0.000170143  8.34845e-05      25.1452 
           0     0.213332 -0.000143608  6.43251e-05      25.1471 
           0     0.333332 -0.000133099  5.33409e-05      25.1491 
           0         0.48 -0.000125371  4.59193e-05       25.151 
           0     0.653331 -0.000117754  4.11225e-05       25.153 
           0     0.853332 -0.000111219  3.80187e-05      25.1548 
           0         1.08 -0.000109152  3.58031e-05      25.1567 
           0      1.33333 -0.000111542  3.38753e-05      25.1584 
           0      1.61333 -0.000114671  3.19269e-05        25.16 
           0         1.92 -0.000113172  2.97778e-05      25.1615 
           0      2.25333 -0.000110165  2.67631e-05      25.1629 
           0      2.61333   -0.0001186  2.07525e-05      25.1642 
           0            3 -0.000138033  1.23939e-05      25.1654 
          20            0            0            0      24.5875 
          20     0.013333 -0.000117093 -9.09871e-09      24.5875 
          20     0.053333 -0.000108161 -1.24717e-07      24.5875 
          20         0.12 -9.54311e-05  -5.7282e-07      24.5875 
          20     0.213332 -7.90582e-05 -1.60251e-06      24.5875 
          20     0.333332 -6.42605e-05  -3.1631e-06      24.5875 
          20         0.48 -5.56437e-05 -4.84847e-06      24.5875 
          20     0.653331 -5.09616e-05 -6.24757e-06      24.5874 
          20     0.853332 -5.01856e-05 -7.32619e-06      24.5874 
          20         1.08 -5.55446e-05 -8.21428e-06      24.5874 
          20      1.33333 -6.56467e-05  -8.8264e-06      24.5873 
          20      1.61333  -7.9307e-05 -9.13507e-06      24.5872 
          20         1.92 -9.40944e-05 -9.14517e-06      24.5871 
          20      2.25333 -0.000107706 -9.00466e-06       24.587 
          20      2.61333 -0.000119921 -8.94984e-06      24.5869 
          20            3 -0.000129495 -9.16956e-06      24.5867 
          40            0            0            0      24.0256 
          40     0.013333 -0.000115576  -3.5766e-08      24.0256 
          40     0.053333 -0.000117236  -5.2647e-07      24.0256 
          40         0.12  -0.00010401 -2.32369e-06      24.0256 
          40     0.213332 -7.36989e-05 -6.02676e-06      24.0256 
          40     0.333332 -4.08354e-05 -1.15034e-05      24.0256 
          40         0.48 -2.07457e-05 -1.83042e-05      24.0256 
          40     0.653331 -1.99622e-05 -2.62414e-05      24.0256 
          40     0.853332 -3.53794e-05 -3.50321e-05      24.0255 
          40         1.08 -5.31491e-05 -4.36631e-05      24.0255 
          40      1.33333 -6.48739e-05 -5.09519e-05      24.0255 
          40      1.61333 -7.51741e-05 -5.62504e-05      24.0255 
          40         1.92 -9.02599e-05 -5.87296e-05      24.0254 
          40      2.25333 -0.000102742 -5.86167e-05      24.0254 
          40      2.61333 -0.000115827 -5.65518e-05      24.0253 
          40            3  -0.00012965 -5.18855e-05      24.0253 
          60            0           -0           -0      23.4922 
          60     0.013333 -0.000117736 -3.63461e-09      23.4922 
          60     0.053333 -0.000142587 -7.40013e-08      23.4922 
          60         0.12 -0.000170153  -4.8528e-07      23.4922 
          60     0.213332 -0.000183053 -1.78539e-06      23.4922 
          60     0.333332  -0.00017723 -4.47219e-06      23.4922 
          60         0.48 -0.000163728 -8.60431e-06      23.4922 
          60     0.653331 -0.000153245 -1.38502e-05      23.4922 
          60     0.853332 -0.000148042 -1.97674e-05      23.4922 
          60         1.08 -0.000143032 -2.58236e-05      23.4922 
          60      1.33333 -0.000131712 -3.12077e-05      23.4921 
          60      1.61333 -0.000115802 -3.53681e-05      23.4921 
          60         1.92 -9.99259e-05 -3.78638e-05      23.4921 
          60      2.25333 -8.31396e-05 -3.82698e-05      23.4921 
          60      2.61333 -7.13401e-05 -3.74048e-05       23.492 
          60            3 -7.03524e-05 -3.59411e-05       23.492 
          80            0           -0           -0      22.9755 
          80     0.013333 -0.000122123  1.85042e-08      22.9755 
          80     0.053333 -0.000168807  2.20009e-07      22.9755 
          80         0.12 -0.000228724   6.1442e-07      22.9755 
          80     0.213332 -0.000271288  5.34295e-07      22.9755 
          80     0.333332 -0.000282449 -9.41323e-07      22.9755 
          80         0.48 -0.000274663 -4.09499e-06      22.9755 
          80     0.653331 -0.000261698  -8.3216e-06      22.9755 
          80     0.853332 -0.000240779 -1.25002e-05      22.9755 
          80         1.08 -0.000208228  -1.5983e-05      22.9755 
          80      1.33333 -0.000173087 -1.88407e-05      22.9755 
          80      1.61333 -0.000137857 -2.11801e-05      22.9755 
          80         1.92 -0.000101457 -2.26518e-05      22.9755 
          80      2.25333 -7.49552e-05 -2.29884e-05      22.9755 
          80      2.61333  -5.7316e-05 -2.23788e-05      22.9755 
          80            3 -4.31243e-05 -2.08715e-05      22.9754 
         100            0            0            0      22.4695 
         100     0.013333  -0.00011229  2.58918e-08      22.4695 
         100     0.053333 -0.000141147  3.50185e-07      22.4695 
         100         0.12  -0.00018885  1.32913e-06      22.4695 
         100     0.213332 -0.000236002  2.81633e-06      22.4695 
         100     0.333332 -0.000265199  4.22339e-06      22.4695 
         100         0.48 -0.000276498   5.1416e-06      22.4695 
         100     0.653331 -0.000275838  5.73353e-06      22.4695 
         100     0.853332 -0.000260849  6.65695e-06      22.4695 
         100         1.08 -0.000229451   8.3168e-06      22.4695 
         100      1.33333 -0.000192816  1.03289e-05      22.4695 
         100      1.61333 -0.000155647   1.2021e-05      22.4695 
         100         1.92 -0.000114655  1.33734e-05      22.4695 
         100      2.25333 -8.01758e-05  1.40942e-05      22.4695 
         100      2.61333 -5.44183e-05  1.43516e-05      22.4694 
         100            3  -3.6054e-05  1.43772e-05      22.4694 
         150            0           -0           -0      21.2287 
         150     0.013333 -0.000114644 -2.96907e-08      21.2287 
         150     0.053333 -0.000140492 -4.75379e-07      21.2287 
         150         0.12 -0.000151763 -2.31654e-06      21.2287 
         150     0.213332 -0.000131334  -6.6086e-06      21.2287 
         150     0.333332 -9.24121e-05 -1.36463e-05      21.2287 
         150         0.48 -6.12432e-05 -2.28635e-05      21.2287 
         150     0.653331 -5.13199e-05 -3.34833e-05      21.2287 
         150     0.853332 -5.84526e-05 -4.47197e-05      21.2287 
         150         1.08 -6.78731e-05 -5.55332e-05      21.2287 
         150      1.33333 -7.15441e-05 -6.49542e-05      21.2287 
         150      1.61333 -7.37014e-05  -7.2438e-05      21.2287 
         150         1.92 -7.78696e-05 -7.71666e-05      21.2287 
         150      2.25333 -8.07113e-05 -7.86441e-05      21.2287 
         150      2.61333 -8.20381e-05 -7.69591e-05      21.2287 
         150            3 -8.28669e-05 -7.26938e-05      21.2287 
         200            0 -2.06649e-19 -1.14791e-26      20.0023 
         200     0.013333 -9.18449e-05 -3.76529e-08      20.0023 
         200     0.053333 -6.12248e-05 -5.42668e-07      20.0023 
         200         0.12 -9.50958e-06 -2.29028e-06      20.0023 
         200     0.213332  4.84675e-05  -5.5752e-06      20.0023 
         200     0.333332  8.86897e-05 -9.81434e-06      20.0023 
         200         0.48  0.000100285 -1.41425e-05      20.0023 
         200     0.653331  9.01015e-05 -1.81917e-05      20.0023 
         200     0.853332  6.72197e-05 -2.21171e-05      20.0023 
         200         1.08  3.72022e-05 -2.59954e-05      20.0023 
         200      1.33333  6.44417e-06 -2.95027e-05      20.0023 
         200      1.61333 -2.33258e-05 -3.21428e-05      20.0023 
         200         1.92 -5.59743e-05 -3.36086e-05      20.0023 
         200      2.25333  -8.6876e-05 -3.38281e-05      20.0023 
         200      2.61333 -0.000113023 -3.27051e-05      20.0023 
         200            3 -0.000130939 -3.02485e-05      20.0023 
         250            0           -0           -0      18.7793 
         250     0.013333 -9.98723e-05 -7.74879e-08      18.7793 
         250     0.053333 -7.99101e-05 -1.13575e-06      18.7793 
         250         0.12  -1.5004e-05 -4.93901e-06      18.7793 
         250     0.213332  8.80543e-05 -1.25899e-05      18.7793 
         250     0.333332  0.000188423 -2.36116e-05      18.7793 
         250         0.48  0.000252627 -3.67567e-05      18.7793 
         250     0.653331  0.000272928 -5.13954e-05      18.7793 
         250     0.853332  0.000250026   -6.775e-05      18.7793 
         250         1.08   0.00019248   -8.559e-05      18.7793 
         250      1.33333  0.000127895 -0.000103266      18.7793 
         250      1.61333   7.1096e-05 -0.000118683      18.7793 
         250         1.92  9.42025e-06 -0.000130473      18.7793 
         250      2.25333 -4.89164e-05 -0.000137694      18.7793 
         250      2.61333 -9.95244e-05 -0.000139776      18.7793 
         250            3 -0.000140329  -0.00013684      18.7793 
         300            0           -0           -0      17.5561 
         300     0.013333 -7.89992e-05 -1.19604e-08      17.5561 
         300     0.053333  -2.3652e-05 -1.41501e-07      17.5561 
         300         0.12  3.96143e-05 -3.85485e-07      17.5561 
         300     0.213332  8.24276e-05 -2.31789e-07      17.5561 
         300     0.333332  9.08225e-05  1.14988e-06      17.5561 
         300         0.48  7.38811e-05  4.23148e-06      17.5561 
         300     0.653331  5.06873e-05  8.79998e-06      17.5561 
         300     0.853332  3.06236e-05  1.41831e-05      17.5561 
         300         1.08  1.06487e-05  1.96822e-05      17.5561 
         300      1.33333 -1.15432e-05  2.49509e-05      17.5561 
         300      1.61333 -3.39386e-05  2.99482e-05      17.5561 
         300         1.92  -5.7165e-05  3.42875e-05      17.5561 
         300      2.25333 -8.01942e-05  3.76766e-05      17.5561 
         300      2.61333 -9.99093e-05  3.98501e-05      17.5561 
         300            3 -0.000113586  4.05912e-05      17.5561 
         350            0           -0           -0      16.3319 
         350     0.013333 -0.000125883 -1.63836e-08      16.3319 
         350     0.053333 -0.000187811  -2.8417e-07      16.3319 
         350         0.12 -0.000249782 -1.53912e-06      16.3319 
         350     0.213332 -0.000274055 -4.92222e-06      16.3319 
         350     0.333332 -0.000253691 -1.13475e-05      16.3319 
         350         0.48 -0.000213284  -2.0903e-05      16.3319 
         350     0.653331 -0.000180107 -3.29681e-05      16.3319 
         350     0.853332 -0.000164611 -4.67269e-05      16.3319 
         350         1.08 -0.000161151 -6.13446e-05      16.3319 
         350      1.33333  -0.00015667 -7.58409e-05      16.3319 
         350      1.61333  -0.00014379  -8.9132e-05      16.3319 
         350         1.92 -0.000127519  -0.00010026      16.3319 
         350      2.25333 -0.000110021  -0.00010832      16.3319 
         350      2.61333 -9.29317e-05 -0.000112731      16.3319 
         350            3 -7.84938e-05 -0.000113253      16.3319 
         400            0           -0           -0      15.1064 
         400     0.013333 -0.000103948  4.31789e-08      15.1064 
         400     0.053333 -0.000125432  6.15048e-07      15.1064 
         400         0.12 -0.000177242  2.55585e-06      15.1064 
         400     0.213332 -0.000243484   6.1479e-06      15.1064 
         400     0.333332 -0.000295003  1.08068e-05      15.1064 
         400         0.48 -0.000319824  1.58096e-05      15.1064 
         400     0.653331 -0.000323161  2.11073e-05      15.1064 
         400     0.853332 -0.000307081  2.73483e-05      15.1064 
         400         1.08  -0.00026895  3.50518e-05      15.1064 
         400      1.33333 -0.000222048  4.35923e-05      15.1064 
         400      1.61333 -0.000184894  5.15543e-05      15.1064 
         400         1.92 -0.000151547  5.81431e-05      15.1064 
         400      2.25333  -0.00011934  6.30363e-05      15.1064 
         400      2.61333 -8.93173e-05  6.58866e-05      15.1064 
         400            3 -6.37743e-05  6.64554e-05      15.1064 
         450            0 -1.09734e-19 -1.29795e-26       13.879 
         450     0.013333 -0.000112444  2.17627e-08       13.879 
         450     0.053333 -0.000150691  2.92561e-07       13.879 
         450         0.12 -0.000209938  1.09179e-06       13.879 
         450     0.213332 -0.000265646  2.20072e-06       13.879 
         450     0.333332  -0.00029502  2.91574e-06       13.879 
         450         0.48 -0.000298291  2.70903e-06       13.879 
         450     0.653331 -0.000289661  1.72117e-06       13.879 
         450     0.853332  -0.00027544  6.71951e-07       13.879 
         450         1.08 -0.000249766  3.56406e-07       13.879 
         450      1.33333  -0.00021479  8.22832e-07       13.879 
         450      1.61333 -0.000183877   1.3035e-06       13.879 
         450         1.92 -0.000155895   1.4903e-06       13.879 
         450      2.25333 -0.000127369   1.4964e-06       13.879 
         450      2.61333 -9.93631e-05  1.36806e-06       13.879 
         450            3 -7.50785e-05  1.12379e-06       13.879 
         500            0            0            0      12.6493 
         500     0.013333  -0.00010898 -7.61312e-09      12.6493 
         500     0.053333 -0.000129124 -1.45399e-07      12.6493 
         500         0.12 -0.000143434 -8.62562e-07      12.6493 
         500     0.213332 -0.000131675 -2.92792e-06      12.6493 
         500     0.333332 -9.41754e-05 -6.92323e-06      12.6493 
         500         0.48 -5.32524e-05 -1.26948e-05      12.6493 
         500     0.653331 -2.85406e-05 -1.94492e-05      12.6493 
         500     0.853332 -2.01773e-05 -2.62213e-05      12.6493 
         500         1.08 -1.50249e-05 -3.22242e-05      12.6493 
         500      1.33333 -8.28403e-06 -3.72563e-05      12.6493 
         500      1.61333 -9.32358e-06 -4.17272e-05      12.6493 
         500         1.92  -1.8758e-05 -4.57955e-05      12.6493 
         500      2.25333 -3.16396e-05 -4.88936e-05      12.6493 
         500      2.61333 -4.62416e-05 -5.07865e-05      12.6493 
         500            3 -6.18279e-05 -5.13074e-05      12.6493 
         550            0           -0           -0      11.4168 
         550     0.013333 -0.000102208  5.43334e-08      11.4168 
         550     0.053333 -0.000123486  7.86244e-07      11.4169 
         550         0.12 -0.000184489  3.34641e-06      11.4169 
         550     0.213332 -0.000270466  8.27978e-06      11.4169 
         550     0.333332 -0.000342955  1.49566e-05      11.4169 
         550         0.48 -0.000380034  2.23491e-05      11.4168 
         550     0.653331 -0.000385535  3.01898e-05      11.4168 
         550     0.853332  -0.00036486  3.91948e-05      11.4168 
         550         1.08 -0.000316016  5.00725e-05      11.4169 
         550      1.33333 -0.000254106  6.21954e-05      11.4169 
         550      1.61333 -0.000207158  7.36891e-05      11.4169 
         550         1.92  -0.00017174  8.34233e-05      11.4169 
         550      2.25333 -0.000137291  9.10547e-05      11.4169 
         550      2.61333 -0.000102725   9.6181e-05      11.4169 
         550            3 -7.18136e-05  9.84197e-05      11.4169 
         600            0           -0           -0      10.1822 
         600     0.013333  -6.8963e-05    8.333e-08      10.1822 
         600     0.053333 -1.83447e-05  1.30657e-06      10.1822 
         600         0.12 -3.47321e-05  6.24109e-06      10.1822 
         600     0.213332 -0.000154968  1.76051e-05      10.1822 
         600     0.333332 -0.000324995  3.61356e-05      10.1822 
         600         0.48 -0.000454656  6.00239e-05      10.1822 
         600     0.653331 -0.000496078   8.6705e-05      10.1822 
         600     0.853332 -0.000459502   0.00011446      10.1822 
         600         1.08 -0.000388162  0.000141887      10.1822 
         600      1.33333 -0.000331759  0.000167017      10.1822 
         600      1.61333 -0.000302989  0.000188515      10.1822 
         600         1.92 -0.000270136  0.000206221      10.1822 
         600      2.25333 -0.000227657  0.000219505      10.1822 
         600      2.61333 -0.000180493  0.000227349      10.1822 
         600            3  -0.00013348  0.000228829      10.1822 
         650            0            0            0      8.94641 
         650     0.013333 -9.84586e-05 -2.40768e-07      8.94641 
         650     0.053333 -2.13054e-05 -3.60439e-06      8.94641 
         650         0.12  0.000252737 -1.61834e-05      8.94641 
         650     0.213332  0.000719405 -4.27884e-05      8.94641 
         650     0.333332    0.0012065 -8.28184e-05      8.94641 
         650         0.48   0.00152996 -0.000131131      8.94641 
         650     0.653331   0.00163532 -0.000182993      8.94641 
         650     0.853332   0.00156496 -0.000237182      8.94641 
         650         1.08   0.00137303 -0.000294287      8.94641 
         650      1.33333   0.00113003  -0.00035248      8.94641 
         650      1.61333   0.00091273  -0.00040708      8.94641 
         650         1.92  0.000715153 -0.000454217       8.9464 
         650      2.25333   0.00050539 -0.000491858      8.94639 
         650      2.61333  0.000282245 -0.000517709      8.94638 
         650            3  6.24705e-05 -0.000529442      8.94637 
         700            0            0            0      7.70853 
         700     0.013333 -1.24737e-05  2.31256e-07      7.70853 
         700     0.053333  0.000142208   3.5311e-06      7.70853 
         700         0.12  0.000147204  1.63554e-05      7.70853 
         700     0.213332 -0.000102736  4.50442e-05      7.70853 
         700     0.333332 -0.000506092  9.14935e-05      7.70853 
         700         0.48 -0.000871979   0.00015259      7.70853 
         700     0.653331  -0.00108157  0.000223918      7.70853 
         700     0.853332  -0.00111485  0.000303192      7.70853 
         700         1.08 -0.000996305  0.000389737      7.70853 
         700      1.33333 -0.000796699  0.000480628      7.70853 
         700      1.61333 -0.000626095  0.000569226      7.70853 
         700         1.92 -0.000510687  0.000649301      7.70853 
         700      2.25333 -0.000403173  0.000716744      7.70853 
         700      2.61333 -0.000285249  0.000767801      7.70854 
         700            3 -0.000169566  0.000798851      7.70855 
         750            0           -0           -0      6.46978 
         750     0.013333  -0.00022095  4.90415e-10      6.46978 
         750     0.053333 -0.000539675 -1.06057e-07      6.46978 
         750         0.12 -0.000933076 -1.25144e-06      6.46978 
         750     0.213332  -0.00124695 -5.89015e-06      6.46978 
         750     0.333332  -0.00138978 -1.71638e-05      6.46978 
         750         0.48  -0.00138107 -3.70297e-05      6.46978 
         750     0.653331  -0.00130559 -6.53496e-05      6.46978 
         750     0.853332  -0.00123602 -0.000100541      6.46978 
         750         1.08  -0.00119202 -0.000140327      6.46978 
         750      1.33333  -0.00114132 -0.000181779      6.46978 
         750      1.61333  -0.00103919 -0.000221508      6.46978 
         750         1.92 -0.000885254  -0.00025718      6.46978 
         750      2.25333   -0.0007082 -0.000287667      6.46979 
         750      2.61333 -0.000521998 -0.000311477       6.4698 
         750            3   -0.0003301 -0.000327119      6.46981 
         800            0            0            0      5.22956 
         800     0.013333 -0.000109776 -1.22989e-07      5.22956 
         800     0.053333 -9.81249e-05 -1.85152e-06      5.22956 
         800         0.12   1.1229e-05 -8.41008e-06      5.22956 
         800     0.213332  0.000239222 -2.26559e-05      5.22956 
         800     0.333332  0.000512769 -4.49629e-05      5.22956 
         800         0.48  0.000729742  -7.3233e-05      5.22956 
         800     0.653331  0.000840348 -0.000104997      5.22956 
         800     0.853332  0.000850417 -0.000139192      5.22956 
         800         1.08  0.000781017 -0.000175957      5.22956 
         800      1.33333  0.000661575 -0.000214726      5.22956 
         800      1.61333  0.000534916 -0.000253314      5.22956 
         800         1.92  0.000422203  -0.00028924      5.22956 
         800      2.25333  0.000308638 -0.000320512      5.22955 
         800      2.61333  0.000187497 -0.000345479      5.22955 
         800            3  6.36712e-05 -0.000362488      5.22954 
         850            0           -0           -0      3.98675 
         850     0.013333 -2.74787e-05 -1.50776e-09      3.98675 
         850     0.053333  0.000162275  3.16972e-08      3.98675 
         850         0.12  0.000396921  5.07696e-07      3.98675 
         850     0.213332  0.000594878   2.5469e-06      3.98675 
         850     0.333332  0.000705426  7.62852e-06      3.98675 
         850         0.48  0.000729709  1.68103e-05      3.98675 
         850     0.653331  0.000706037  3.03686e-05      3.98675 
         850     0.853332  0.000676945  4.79997e-05      3.98675 
         850         1.08  0.000662694  6.88983e-05      3.98675 
         850      1.33333  0.000645931   9.1291e-05      3.98675 
         850      1.61333  0.000589907  0.000112718      3.98675 
         850         1.92  0.000491864  0.000131684      3.98675 
         850      2.25333  0.000376641  0.000147959      3.98674 
         850      2.61333  0.000255547  0.000161044      3.98674 
         850            3  0.000129429  0.000170207      3.98674 
         900            0           -0           -0      2.74265 
         900     0.013333    6.689e-06  5.08761e-09      2.74265 
         900     0.053333  0.000280092   1.8415e-07      2.74265 
         900         0.12  0.000596441  1.58947e-06      2.74265 
         900     0.213332   0.00081374  6.83072e-06      2.74265 
         900     0.333332  0.000855596  1.92036e-05      2.74265 
         900         0.48  0.000756254  4.05659e-05      2.74265 
         900     0.653331  0.000613992  7.01722e-05      2.74265 
         900     0.853332  0.000502921  0.000105479      2.74265 
         900         1.08  0.000431752  0.000143508      2.74265 
         900      1.33333  0.000370367  0.000181889      2.74265 
         900      1.61333  0.000300974  0.000219309      2.74265 
         900         1.92  0.000229097  0.000255322      2.74265 
         900      2.25333  0.000153563  0.000288175      2.74265 
         900      2.61333   7.2874e-05  0.000316206      2.74264 
         900            3 -1.02032e-05  0.000337771      2.74264 
         950            0           -0           -0      1.49654 
         950     0.013333  -9.8251e-05  1.52039e-07      1.49654 
         950     0.053333 -0.000145305  2.26856e-06      1.49654 
         950         0.12 -0.000330767  1.01621e-05      1.49654 
         950     0.213332 -0.000659635  2.69369e-05      1.49654 
         950     0.333332  -0.00102621  5.25905e-05      1.49654 
         950         0.48  -0.00130771  8.43789e-05      1.49654 
         950     0.653331  -0.00145487  0.000119498      1.49654 
         950     0.853332  -0.00148233  0.000157189      1.49654 
         950         1.08  -0.00140788  0.000198544      1.49654 
         950      1.33333  -0.00124744  0.000244078      1.49654 
         950      1.61333  -0.00105377  0.000291523      1.49654 
         950         1.92 -0.000885104  0.000336764      1.49654 
         950      2.25333 -0.000727049  0.000377239      1.49655 
         950      2.61333 -0.000562443  0.000411047      1.49655 
         950            3 -0.000389987  0.000436408      1.49657 
        1000            0 -1.12403e-19  3.14887e-25     0.249528 
        1000     0.013333 -0.000120544  6.77207e-10     0.249528 
        1000     0.053333 -0.000177431  -7.3393e-09     0.249528 
        1000         0.12 -0.000255476 -6.11614e-08     0.249528 
        1000     0.213332 -0.000335624 -1.14582e-07     0.249528 
        1000     0.333332 -0.000410621  1.10422e-07     0.249528 
        1000         0.48 -0.000484083  9.02444e-07     0.249528 
        1000     0.653331  -0.00055752  2.08891e-06     0.249528 
        1000     0.853332 -0.000629174  2.96324e-06     0.249527 
        1000         1.08 -0.000696639  2.96472e-06     0.249527 
        1000      1.33333 -0.000741973  2.81621e-06     0.249527 
        1000      1.61333 -0.000730934  4.41624e-06     0.249527 
        1000         1.92 -0.000661203  8.77084e-06     0.249527 
        1000      2.25333 -0.000572873  1.49487e-05     0.249528 
        1000      2.61333 -0.000483158  2.19541e-05     0.249528 
        1000            3 -0.000388946   2.9269e-05      0.24953 
