Variables = x, y, u, v, p

Zone, I=416, F=POINT
         -50            0            0            0     -33.6472 
         -50     0.013333  0.000134593  2.73217e-08     -33.6472 
         -50     0.053333  9.67971e-05  2.59131e-07     -33.6472 
         -50         0.12  7.41968e-05  7.18634e-07     -33.6472 
         -50     0.213332  6.15804e-05  1.13392e-06     -33.6472 
         -50     0.333332  6.01119e-05  1.06462e-06     -33.6471 
         -50         0.48  6.43176e-05   6.6381e-07      -33.647 
         -50     0.653331  7.07372e-05 -1.93347e-07     -33.6469 
         -50     0.853332  8.19329e-05 -1.09013e-06     -33.6468 
         -50         1.08  9.66342e-05 -7.73462e-07     -33.6465 
         -50      1.33333  0.000109369 -9.61189e-07     -33.6462 
         -50      1.61333  0.000117598  -7.8068e-07     -33.6457 
         -50         1.92  0.000126328  5.66353e-07     -33.6452 
         -50      2.25333  0.000137186  3.31412e-06     -33.6444 
         -50      2.61333  0.000150675  9.98304e-06     -33.6435 
         -50            3  0.000161525   2.0456e-05     -33.6423 
         -25            0           -0           -0     -32.3099 
         -25     0.013333  9.76007e-05  2.61566e-09     -32.3099 
         -25     0.053333  6.91603e-05  1.52112e-08     -32.3099 
         -25         0.12  5.22456e-05  -5.9878e-08     -32.3099 
         -25     0.213332  4.08067e-05 -3.97199e-07     -32.3099 
         -25     0.333332  3.44776e-05 -1.17976e-06     -32.3099 
         -25         0.48  3.06212e-05  -2.4995e-06     -32.3099 
         -25     0.653331   2.7803e-05 -4.21905e-06     -32.3098 
         -25     0.853332  2.90615e-05 -6.05897e-06     -32.3098 
         -25         1.08  3.74895e-05 -7.72317e-06     -32.3097 
         -25      1.33333  5.04401e-05 -8.97757e-06     -32.3095 
         -25      1.61333  6.54305e-05 -9.60715e-06     -32.3094 
         -25         1.92  8.57337e-05 -9.41137e-06     -32.3092 
         -25      2.25333  0.000101632 -8.44665e-06     -32.3089 
         -25      2.61333  0.000107728 -7.46303e-06     -32.3085 
         -25            3  0.000107653 -6.69182e-06     -32.3081 
           0            0            0            0     -31.2055 
           0     0.013333  0.000357593 -0.000183739     -31.2063 
           0     0.053333  0.000165592 -9.39507e-05     -31.2085 
           0         0.12  0.000118167 -5.65361e-05     -31.2109 
           0     0.213332  0.000102326 -4.42507e-05     -31.2134 
           0     0.333332  9.65932e-05 -3.67257e-05     -31.2161 
           0         0.48  9.26743e-05  -3.1758e-05     -31.2187 
           0     0.653331  8.79745e-05 -2.85008e-05     -31.2213 
           0     0.853332   8.2469e-05 -2.63135e-05     -31.2239 
           0         1.08  7.80048e-05 -2.47024e-05     -31.2265 
           0      1.33333  7.57863e-05 -2.33665e-05     -31.2289 
           0      1.61333  7.64656e-05 -2.20126e-05     -31.2312 
           0         1.92  7.95108e-05  -2.0481e-05     -31.2334 
           0      2.25333  7.70357e-05 -1.93601e-05     -31.2355 
           0      2.61333  6.95566e-05 -1.69773e-05     -31.2375 
           0            3  7.24611e-05 -9.76937e-06     -31.2393 
          20            0            0            0     -30.5538 
          20     0.013333  0.000103853  -3.2401e-08     -30.5538 
          20     0.053333   0.00014158 -3.97983e-07     -30.5538 
          20         0.12  0.000194772 -1.23256e-06     -30.5538 
          20     0.213332  0.000218847 -1.55563e-06     -30.5538 
          20     0.333332  0.000197637 -6.28245e-07     -30.5538 
          20         0.48  0.000143904  1.17807e-06     -30.5537 
          20     0.653331  0.000104376  5.53893e-06     -30.5536 
          20     0.853332  9.10616e-05    1.319e-05     -30.5535 
          20         1.08   7.5286e-05  2.12255e-05     -30.5533 
          20      1.33333  5.60081e-05  2.82693e-05     -30.5531 
          20      1.61333  3.91539e-05  3.39244e-05     -30.5527 
          20         1.92   2.9011e-05  3.78142e-05     -30.5523 
          20      2.25333  2.85307e-05  3.97017e-05     -30.5518 
          20      2.61333  3.45627e-05  3.97288e-05     -30.5512 
          20            3  4.28895e-05  3.96775e-05     -30.5505 
          40            0  9.70943e-20 -7.56399e-25     -29.8485 
          40     0.013333  0.000112158  8.42351e-08     -29.8485 
          40     0.053333  0.000171632   1.3375e-06     -29.8485 
          40         0.12  0.000196007  6.35703e-06     -29.8485 
          40     0.213332  0.000151307  1.74719e-05     -29.8485 
          40     0.333332  8.54336e-05  3.47059e-05     -29.8485 
          40         0.48  5.48412e-05  5.65874e-05     -29.8485 
          40     0.653331  7.43866e-05  8.18049e-05     -29.8485 
          40     0.853332   0.00011169  0.000108111     -29.8485 
          40         1.08  0.000123637  0.000132118     -29.8484 
          40      1.33333  0.000107265  0.000150926     -29.8484 
          40      1.61333  8.22041e-05  0.000162743     -29.8484 
          40         1.92  6.02153e-05   0.00016641     -29.8483 
          40      2.25333  4.38107e-05  0.000161714     -29.8483 
          40      2.61333  3.72079e-05  0.000151094     -29.8482 
          40            3  4.18605e-05  0.000137343     -29.8481 
          60            0           -0           -0     -29.1874 
          60     0.013333  7.12546e-05   5.9118e-08     -29.1874 
          60     0.053333  4.88965e-05  8.09928e-07     -29.1874 
          60         0.12  1.75152e-05  3.15164e-06     -29.1874 
          60     0.213332 -1.45066e-05  6.99576e-06     -29.1874 
          60     0.333332 -3.08315e-05  1.14815e-05     -29.1874 
          60         0.48 -3.26381e-05  1.64885e-05     -29.1874 
          60     0.653331 -1.69003e-05  2.32893e-05     -29.1874 
          60     0.853332  2.99281e-05  3.33098e-05     -29.1874 
          60         1.08  8.33614e-05  4.50365e-05     -29.1874 
          60      1.33333   0.00010256  5.49984e-05     -29.1874 
          60      1.61333  0.000102947  6.18285e-05     -29.1874 
          60         1.92  0.000101568  6.54515e-05     -29.1873 
          60      2.25333  9.51776e-05  6.55557e-05     -29.1873 
          60      2.61333  7.95395e-05  6.18565e-05     -29.1872 
          60            3  5.91484e-05  5.60562e-05     -29.1872 
          80            0            0            0     -28.5477 
          80     0.013333   3.7217e-05 -3.33368e-08     -28.5477 
          80     0.053333 -4.29321e-05 -6.04395e-07     -28.5477 
          80         0.12 -8.63037e-05 -3.32724e-06     -28.5477 
          80     0.213332 -6.07005e-05 -1.03841e-05     -28.5477 
          80     0.333332  8.42497e-06 -2.27179e-05     -28.5477 
          80         0.48  6.64796e-05 -3.93208e-05     -28.5477 
          80     0.653331  8.57116e-05 -5.82353e-05     -28.5477 
          80     0.853332  8.43197e-05 -7.68869e-05     -28.5477 
          80         1.08  9.37371e-05 -9.28797e-05     -28.5477 
          80      1.33333  0.000104373 -0.000105609     -28.5477 
          80      1.61333  0.000104225 -0.000115054     -28.5476 
          80         1.92  0.000101102  -0.00011994     -28.5476 
          80      2.25333  9.51066e-05 -0.000119496     -28.5476 
          80      2.61333  8.55061e-05 -0.000114447     -28.5476 
          80            3  7.40088e-05 -0.000105886     -28.5475 
         100            0           -0           -0     -27.9212 
         100     0.013333  9.67505e-06 -7.44198e-09     -27.9212 
         100     0.053333 -0.000145492 -2.43944e-07     -27.9212 
         100         0.12 -0.000294317 -1.90905e-06     -27.9212 
         100     0.213332 -0.000368252 -7.36632e-06     -27.9212 
         100     0.333332 -0.000359674   -1.862e-05     -27.9212 
         100         0.48 -0.000318321 -3.59019e-05     -27.9212 
         100     0.653331 -0.000289254 -5.78407e-05     -27.9211 
         100     0.853332 -0.000268427 -8.16315e-05     -27.9211 
         100         1.08 -0.000220423 -0.000103936     -27.9211 
         100      1.33333 -0.000146623 -0.000122575     -27.9211 
         100      1.61333 -7.05269e-05 -0.000136964     -27.9211 
         100         1.92  7.12632e-06 -0.000145895     -27.9211 
         100      2.25333  7.87121e-05 -0.000147779     -27.9211 
         100      2.61333  0.000134477 -0.000143494     -27.9211 
         100            3  0.000166331 -0.000134657      -27.921 
         150            0           -0           -0     -26.3844 
         150     0.013333  6.32736e-05    8.658e-08     -26.3844 
         150     0.053333  1.96441e-05  1.27792e-06     -26.3844 
         150         0.12 -7.31254e-05   5.5873e-06     -26.3844 
         150     0.213332 -0.000205306  1.42197e-05     -26.3844 
         150     0.333332 -0.000321769  2.63586e-05     -26.3844 
         150         0.48 -0.000384035  4.01841e-05     -26.3844 
         150     0.653331 -0.000390087  5.46395e-05     -26.3844 
         150     0.853332  -0.00035141  6.95767e-05     -26.3844 
         150         1.08 -0.000285318  8.43363e-05     -26.3844 
         150      1.33333 -0.000210431  9.76904e-05     -26.3844 
         150      1.61333 -0.000132724  0.000108343     -26.3844 
         150         1.92 -5.17187e-05  0.000115198     -26.3844 
         150      2.25333  2.76645e-05  0.000117649     -26.3844 
         150      2.61333  9.34606e-05  0.000115346     -26.3843 
         150            3  0.000135558  0.000109247     -26.3843 
         200            0           -0           -0     -24.8655 
         200     0.013333  5.69776e-06   6.5504e-08     -24.8655 
         200     0.053333 -0.000174132  8.34132e-07     -24.8655 
         200         0.12 -0.000396912  2.81624e-06     -24.8655 
         200     0.213332 -0.000579689  4.71582e-06     -24.8655 
         200     0.333332 -0.000666905  3.98881e-06     -24.8655 
         200         0.48 -0.000676131 -9.20602e-07     -24.8655 
         200     0.653331 -0.000653353  -9.4346e-06     -24.8655 
         200     0.853332 -0.000608739 -1.90857e-05     -24.8655 
         200         1.08 -0.000519569 -2.72458e-05     -24.8655 
         200      1.33333  -0.00039325 -3.30682e-05     -24.8655 
         200      1.61333 -0.000260337 -3.75796e-05     -24.8655 
         200         1.92 -0.000124628 -4.10166e-05     -24.8655 
         200      2.25333  6.77568e-06 -4.25562e-05     -24.8655 
         200      2.61333  0.000119415  -4.2533e-05     -24.8654 
         200            3  0.000197481 -4.12169e-05     -24.8654 
         250            0            0            0     -23.3513 
         250     0.013333   0.00010767  4.64921e-08     -23.3513 
         250     0.053333   0.00018918  7.53664e-07     -23.3513 
         250         0.12  0.000261287  3.75245e-06     -23.3513 
         250     0.213332  0.000268181  1.10442e-05     -23.3513 
         250     0.333332  0.000219316   2.3686e-05     -23.3513 
         250         0.48  0.000161211  4.12708e-05     -23.3513 
         250     0.653331  0.000130434  6.26868e-05     -23.3513 
         250     0.853332  0.000132679   8.6638e-05     -23.3513 
         250         1.08   0.00014537  0.000111328     -23.3513 
         250      1.33333  0.000143968   0.00013464     -23.3513 
         250      1.61333  0.000128569  0.000154914     -23.3513 
         250         1.92  0.000109899  0.000170736     -23.3513 
         250      2.25333  9.04196e-05  0.000180538     -23.3513 
         250      2.61333  7.12316e-05  0.000183523     -23.3513 
         250            3  5.48357e-05  0.000179823     -23.3513 
         300            0           -0           -0     -21.8381 
         300     0.013333    5.401e-05  3.80361e-08     -21.8381 
         300     0.053333  1.81207e-06  5.36312e-07     -21.8381 
         300         0.12 -7.00886e-05  2.18341e-06     -21.8381 
         300     0.213332 -0.000146797  5.06339e-06     -21.8381 
         300     0.333332 -0.000200227  8.40679e-06     -21.8381 
         300         0.48 -0.000221503   1.1382e-05     -21.8381 
         300     0.653331 -0.000219444  1.39196e-05     -21.8381 
         300     0.853332 -0.000198825  1.66662e-05     -21.8381 
         300         1.08 -0.000160637  1.99936e-05     -21.8381 
         300      1.33333 -0.000117378  2.32837e-05     -21.8381 
         300      1.61333 -7.67651e-05  2.57492e-05     -21.8381 
         300         1.92 -3.25661e-05  2.72857e-05     -21.8381 
         300      2.25333  1.37966e-05  2.78624e-05     -21.8381 
         300      2.61333  5.73612e-05  2.73804e-05     -21.8381 
         300            3  9.35178e-05  2.59785e-05     -21.8381 
         350            0            0            0     -20.3238 
         350     0.013333  7.40521e-05 -5.79403e-08     -20.3238 
         350     0.053333   9.9595e-05 -8.58205e-07     -20.3238 
         350         0.12  0.000178946 -3.76657e-06     -20.3238 
         350     0.213332  0.000287701 -9.59495e-06     -20.3238 
         350     0.333332  0.000378511 -1.76764e-05     -20.3238 
         350         0.48  0.000419374 -2.65239e-05     -20.3238 
         350     0.653331  0.000412319 -3.52521e-05     -20.3238 
         350     0.853332  0.000373966 -4.38197e-05     -20.3238 
         350         1.08  0.000323654 -5.19505e-05     -20.3238 
         350      1.33333  0.000277813 -5.88626e-05     -20.3238 
         350      1.61333  0.000233819  -6.4191e-05     -20.3238 
         350         1.92  0.000184369 -6.78979e-05     -20.3238 
         350      2.25333  0.000131558 -6.96014e-05     -20.3239 
         350      2.61333  8.09856e-05 -6.90115e-05     -20.3239 
         350            3  3.95517e-05   -6.616e-05     -20.3239 
         400            0  4.92441e-20  5.75703e-27     -18.8085 
         400     0.013333  1.59842e-06  -8.8004e-08     -18.8085 
         400     0.053333 -0.000147461 -1.41842e-06     -18.8085 
         400         0.12 -0.000240081 -7.01001e-06     -18.8085 
         400     0.213332 -0.000203929 -2.04627e-05     -18.8085 
         400     0.333332 -7.14096e-05 -4.34342e-05     -18.8085 
         400         0.48  6.21935e-05 -7.46379e-05     -18.8085 
         400     0.653331   0.00012991 -0.000111524     -18.8085 
         400     0.853332   0.00012461 -0.000151863     -18.8085 
         400         1.08  8.50148e-05 -0.000193172     -18.8085 
         400      1.33333  6.29715e-05 -0.000232129     -18.8085 
         400      1.61333  6.78813e-05 -0.000266151     -18.8085 
         400         1.92  7.39273e-05 -0.000293776     -18.8085 
         400      2.25333  7.72174e-05 -0.000313177     -18.8085 
         400      2.61333  8.01228e-05 -0.000322428     -18.8085 
         400            3  8.28187e-05   -0.0003207     -18.8085 
         450            0            0            0     -17.2922 
         450     0.013333   1.7103e-05   1.3199e-07     -17.2922 
         450     0.053333 -0.000156082  1.87918e-06     -17.2922 
         450         0.12 -0.000432271  7.79984e-06     -17.2922 
         450     0.213332 -0.000740705  1.86472e-05     -17.2922 
         450     0.333332 -0.000969217  3.21683e-05     -17.2922 
         450         0.48  -0.00106751  4.51883e-05     -17.2922 
         450     0.653331  -0.00106503  5.64099e-05     -17.2922 
         450     0.853332  -0.00100133  6.69942e-05     -17.2922 
         450         1.08  -0.00088378   7.8924e-05     -17.2922 
         450      1.33333 -0.000723972  9.25068e-05     -17.2922 
         450      1.61333 -0.000557993  0.000105736     -17.2922 
         450         1.92 -0.000395299  0.000116658     -17.2922 
         450      2.25333 -0.000226155  0.000124522     -17.2922 
         450      2.61333  -5.6196e-05  0.000128676     -17.2922 
         450            3  9.72635e-05  0.000128749     -17.2922 
         500            0           -0           -0     -15.7738 
         500     0.013333  0.000161109 -8.71119e-08     -15.7738 
         500     0.053333  0.000419267 -1.16729e-06     -15.7738 
         500         0.12  0.000790053  -4.3389e-06     -15.7738 
         500     0.213332   0.00113639 -8.64417e-06     -15.7738 
         500     0.333332   0.00134484 -1.09234e-05     -15.7738 
         500         0.48   0.00140161 -8.26857e-06     -15.7738 
         500     0.653331   0.00137139 -1.66835e-07     -15.7738 
         500     0.853332   0.00130985  1.15025e-05     -15.7738 
         500         1.08    0.0012158  2.36877e-05     -15.7738 
         500      1.33333   0.00106802  3.39872e-05     -15.7738 
         500      1.61333  0.000881738  4.21347e-05     -15.7738 
         500         1.92  0.000684998  4.89542e-05     -15.7738 
         500      2.25333  0.000477316   5.4454e-05     -15.7738 
         500      2.61333  0.000264517  5.81514e-05     -15.7738 
         500            3  6.53189e-05  5.97027e-05     -15.7738 
         550            0            0            0     -14.2556 
         550     0.013333 -1.33663e-05  1.01387e-07     -14.2556 
         550     0.053333 -0.000259473  1.40961e-06     -14.2556 
         550         0.12 -0.000611643  5.61686e-06     -14.2556 
         550     0.213332 -0.000969691  1.26132e-05     -14.2556 
         550     0.333332  -0.00121745  1.97911e-05     -14.2556 
         550         0.48  -0.00131651   2.4084e-05     -14.2556 
         550     0.653331   -0.0013117  2.43482e-05     -14.2556 
         550     0.853332  -0.00125667  2.17978e-05     -14.2556 
         550         1.08    -0.001161  1.88606e-05     -14.2556 
         550      1.33333  -0.00101365  1.73764e-05     -14.2556 
         550      1.61333 -0.000829494  1.73718e-05     -14.2556 
         550         1.92 -0.000634411  1.75243e-05     -14.2556 
         550      2.25333 -0.000428149  1.76339e-05     -14.2556 
         550      2.61333 -0.000214428  1.75334e-05     -14.2555 
         550            3 -9.15567e-06  1.71076e-05     -14.2555 
         600            0           -0           -0     -12.7343 
         600     0.013333  0.000108066 -1.07606e-07     -12.7343 
         600     0.053333  0.000236592 -1.54041e-06     -12.7343 
         600         0.12  0.000473711 -6.46108e-06     -12.7343 
         600     0.213332  0.000752352  -1.5709e-05     -12.7343 
         600     0.333332  0.000976594 -2.77339e-05     -12.7343 
         600         0.48   0.00109496 -4.00472e-05     -12.7343 
         600     0.653331   0.00112319 -5.14304e-05     -12.7343 
         600     0.853332   0.00109341 -6.26206e-05     -12.7343 
         600         1.08   0.00101109 -7.53846e-05     -12.7343 
         600      1.33333  0.000877396 -9.05039e-05     -12.7343 
         600      1.61333  0.000723286 -0.000106627     -12.7343 
         600         1.92  0.000575618 -0.000121537     -12.7343 
         600      2.25333  0.000424325 -0.000133991     -12.7344 
         600      2.61333  0.000266201 -0.000143235     -12.7344 
         600            3  0.000111628 -0.000148615     -12.7344 
         650            0           -0           -0     -11.2124 
         650     0.013333  2.14593e-05  8.95686e-08     -11.2124 
         650     0.053333 -0.000130374  1.27286e-06     -11.2124 
         650         0.12 -0.000360113  5.25987e-06     -11.2124 
         650     0.213332 -0.000608298  1.24463e-05     -11.2124 
         650     0.333332 -0.000784267  2.10281e-05     -11.2124 
         650         0.48 -0.000847354  2.85036e-05     -11.2124 
         650     0.653331 -0.000825347  3.38378e-05     -11.2124 
         650     0.853332 -0.000760417   3.7952e-05     -11.2124 
         650         1.08 -0.000666922  4.25508e-05     -11.2124 
         650      1.33333 -0.000549419  4.83538e-05     -11.2124 
         650      1.61333 -0.000428285  5.44797e-05     -11.2124 
         650         1.92 -0.000316763  5.95742e-05     -11.2124 
         650      2.25333 -0.000203607  6.32549e-05     -11.2124 
         650      2.61333 -8.54968e-05  6.53139e-05     -11.2123 
         650            3  2.93284e-05  6.54995e-05     -11.2123 
         700            0  1.82241e-19  2.79681e-26     -9.68686 
         700     0.013333  0.000120467 -1.51866e-07     -9.68686 
         700     0.053333  0.000297349 -2.20121e-06     -9.68686 
         700         0.12   0.00063309 -9.40559e-06     -9.68686 
         700     0.213332    0.0010457  -2.3369e-05     -9.68686 
         700     0.333332   0.00139196 -4.21427e-05     -9.68686 
         700         0.48   0.00157881 -6.19126e-05     -9.68686 
         700     0.653331   0.00161751 -8.03539e-05     -9.68686 
         700     0.853332   0.00156081 -9.80377e-05     -9.68686 
         700         1.08   0.00143243  -0.00011713     -9.68686 
         700      1.33333    0.0012452 -0.000138457     -9.68686 
         700      1.61333   0.00104066 -0.000160153     -9.68686 
         700         1.92  0.000847767 -0.000179516     -9.68686 
         700      2.25333  0.000648996 -0.000195338     -9.68687 
         700      2.61333  0.000437276 -0.000206726     -9.68688 
         700            3  0.000224691 -0.000212742      -9.6869 
         750            0           -0           -0     -8.16021 
         750     0.013333  7.83507e-05  1.42038e-07     -8.16021 
         750     0.053333  5.69375e-05  2.12165e-06     -8.16021 
         750         0.12 -6.26647e-05  9.51223e-06     -8.16021 
         750     0.213332 -0.000297731  2.51832e-05     -8.16021 
         750     0.333332 -0.000558684  4.90091e-05     -8.16021 
         750         0.48 -0.000741953  7.83532e-05     -8.16021 
         750     0.653331 -0.000811723  0.000110742     -8.16021 
         750     0.853332 -0.000784844  0.000145649     -8.16021 
         750         1.08 -0.000681742  0.000183782     -8.16021 
         750      1.33333 -0.000532593  0.000224536     -8.16021 
         750      1.61333 -0.000393199  0.000264884     -8.16021 
         750         1.92 -0.000291324  0.000301233     -8.16021 
         750      2.25333 -0.000197433  0.000331979      -8.1602 
         750      2.61333 -9.65815e-05  0.000355335      -8.1602 
         750            3  4.76075e-06  0.000369535     -8.16019 
         800            0            0            0     -6.63038 
         800     0.013333   -8.466e-06  -9.2721e-08     -6.63038 
         800     0.053333 -0.000182555 -1.46736e-06     -6.63038 
         800         0.12 -0.000302991 -7.14334e-06     -6.63038 
         800     0.213332  -0.00027636 -2.07847e-05     -6.63038 
         800     0.333332 -0.000115525 -4.45118e-05     -6.63038 
         800         0.48  8.19639e-05 -7.76977e-05     -6.63038 
         800     0.653331  0.000224801 -0.000118057     -6.63038 
         800     0.853332  0.000277753 -0.000163544     -6.63038 
         800         1.08  0.000251729 -0.000212727     -6.63038 
         800      1.33333  0.000189866 -0.000263541     -6.63038 
         800      1.61333  0.000145265  -0.00031275     -6.63038 
         800         1.92  0.000131683 -0.000357654     -6.63038 
         800      2.25333  0.000124104 -0.000396429     -6.63038 
         800      2.61333  0.000111808 -0.000427082     -6.63038 
         800            3  9.79811e-05 -0.000447516     -6.63038 
         850            0            0            0     -5.09807 
         850     0.013333  0.000115117 -7.24024e-08     -5.09807 
         850     0.053333  0.000259075 -1.04903e-06     -5.09807 
         850         0.12  0.000513669 -4.49818e-06     -5.09807 
         850     0.213332  0.000821632 -1.12886e-05     -5.09807 
         850     0.333332   0.00109763 -2.06593e-05     -5.09807 
         850         0.48   0.00127856 -3.07023e-05     -5.09807 
         850     0.653331   0.00135887 -3.96724e-05     -5.09807 
         850     0.853332   0.00137135 -4.69446e-05     -5.09807 
         850         1.08   0.00134134 -5.31557e-05     -5.09807 
         850      1.33333    0.0012646 -5.97458e-05     -5.09807 
         850      1.61333   0.00113356 -6.77763e-05     -5.09807 
         850         1.92  0.000970166 -7.66647e-05     -5.09807 
         850      2.25333  0.000792314 -8.50155e-05     -5.09808 
         850      2.61333  0.000602456 -9.21887e-05     -5.09809 
         850            3  0.000401898 -9.77821e-05     -5.09809 
         900            0            0            0     -3.56378 
         900     0.013333  0.000188557 -8.57923e-08     -3.56378 
         900     0.053333  0.000528881 -1.18327e-06     -3.56378 
         900         0.12   0.00103083 -4.62698e-06     -3.56378 
         900     0.213332   0.00153678 -9.92119e-06     -3.56378 
         900     0.333332   0.00188688 -1.39286e-05     -3.56378 
         900         0.48   0.00201845 -1.27945e-05     -3.56378 
         900     0.653331   0.00198715 -4.67029e-06     -3.56378 
         900     0.853332    0.0018859  9.51476e-06     -3.56378 
         900         1.08   0.00176208  2.70584e-05     -3.56378 
         900      1.33333   0.00161276  4.55642e-05     -3.56378 
         900      1.61333   0.00143138  6.37024e-05     -3.56379 
         900         1.92   0.00122585  8.11464e-05     -3.56379 
         900      2.25333  0.000999251   9.7759e-05      -3.5638 
         900      2.61333   0.00075244  0.000112616     -3.56381 
         900            3  0.000491523   0.00012481     -3.56382 
         950            0            0            0     -2.02843 
         950     0.013333   0.00021648  9.08638e-08     -2.02843 
         950     0.053333  0.000571497  1.49699e-06     -2.02843 
         950         0.12    0.0009418  7.67488e-06     -2.02843 
         950     0.213332   0.00112303  2.35965e-05     -2.02843 
         950     0.333332   0.00106009   5.3277e-05     -2.02843 
         950         0.48   0.00085264  9.75063e-05     -2.02843 
         950     0.653331  0.000646078  0.000154171     -2.02843 
         950     0.853332  0.000531185  0.000220386     -2.02843 
         950         1.08  0.000520366  0.000293543     -2.02843 
         950      1.33333  0.000558781  0.000370256     -2.02843 
         950      1.61333  0.000564474  0.000445869     -2.02843 
         950         1.92  0.000505343  0.000516376     -2.02843 
         950      2.25333  0.000420725  0.000579612     -2.02843 
         950      2.61333  0.000331597  0.000632829     -2.02844 
         950            3  0.000237835  0.000672762     -2.02844 
        1000            0            0            0    -0.491997 
        1000     0.013333  9.71146e-05  1.00451e-07    -0.491997 
        1000     0.053333  0.000141529   1.4509e-06    -0.491997 
        1000         0.12  0.000137958   6.5906e-06    -0.491997 
        1000     0.213332  3.09418e-05  1.79917e-05    -0.491997 
        1000     0.333332 -0.000155946  3.66177e-05    -0.491997 
        1000         0.48 -0.000353115  6.15509e-05    -0.491997 
        1000     0.653331  -0.00050131  9.09971e-05    -0.491998 
        1000     0.853332 -0.000578286  0.000123813    -0.491998 
        1000         1.08 -0.000584102  0.000159711    -0.491998 
        1000      1.33333 -0.000524299  0.000198759    -0.491999 
        1000      1.61333 -0.000420177  0.000240158    -0.491999 
        1000         1.92 -0.000316929  0.000281365    -0.491998 
        1000      2.25333 -0.000227705  0.000319616    -0.491996 
        1000      2.61333 -0.000143321  0.000352738    -0.491994 
        1000            3 -5.46545e-05  0.000378929     -0.49199 
