Variables = x, y, u, v, p

Zone, I=800, F=POINT
         -25            0 -3.79432e-20  -1.1507e-23     -88.7981 
         -25     0.000234 -1.87131e-06 -5.78164e-10     -88.7981 
         -25     0.000939 -6.95165e-06 -2.27541e-09     -88.7981 
         -25     0.002113 -1.37193e-05 -4.97212e-09     -88.7981 
         -25     0.003759 -2.01838e-05 -8.54335e-09     -88.7981 
         -25     0.005872 -2.44426e-05 -1.29053e-08     -88.7981 
         -25     0.008457 -2.53453e-05 -1.81341e-08     -88.7981 
         -25      0.01151 -2.28484e-05 -2.44902e-08     -88.7981 
         -25     0.015036 -1.80755e-05 -3.24899e-08     -88.7981 
         -25     0.019031 -1.29593e-05 -4.28576e-08     -88.7981 
         -25     0.023493 -9.50555e-06 -5.64947e-08     -88.7981 
         -25     0.028429 -8.92918e-06 -7.44294e-08     -88.7981 
         -25     0.033831 -1.10017e-05 -9.76509e-08     -88.7981 
         -25     0.039706 -1.39726e-05 -1.27162e-07     -88.7981 
         -25     0.046047 -1.53874e-05  -1.6385e-07     -88.7981 
         -25     0.052863  -1.3779e-05 -2.08683e-07     -88.7981 
         -25      0.06015 -1.04915e-05 -2.62594e-07     -88.7981 
         -25       0.0679 -9.74093e-06 -3.26392e-07     -88.7981 
         -25     0.076126 -1.30926e-05 -4.00426e-07     -88.7981 
         -25     0.084816 -7.20799e-06 -4.83543e-07     -88.7981 
         -25     0.093982 -7.64403e-06  -5.8014e-07     -88.7981 
         -25     0.103611 -6.54086e-06 -6.88775e-07     -88.7981 
         -25     0.113718 -4.62197e-06 -8.10085e-07     -88.7981 
         -25     0.124286 -2.41086e-06 -9.44268e-07     -88.7981 
         -25     0.135333 -1.97423e-07 -1.09187e-06     -88.7981 
         -25      0.14685  1.93316e-06 -1.25301e-06     -88.7981 
         -25     0.158827  4.04958e-06 -1.42766e-06     -88.7981 
         -25     0.171284  6.28969e-06 -1.61609e-06     -88.7981 
         -25     0.184201  8.74307e-06 -1.81786e-06     -88.7981 
         -25     0.197599   1.1378e-05 -2.03303e-06     -88.7981 
         -25     0.211455  1.40053e-05 -2.26085e-06     -88.7981 
         -25     0.225792  1.64171e-05 -2.50131e-06     -88.7981 
         -25       0.2406  1.87397e-05 -2.75395e-06     -88.7981 
         -25     0.255865  2.14916e-05 -3.01821e-06     -88.7981 
         -25     0.271613  2.38841e-05 -3.29266e-06     -88.7981 
         -25     0.287818  2.62627e-05 -3.57615e-06     -88.7981 
         -25     0.304506  2.85995e-05 -3.86848e-06     -88.7981 
         -25      0.32165  3.08642e-05 -4.16845e-06     -88.7981 
         -25     0.339278  3.30394e-05 -4.47586e-06     -88.7981 
         -25     0.357377  3.51073e-05 -4.78988e-06     -88.7981 
         -25      0.37593   3.7055e-05 -5.10985e-06     -88.7981 
         -25     0.394968  3.88777e-05 -5.43623e-06     -88.7981 
         -25     0.414461  4.05675e-05  -5.7688e-06      -88.798 
         -25      0.43444  4.21227e-05 -6.10884e-06      -88.798 
         -25     0.454872  4.35365e-05 -6.45692e-06      -88.798 
         -25     0.475791  4.48055e-05 -6.81506e-06      -88.798 
         -25     0.497163    4.592e-05 -7.18419e-06      -88.798 
         -25     0.519021  4.68727e-05 -7.56609e-06      -88.798 
         -25      0.54135  4.76533e-05 -7.96079e-06      -88.798 
         -25     0.564131  4.82557e-05 -8.36649e-06      -88.798 
         -25       0.5874  4.86845e-05 -8.77937e-06     -88.7979 
         -25     0.611121  4.89584e-05 -9.19022e-06     -88.7979 
         -25      0.63533  4.90446e-05 -9.60385e-06     -88.7979 
         -25      0.65999  4.89495e-05 -1.00221e-05     -88.7979 
         -25     0.685139   4.8679e-05 -1.04458e-05     -88.7979 
         -25     0.710759  4.82407e-05 -1.08748e-05     -88.7979 
         -25     0.736828   4.7644e-05 -1.13081e-05     -88.7978 
         -25     0.763387  4.68981e-05 -1.17458e-05     -88.7978 
         -25     0.790396  4.60151e-05 -1.21864e-05     -88.7978 
         -25     0.817896  4.50055e-05 -1.26293e-05     -88.7978 
         -25     0.845843  4.38832e-05 -1.30724e-05     -88.7977 
         -25     0.874283  4.26589e-05  -1.3515e-05     -88.7977 
         -25      0.90317  4.13469e-05 -1.39549e-05     -88.7977 
         -25     0.932551  3.99572e-05 -1.43911e-05     -88.7976 
         -25     0.962401  3.85023e-05 -1.48219e-05     -88.7976 
         -25     0.992697  3.69935e-05 -1.52454e-05     -88.7976 
         -25      1.02349  3.54376e-05 -1.56613e-05     -88.7975 
         -25      1.05472  3.38445e-05 -1.60678e-05     -88.7975 
         -25      1.08645  3.22171e-05  -1.6465e-05     -88.7975 
         -25      1.11863  3.05617e-05 -1.68518e-05     -88.7974 
         -25       1.1513   2.8877e-05 -1.72286e-05     -88.7974 
         -25      1.18444  2.71638e-05 -1.75953e-05     -88.7973 
         -25      1.21802  2.54209e-05 -1.79517e-05     -88.7973 
         -25      1.25211  2.36414e-05 -1.82985e-05     -88.7973 
         -25      1.28663  2.18229e-05 -1.86351e-05     -88.7972 
         -25      1.32165  1.99565e-05 -1.89614e-05     -88.7972 
         -25      1.35712  1.80404e-05 -1.92753e-05     -88.7971 
         -25      1.39308  1.60682e-05 -1.95741e-05      -88.797 
         -25      1.42951  1.40418e-05 -1.98524e-05      -88.797 
         -25      1.46638  1.19693e-05 -2.01018e-05     -88.7969 
         -25      1.50375  9.86191e-06 -2.03109e-05     -88.7969 
         -25      1.54156  7.92317e-06 -2.04546e-05     -88.7968 
         -25      1.57987  5.83826e-06   -2.063e-05     -88.7967 
         -25      1.61863  3.65375e-06 -2.08237e-05     -88.7967 
         -25      1.65788   1.4243e-06 -2.10208e-05     -88.7966 
         -25      1.69757 -7.94627e-07 -2.12075e-05     -88.7965 
         -25      1.73776 -2.96134e-06 -2.13728e-05     -88.7964 
         -25      1.77842 -5.03536e-06 -2.15074e-05     -88.7964 
         -25      1.81952 -6.98303e-06 -2.16041e-05     -88.7963 
         -25      1.86113 -8.78217e-06 -2.16581e-05     -88.7962 
         -25      1.90316  -1.0411e-05 -2.16663e-05     -88.7961 
         -25      1.94571 -1.18596e-05 -2.16278e-05      -88.796 
         -25      1.98869 -1.31193e-05 -2.15435e-05     -88.7959 
         -25      2.03217 -1.41915e-05 -2.14159e-05     -88.7958 
         -25      2.07612 -1.50797e-05  -2.1249e-05     -88.7957 
         -25      2.12051 -1.57931e-05 -2.10488e-05     -88.7956 
         -25       2.1654 -1.63468e-05 -2.08216e-05     -88.7955 
         -25      2.21073 -1.67574e-05 -2.05755e-05     -88.7954 
         -25      2.25656 -1.70464e-05 -2.03187e-05     -88.7953 
         -25      2.30283 -1.72364e-05 -2.00606e-05     -88.7952 
         -25       2.3496 -1.73522e-05 -1.98101e-05      -88.795 
         -25      2.39685  -1.7419e-05 -1.95766e-05     -88.7949 
         -25      2.44452 -1.74621e-05 -1.93692e-05     -88.7948 
         -25      2.49271  -1.7506e-05  -1.9196e-05     -88.7947 
         -25      2.54132 -1.75731e-05 -1.90646e-05     -88.7945 
         -25      2.59044 -1.76838e-05 -1.89813e-05     -88.7944 
         -25         2.64 -1.78547e-05 -1.89511e-05     -88.7942 
         -25      2.69006 -1.80987e-05 -1.89773e-05     -88.7941 
         -25      2.74056 -1.84237e-05 -1.90614e-05     -88.7939 
         -25      2.79156 -1.88332e-05  -1.9203e-05     -88.7938 
         -25      2.84304 -1.93245e-05 -1.93996e-05     -88.7936 
         -25      2.89494 -1.98889e-05 -1.96463e-05     -88.7934 
         -25      2.94735 -2.05135e-05 -1.99366e-05     -88.7933 
         -25       3.0002  -2.1178e-05 -2.02612e-05     -88.7931 
         -25      3.05355 -2.18593e-05 -2.06102e-05     -88.7929 
         -25      3.10733 -2.25283e-05 -2.09708e-05     -88.7927 
         -25      3.16163 -2.31551e-05 -2.13304e-05     -88.7925 
         -25      3.21639 -2.37074e-05 -2.16751e-05     -88.7923 
         -25      3.27158 -2.41542e-05 -2.19914e-05     -88.7921 
         -25      3.32729 -2.44693e-05 -2.22678e-05     -88.7919 
         -25      3.38342 -2.46328e-05  -2.2494e-05     -88.7917 
         -25      3.44007 -2.46367e-05 -2.26647e-05     -88.7915 
         -25      3.49714  -2.4489e-05 -2.27791e-05     -88.7913 
         -25      3.55472  -2.4219e-05 -2.28442e-05     -88.7911 
         -25      3.61273 -2.38852e-05 -2.28764e-05     -88.7908 
         -25      3.67125 -2.35811e-05 -2.29044e-05     -88.7906 
         -25      3.73025 -2.34454e-05 -2.29717e-05     -88.7904 
         -25      3.78967 -2.35385e-05 -2.30424e-05     -88.7901 
         -25      3.84961 -2.36306e-05 -2.31156e-05     -88.7899 
         -25      3.90996 -2.36902e-05 -2.31863e-05     -88.7896 
         -25      3.97084 -2.37037e-05 -2.32261e-05     -88.7893 
         -25      4.03214 -2.36648e-05 -2.32187e-05      -88.789 
         -25      4.09395 -2.35727e-05 -2.31584e-05     -88.7888 
         -25      4.15624 -2.34315e-05 -2.30474e-05     -88.7885 
         -25      4.21895 -2.32491e-05 -2.28944e-05     -88.7882 
         -25      4.28217 -2.30353e-05 -2.27118e-05     -88.7879 
         -25      4.34582 -2.28017e-05 -2.25145e-05     -88.7876 
         -25      4.40998 -2.25595e-05 -2.23173e-05     -88.7873 
         -25      4.47457 -2.23199e-05 -2.21342e-05      -88.787 
         -25      4.53968 -2.20916e-05 -2.19756e-05     -88.7866 
         -25      4.60525 -2.18817e-05 -2.18489e-05     -88.7863 
         -25      4.67125 -2.16938e-05 -2.17562e-05     -88.7859 
         -25      4.73777  -2.1528e-05 -2.16943e-05     -88.7856 
         -25       4.8047  -2.1381e-05 -2.16555e-05     -88.7852 
         -25      4.87216 -2.12456e-05 -2.16268e-05     -88.7849 
         -25      4.94003 -2.11117e-05 -2.15924e-05     -88.7845 
         -25      5.00843 -2.09662e-05 -2.15348e-05     -88.7841 
         -25      5.07724 -2.07947e-05 -2.14377e-05     -88.7837 
         -25      5.14658 -2.05826e-05 -2.12896e-05     -88.7834 
         -25      5.21639 -2.03173e-05 -2.10881e-05     -88.7829 
         -25      5.28661 -1.99908e-05 -2.08461e-05     -88.7825 
         -25      5.35736 -1.96019e-05 -2.05975e-05     -88.7821 
         -25      5.42852 -1.93174e-05 -2.05297e-05     -88.7817 
         -25      5.50021 -1.93389e-05 -2.09026e-05     -88.7813 
         -25      5.57231 -1.95884e-05 -2.17106e-05     -88.7808 
         -25      5.64493 -1.98845e-05 -2.15935e-05     -88.7804 
         -25      5.71803 -1.98443e-05 -2.01598e-05     -88.7799 
         -25      5.79154 -1.97305e-05  -1.9303e-05     -88.7794 
         -25      5.86558 -1.95711e-05 -1.88497e-05     -88.7789 
         -25      5.94003 -1.93871e-05 -1.86617e-05     -88.7785 
         -25      6.01501 -1.91922e-05 -1.86296e-05      -88.778 
         -25       6.0904 -1.89957e-05 -1.86705e-05     -88.7775 
         -25      6.16632 -1.88019e-05 -1.87246e-05     -88.7769 
         -25      6.24271 -1.86128e-05 -1.87514e-05     -88.7764 
         -25       6.3195 -1.85204e-05 -1.87722e-05     -88.7759 
         -25      6.39683 -1.85324e-05 -1.87225e-05     -88.7753 
         -25      6.47457 -1.85054e-05 -1.85427e-05     -88.7748 
         -25      6.55284 -1.84367e-05 -1.82809e-05     -88.7742 
         -25      6.63152 -1.83267e-05 -1.79874e-05     -88.7736 
         -25      6.71073 -1.81788e-05 -1.77072e-05      -88.773 
         -25      6.79034 -1.79998e-05 -1.74768e-05     -88.7724 
         -25      6.87049 -1.77991e-05 -1.73185e-05     -88.7718 
         -25      6.95111 -1.75892e-05 -1.72394e-05     -88.7712 
         -25      7.03214 -1.73848e-05 -1.72296e-05     -88.7706 
         -25       7.1137 -1.72011e-05 -1.72631e-05       -88.77 
         -25      7.19566 -1.70542e-05 -1.73006e-05     -88.7693 
         -25      7.27816 -1.69582e-05 -1.72942e-05     -88.7686 
         -25      7.36106 -1.69244e-05 -1.71951e-05      -88.768 
         -25      7.44451 -1.69583e-05 -1.69628e-05     -88.7673 
         -25      7.52842 -1.70579e-05 -1.65787e-05     -88.7666 
         -25      7.61273 -1.72094e-05 -1.60624e-05     -88.7659 
         -25      7.69758 -1.73851e-05 -1.54898e-05     -88.7652 
         -25      7.78283 -1.75381e-05 -1.50191e-05     -88.7644 
         -25      7.86862 -1.75308e-05 -1.52938e-05     -88.7637 
         -25      7.95481 -1.74316e-05 -1.57567e-05     -88.7629 
         -25      8.04155 -1.73878e-05 -1.48144e-05     -88.7622 
         -25      8.12868 -1.73205e-05 -1.35791e-05     -88.7614 
         -25      8.21635 -1.71347e-05 -1.47758e-05     -88.7606 
         -25      8.30449 -1.69335e-05 -1.54143e-05     -88.7598 
         -25      8.39303 -1.67453e-05 -1.55921e-05      -88.759 
         -25      8.48211 -1.65904e-05 -1.54033e-05     -88.7581 
         -25      8.57159 -1.64822e-05 -1.49368e-05     -88.7573 
         -25      8.66161 -1.64257e-05 -1.42749e-05     -88.7564 
         -25      8.75203 -1.64185e-05 -1.34947e-05     -88.7556 
         -25      8.84299 -1.63379e-05 -1.34631e-05     -88.7547 
         -25      8.93443  -1.6191e-05 -1.38202e-05     -88.7538 
         -25      9.02626 -1.60331e-05 -1.41689e-05     -88.7529 
         -25      9.11863 -1.58733e-05 -1.44962e-05      -88.752 
         -25      9.21139   -1.572e-05 -1.47918e-05      -88.751 
         -25      9.30471 -1.55794e-05 -1.50491e-05     -88.7501 
         -25      9.39841 -1.54564e-05 -1.52628e-05     -88.7491 
         -25      9.49267  -1.5354e-05 -1.54303e-05     -88.7481 
         -25      9.58739 -1.52731e-05 -1.55501e-05     -88.7471 
         -25      9.68251 -1.52131e-05 -1.56216e-05     -88.7461 
         -25      9.77817 -1.51709e-05 -1.56456e-05     -88.7451 
         -25      9.87422  -1.5142e-05 -1.56233e-05      -88.744 
         -25      9.97083 -1.51196e-05 -1.55567e-05      -88.743 
         -25      10.0678 -1.50958e-05  -1.5449e-05     -88.7419 
         -25      10.1654 -1.50609e-05  -1.5304e-05     -88.7408 
         -25      10.2633 -1.50043e-05 -1.51278e-05     -88.7397 
         -25      10.3618 -1.49147e-05 -1.49281e-05     -88.7386 
         -25      10.4607 -1.47806e-05  -1.4716e-05     -88.7375 
         -25      10.5601 -1.45909e-05 -1.45066e-05     -88.7363 
         -25        10.66 -1.43351e-05 -1.43199e-05     -88.7352 
         -25      10.7603 -1.40051e-05 -1.41831e-05      -88.734 
         -25      10.8611 -1.35948e-05 -1.41313e-05     -88.7328 
         -25      10.9623 -1.31024e-05 -1.42104e-05     -88.7316 
         -25      11.0641   -1.253e-05 -1.44791e-05     -88.7304 
         -25      11.1663 -1.23699e-05 -1.46076e-05     -88.7291 
         -25       11.269 -1.29014e-05 -1.42438e-05     -88.7278 
         -25      11.3721 -1.32665e-05 -1.40204e-05     -88.7266 
         -25      11.4757 -1.35006e-05 -1.39052e-05     -88.7253 
         -25      11.5798 -1.36384e-05 -1.38685e-05      -88.724 
         -25      11.6844 -1.37114e-05 -1.38845e-05     -88.7226 
         -25      11.7894 -1.37475e-05 -1.39313e-05     -88.7213 
         -25       11.895 -1.37698e-05 -1.39907e-05     -88.7199 
         -25      12.0009 -1.37958e-05 -1.40482e-05     -88.7185 
         -25      12.1073  -1.3836e-05 -1.40933e-05     -88.7171 
         -25      12.2142 -1.38932e-05 -1.41185e-05     -88.7157 
         -25      12.3216 -1.39618e-05 -1.41196e-05     -88.7143 
         -25      12.4294 -1.40266e-05  -1.4095e-05     -88.7128 
         -25      12.5378 -1.40623e-05 -1.40449e-05     -88.7113 
         -25      12.6465 -1.40327e-05 -1.39705e-05     -88.7098 
         -25      12.7558 -1.38763e-05 -1.38513e-05     -88.7083 
         -25      12.8656 -1.36676e-05 -1.37055e-05     -88.7068 
         -25      12.9757 -1.34914e-05 -1.35928e-05     -88.7052 
         -25      13.0864 -1.33446e-05 -1.35072e-05     -88.7037 
         -25      13.1975 -1.32222e-05 -1.34421e-05     -88.7021 
         -25      13.3092 -1.31169e-05 -1.33903e-05     -88.7005 
         -25      13.4212  -1.3021e-05 -1.33452e-05     -88.6988 
         -25      13.5338 -1.29257e-05 -1.33008e-05     -88.6972 
         -25      13.6468  -1.2823e-05 -1.32519e-05     -88.6955 
         -25      13.7603 -1.27064e-05 -1.31943e-05     -88.6938 
         -25      13.8743  -1.2571e-05 -1.31242e-05     -88.6921 
         -25      13.9886 -1.24159e-05 -1.30377e-05     -88.6904 
         -25      14.1036 -1.22444e-05 -1.29298e-05     -88.6886 
         -25      14.2189 -1.20657e-05 -1.27933e-05     -88.6869 
         -25      14.3348 -1.18961e-05 -1.26169e-05     -88.6851 
         -25       14.451  -1.1761e-05 -1.23836e-05     -88.6833 
         -25      14.5678 -1.16957e-05 -1.20678e-05     -88.6814 
         -25      14.6851 -1.14787e-05 -1.20489e-05     -88.6796 
         -25      14.8028 -1.12264e-05 -1.21875e-05     -88.6777 
         -25       14.921 -1.10299e-05 -1.23194e-05     -88.6758 
         -25      15.0396 -1.08875e-05  -1.2423e-05     -88.6739 
         -25      15.1588 -1.07947e-05 -1.24851e-05      -88.672 
         -25      15.2783 -1.07461e-05 -1.24987e-05       -88.67 
         -25      15.3984 -1.07347e-05 -1.24627e-05      -88.668 
         -25       15.519 -1.07528e-05 -1.23803e-05      -88.666 
         -25        15.64 -1.07926e-05 -1.22584e-05      -88.664 
         -25      15.7615 -1.08464e-05 -1.21063e-05     -88.6619 
         -25      15.8834 -1.09067e-05 -1.19351e-05     -88.6599 
         -25      16.0058  -1.0967e-05 -1.17562e-05     -88.6578 
         -25      16.1286 -1.10215e-05 -1.15814e-05     -88.6556 
         -25       16.252 -1.10659e-05 -1.14208e-05     -88.6535 
         -25      16.3759 -1.10971e-05 -1.12834e-05     -88.6513 
         -25      16.5002 -1.11136e-05 -1.11754e-05     -88.6491 
         -25       16.625 -1.11152e-05 -1.11002e-05     -88.6469 
         -25      16.7501 -1.11034e-05 -1.10576e-05     -88.6447 
         -25      16.8759  -1.1081e-05 -1.10435e-05     -88.6424 
         -25       17.002 -1.10523e-05 -1.10497e-05     -88.6402 
         -25      17.1287 -1.10221e-05 -1.10636e-05     -88.6378 
         -25      17.2557 -1.09962e-05 -1.10681e-05     -88.6355 
         -25      17.3834 -1.09806e-05 -1.10417e-05     -88.6332 
         -25      17.5115 -1.09808e-05 -1.09588e-05     -88.6308 
         -25      17.6399 -1.10014e-05 -1.07901e-05     -88.6284 
         -25       17.769 -1.10454e-05 -1.05028e-05      -88.626 
         -25      17.8984 -1.12225e-05 -1.01942e-05     -88.6235 
         -25      18.0284  -1.1386e-05 -9.92779e-06      -88.621 
         -25      18.1587   -1.139e-05 -9.63641e-06     -88.6185 
         -25      18.2896 -1.12481e-05 -9.36095e-06      -88.616 
         -25       18.421 -1.09859e-05  -9.1505e-06     -88.6134 
         -25      18.5528 -1.06434e-05 -9.06285e-06     -88.6109 
         -25      18.6851 -1.02754e-05 -9.16615e-06     -88.6083 
         -25      18.8178  -9.9561e-06 -9.54081e-06     -88.6056 
         -25      18.9511 -9.89074e-06 -9.70583e-06      -88.603 
         -25      19.0847 -9.75588e-06 -9.59824e-06     -88.6003 
         -25      19.2189 -9.48719e-06 -9.37777e-06     -88.5976 
         -25      19.3535 -9.11319e-06 -9.05639e-06     -88.5949 
         -25      19.4886 -8.65994e-06 -8.64035e-06     -88.5921 
         -25      19.6242 -8.61745e-06  -8.3804e-06     -88.5893 
         -25      19.7602 -9.25733e-06 -8.50054e-06     -88.5865 
         -25      19.8968 -9.72058e-06 -8.56333e-06     -88.5837 
         -25      20.0337 -1.00288e-05 -8.56243e-06     -88.5808 
         -25      20.1712 -1.02063e-05 -8.49799e-06     -88.5779 
         -25      20.3091 -1.02775e-05 -8.37525e-06      -88.575 
         -25      20.4475 -1.02668e-05 -8.20272e-06      -88.572 
         -25      20.5864 -1.01979e-05 -7.99156e-06     -88.5691 
         -25      20.7257 -1.00929e-05  -7.7542e-06     -88.5661 
         -25      20.8655 -9.97157e-06 -7.50263e-06      -88.563 
         -25      21.0058 -9.85147e-06 -7.24882e-06       -88.56 
         -25      21.1465 -9.74661e-06 -7.00243e-06     -88.5569 
         -25      21.2877 -9.66801e-06 -6.77173e-06     -88.5538 
         -25      21.4294 -9.62274e-06 -6.56166e-06     -88.5507 
         -25      21.5716 -9.61433e-06 -6.37487e-06     -88.5475 
         -25      21.7142 -9.64247e-06 -6.21102e-06     -88.5443 
         -25      21.8573 -9.70329e-06 -6.06662e-06     -88.5411 
         -25      22.0008 -9.78943e-06 -5.93624e-06     -88.5378 
         -25      22.1449 -9.89085e-06 -5.81225e-06     -88.5346 
         -25      22.2893 -9.99482e-06 -5.68646e-06     -88.5313 
         -25      22.4344 -1.00873e-05 -5.55047e-06     -88.5279 
         -25      22.5797 -1.01533e-05 -5.39793e-06     -88.5246 
         -25      22.7257 -1.01782e-05 -5.22532e-06     -88.5212 
         -25      22.8721 -1.01491e-05 -5.03487e-06     -88.5177 
         -25      23.0189 -1.00563e-05  -4.8366e-06     -88.5143 
         -25      23.1663 -9.89482e-06 -4.65053e-06     -88.5108 
         -25       23.314 -9.66667e-06 -4.51089e-06     -88.5073 
         -25      23.4623 -9.38237e-06 -4.46851e-06     -88.5038 
         -25       23.611 -9.06462e-06 -4.59552e-06     -88.5002 
         -25      23.7602 -8.97848e-06 -4.57383e-06     -88.4966 
         -25        23.91   -9.143e-06 -4.27005e-06      -88.493 
         -25        24.06 -9.26794e-06 -4.10044e-06     -88.4893 
         -25      24.2107  -9.3562e-06 -4.02487e-06     -88.4857 
         -25      24.3617 -9.41066e-06 -4.01063e-06     -88.4819 
         -25      24.5133 -9.43482e-06 -4.03129e-06     -88.4782 
         -25      24.6653 -9.43233e-06  -4.0663e-06     -88.4744 
         -25      24.8178 -9.40716e-06  -4.1005e-06     -88.4706 
         -25      24.9708 -9.36353e-06 -4.12341e-06     -88.4668 
         -25      25.1242 -9.30586e-06 -4.12872e-06     -88.4629 
         -25      25.2781 -9.23855e-06 -4.11375e-06      -88.459 
         -25      25.4324 -9.16624e-06 -4.07884e-06     -88.4551 
         -25      25.5873 -9.09334e-06 -4.02671e-06     -88.4512 
         -25      25.7426 -9.02435e-06 -3.96208e-06     -88.4472 
         -25      25.8984 -8.96338e-06  -3.8908e-06     -88.4432 
         -25      26.0546 -8.91441e-06 -3.81966e-06     -88.4391 
         -25      26.2114 -8.88085e-06 -3.75544e-06      -88.435 
         -25      26.3686 -8.86571e-06 -3.70473e-06     -88.4309 
         -25      26.5262 -8.87126e-06 -3.67317e-06     -88.4268 
         -25      26.6844 -8.89901e-06 -3.66491e-06     -88.4226 
         -25      26.8429 -8.94945e-06 -3.68225e-06     -88.4184 
         -25       27.002 -9.02209e-06 -3.72505e-06     -88.4142 
         -25      27.1615 -9.11494e-06 -3.79019e-06       -88.41 
         -25      27.3216  -9.2248e-06 -3.87133e-06     -88.4057 
         -25      27.4821 -9.34657e-06 -3.95817e-06     -88.4014 
         -25       27.643 -9.47323e-06 -4.03618e-06      -88.397 
         -25      27.8044 -9.59595e-06  -4.0864e-06     -88.3926 
         -25      27.9663 -9.70312e-06  -4.0847e-06     -88.3882 
         -25      28.1287 -9.78092e-06 -4.00168e-06     -88.3838 
         -25      28.2914  -9.8123e-06 -3.80252e-06     -88.3793 
         -25      28.4548 -9.77723e-06   -3.446e-06     -88.3748 
         -25      28.6185  -9.6522e-06 -2.88575e-06     -88.3702 
         -25      28.7828 -9.30721e-06 -2.59402e-06     -88.3657 
         -25      28.9475 -8.71556e-06 -3.19195e-06     -88.3611 
         -25      29.1126 -8.13141e-06 -3.80628e-06     -88.3564 
         -25      29.2784 -8.31808e-06 -4.59267e-06     -88.3518 
         -25      29.4444 -8.24854e-06 -4.57982e-06     -88.3471 
         -25       29.611 -8.79786e-06 -4.29136e-06     -88.3424 
         -25       29.778 -9.45099e-06 -4.14689e-06     -88.3376 
         -25      29.9456 -9.81491e-06 -4.05764e-06     -88.3328 
         -25      30.1137 -9.94839e-06 -3.99791e-06      -88.328 
         -25      30.2821 -9.90812e-06 -3.94845e-06     -88.3232 
         -25      30.4511  -9.7466e-06 -3.89579e-06     -88.3183 
         -25      30.6204 -9.51138e-06 -3.83186e-06     -88.3134 
         -25      30.7903  -9.2434e-06 -3.75294e-06     -88.3084 
         -25      30.9606 -8.97756e-06 -3.65942e-06     -88.3034 
         -25      31.1315 -8.74063e-06 -3.55454e-06     -88.2984 
         -25      31.3028 -8.55245e-06  -3.4442e-06     -88.2934 
         -25      31.4745 -8.42506e-06 -3.33599e-06     -88.2883 
         -25      31.6468 -8.36275e-06 -3.23813e-06     -88.2832 
         -25      31.8194 -8.36314e-06 -3.15931e-06     -88.2781 
         -25      31.9926 -8.41748e-06 -3.10729e-06     -88.2729 
         -25      32.1662 -8.51173e-06 -3.08855e-06     -88.2677 
         -25      32.3404 -8.62817e-06 -3.10714e-06     -88.2625 
         -25      32.5149 -8.74656e-06   -3.164e-06     -88.2572 
         -25        32.69 -8.84677e-06 -3.25616e-06     -88.2519 
         -25      32.8655 -8.91054e-06 -3.37568e-06     -88.2466 
         -25      33.0414 -8.92459e-06 -3.50875e-06     -88.2412 
         -25       33.218 -8.88366e-06 -3.63522e-06     -88.2359 
         -25      33.3948 -8.79409e-06 -3.72701e-06     -88.2304 
         -25      33.5723 -8.67751e-06 -3.74784e-06      -88.225 
         -25        33.75 -8.57579e-06 -3.65186e-06     -88.2195 
         -25      33.9284 -8.55528e-06 -3.38265e-06      -88.214 
         -25      34.1073 -8.71286e-06 -2.87259e-06     -88.2085 
         -25      34.2865 -9.18083e-06 -2.04249e-06     -88.2029 
         -25      34.4663 -9.76064e-06 -1.34503e-06     -88.1973 
         -25      34.6465  -9.2228e-06 -2.46258e-06     -88.1916 
         -25      34.8272 -8.91577e-06 -3.21951e-06      -88.186 
         -25      35.0083 -8.75255e-06 -3.69934e-06     -88.1803 
         -25        35.19 -8.66831e-06 -3.97682e-06     -88.1745 
         -25      35.3721 -8.61852e-06 -4.11465e-06     -88.1688 
         -25      35.5546 -8.57535e-06 -4.16529e-06      -88.163 
         -25      35.7377 -8.52475e-06 -4.17074e-06     -88.1572 
         -25      35.9211 -8.46375e-06 -4.16277e-06     -88.1513 
         -25      36.1052  -8.3973e-06 -4.16345e-06     -88.1454 
         -25      36.2895  -8.3359e-06 -4.18578e-06     -88.1395 
         -25      36.4745  -8.2926e-06 -4.23443e-06     -88.1336 
         -25      36.6598 -8.28079e-06 -4.30644e-06     -88.1276 
         -25      36.8457 -8.31161e-06 -4.39258e-06     -88.1216 
         -25      37.0321 -8.39173e-06 -4.47811e-06     -88.1155 
         -25      37.2188 -8.52109e-06 -4.54429e-06     -88.1095 
         -25      37.4062 -8.69135e-06 -4.57006e-06     -88.1034 
         -25      37.5938 -8.88331e-06 -4.53342e-06     -88.0972 
         -25      37.7821 -9.06624e-06 -4.41332e-06     -88.0911 
         -25      37.9707 -9.19537e-06 -4.19209e-06     -88.0849 
         -25      38.1599 -9.21155e-06 -3.85676e-06     -88.0786 
         -25      38.3496 -9.03943e-06 -3.40262e-06     -88.0724 
         -25      38.5396 -8.54497e-06 -3.31775e-06     -88.0661 
         -25      38.7302 -8.04528e-06 -3.72075e-06     -88.0598 
         -25      38.9211 -7.73501e-06 -3.95346e-06     -88.0535 
         -25      39.1127 -7.58692e-06 -4.04332e-06     -88.0471 
         -25      39.3046 -7.57315e-06  -4.0204e-06     -88.0407 
         -25      39.4971 -7.66549e-06 -3.91806e-06     -88.0342 
         -25      39.6899  -7.8369e-06 -3.77294e-06     -88.0278 
         -25      39.8833 -8.06336e-06 -3.62433e-06     -88.0213 
         -25      40.0772 -8.32456e-06 -3.51475e-06     -88.0148 
         -25      40.2714 -8.60559e-06 -3.48926e-06     -88.0082 
         -25      40.4663 -8.89933e-06 -3.59537e-06     -88.0016 
         -25      40.6615  -9.2064e-06 -3.88259e-06      -87.995 
         -25      40.8573 -9.53869e-06 -4.40303e-06     -87.9884 
         -25      41.0534 -9.38989e-06 -4.73403e-06     -87.9817 
         -25      41.2501 -8.75245e-06 -4.55403e-06      -87.975 
         -25      41.4473 -8.35474e-06  -4.4266e-06     -87.9683 
         -25      41.6448 -8.13617e-06 -4.34316e-06     -87.9616 
         -25      41.8429 -8.04526e-06 -4.29558e-06     -87.9548 
         -25      42.0414 -8.03972e-06 -4.27655e-06      -87.948 
         -25      42.2405 -8.08506e-06 -4.27926e-06     -87.9411 
         -25      42.4399 -8.15388e-06 -4.29752e-06     -87.9343 
         -25      42.6399  -8.2254e-06 -4.32578e-06     -87.9274 
         -25      42.8404 -8.28439e-06 -4.35905e-06     -87.9204 
         -25      43.0412 -8.32065e-06 -4.39291e-06     -87.9135 
         -25      43.2426 -8.32842e-06  -4.4236e-06     -87.9065 
         -25      43.4444 -8.30552e-06 -4.44788e-06     -87.8995 
         -25      43.6467 -8.25281e-06 -4.46315e-06     -87.8925 
         -25      43.8494  -8.1737e-06 -4.46733e-06     -87.8854 
         -25      44.0527 -8.07327e-06 -4.45895e-06     -87.8783 
         -25      44.2563 -7.95821e-06 -4.43714e-06     -87.8712 
         -25      44.4606 -7.83571e-06 -4.40154e-06     -87.8641 
         -25      44.6653  -7.7136e-06 -4.35238e-06     -87.8569 
         -25      44.8704 -7.59962e-06 -4.29054e-06     -87.8497 
         -25       45.076 -7.50082e-06 -4.21729e-06     -87.8425 
         -25       45.282 -7.42378e-06 -4.13467e-06     -87.8353 
         -25      45.4886 -7.37371e-06 -4.04506e-06      -87.828 
         -25      45.6955 -7.35471e-06 -3.95163e-06     -87.8207 
         -25       45.903 -7.36926e-06 -3.85786e-06     -87.8134 
         -25      46.1111 -7.41823e-06 -3.76798e-06      -87.806 
         -25      46.3194 -7.50065e-06 -3.68679e-06     -87.7987 
         -25      46.5283 -7.61403e-06 -3.61943e-06     -87.7912 
         -25      46.7376 -7.75387e-06 -3.57184e-06     -87.7838 
         -25      46.9475 -7.91447e-06 -3.55034e-06     -87.7764 
         -25      47.1577 -8.08827e-06 -3.56189e-06     -87.7689 
         -25      47.3685 -8.26708e-06 -3.61404e-06     -87.7614 
         -25      47.5798  -8.4415e-06 -3.71486e-06     -87.7539 
         -25      47.7914 -8.60174e-06 -3.87285e-06     -87.7463 
         -25      48.0037 -8.73414e-06 -4.09961e-06     -87.7388 