Variables = x, y, u, v, p

Zone, I=800, F=POINT
         -70            0           -0           -0      90.5747 
         -70     0.000234  2.24617e-05  5.55499e-09      90.5747 
         -70     0.000939  8.47066e-05  2.16158e-08      90.5747 
         -70     0.002113   0.00017174  4.62651e-08      90.5747 
         -70     0.003759  0.000263571  7.69203e-08      90.5747 
         -70     0.005872  0.000339958  1.10674e-07      90.5747 
         -70     0.008457  0.000386896  1.45228e-07      90.5747 
         -70      0.01151  0.000399832  1.79035e-07      90.5747 
         -70     0.015036  0.000385105  2.11719e-07      90.5747 
         -70     0.019031  0.000357322  2.43684e-07      90.5747 
         -70     0.023493  0.000333708   2.7573e-07      90.5747 
         -70     0.028429  0.000326831  3.08389e-07      90.5747 
         -70     0.033831  0.000338639  3.41164e-07      90.5747 
         -70     0.039706  0.000358757  3.72513e-07      90.5747 
         -70     0.046047  0.000369841  4.00115e-07      90.5747 
         -70     0.052863  0.000360197  4.22092e-07      90.5747 
         -70      0.06015  0.000338398  4.38089e-07      90.5746 
         -70       0.0679  0.000335697  4.49235e-07      90.5746 
         -70     0.076126  0.000367046  4.53853e-07      90.5746 
         -70     0.084816    0.0003373   4.3852e-07      90.5746 
         -70     0.093982  0.000348565  4.19397e-07      90.5746 
         -70     0.103611  0.000351744  3.87829e-07      90.5746 
         -70     0.113718  0.000351098  3.40852e-07      90.5746 
         -70     0.124286  0.000349656   2.7695e-07      90.5746 
         -70     0.135333  0.000349092  1.95665e-07      90.5746 
         -70      0.14685  0.000349824   9.7672e-08      90.5746 
         -70     0.158827  0.000351341 -1.57538e-08      90.5745 
         -70     0.171284  0.000352745 -1.43542e-07      90.5745 
         -70     0.184201  0.000353359 -2.84458e-07      90.5745 
         -70     0.197599  0.000353261 -4.37785e-07      90.5745 
         -70     0.211455  0.000353401 -6.01328e-07      90.5745 
         -70     0.225792  0.000354898 -7.69836e-07      90.5744 
         -70       0.2406  0.000356884  -9.2907e-07      90.5744 
         -70     0.255865  0.000356177  -1.0584e-06      90.5744 
         -70     0.271613   0.00035728  -1.1875e-06      90.5743 
         -70     0.287818  0.000358058   -1.313e-06      90.5743 
         -70     0.304506  0.000358608 -1.43104e-06      90.5742 
         -70      0.32165  0.000359002 -1.54311e-06      90.5742 
         -70     0.339278  0.000359288 -1.65557e-06      90.5741 
         -70     0.357377  0.000359492 -1.77718e-06      90.5741 
         -70      0.37593  0.000359621 -1.91715e-06       90.574 
         -70     0.394968  0.000359668  -2.0832e-06       90.574 
         -70     0.414461  0.000359619 -2.27838e-06      90.5739 
         -70      0.43444  0.000359459 -2.50025e-06      90.5738 
         -70     0.454872   0.00035918 -2.73859e-06      90.5737 
         -70     0.475791  0.000358784 -2.97731e-06      90.5737 
         -70     0.497163   0.00035829 -3.19558e-06      90.5736 
         -70     0.519021   0.00035773 -3.37515e-06      90.5735 
         -70      0.54135  0.000357143 -3.50924e-06      90.5734 
         -70     0.564131  0.000356558 -3.61884e-06      90.5733 
         -70       0.5874  0.000355963 -3.77588e-06      90.5731 
         -70     0.611121  0.000355306 -4.16246e-06       90.573 
         -70      0.63533   0.00035502 -4.94265e-06      90.5729 
         -70      0.65999  0.000354799 -5.61719e-06      90.5727 
         -70     0.685139  0.000354627 -6.17906e-06      90.5726 
         -70     0.710759  0.000354491 -6.62486e-06      90.5724 
         -70     0.736828  0.000354385  -6.9565e-06      90.5723 
         -70     0.763387  0.000354308 -7.18125e-06      90.5721 
         -70     0.790396  0.000354265 -7.30956e-06      90.5719 
         -70     0.817896  0.000354262 -7.35579e-06      90.5717 
         -70     0.845843  0.000354311 -7.33656e-06      90.5715 
         -70     0.874283  0.000354424 -7.27011e-06      90.5713 
         -70      0.90317  0.000354615 -7.17533e-06      90.5711 
         -70     0.932551  0.000354897 -7.07023e-06      90.5708 
         -70     0.962401   0.00035528  -6.9713e-06      90.5706 
         -70     0.992697  0.000355773 -6.89205e-06      90.5703 
         -70      1.02349  0.000356379 -6.84182e-06        90.57 
         -70      1.05472  0.000357095 -6.82522e-06      90.5697 
         -70      1.08645  0.000357915 -6.84114e-06      90.5694 
         -70      1.11863   0.00035882 -6.88249e-06      90.5691 
         -70       1.1513  0.000359789 -6.93636e-06      90.5688 
         -70      1.18444  0.000360793 -6.98449e-06      90.5685 
         -70      1.21802  0.000361796 -7.00476e-06      90.5681 
         -70      1.25211  0.000362764 -6.97354e-06      90.5677 
         -70      1.28663  0.000363661 -6.86898e-06      90.5674 
         -70      1.32165  0.000364458 -6.67545e-06       90.567 
         -70      1.35712   0.00036514 -6.39048e-06      90.5665 
         -70      1.39308  0.000365716  -6.0315e-06      90.5661 
         -70      1.42951  0.000366229 -5.64748e-06      90.5656 
         -70      1.46638  0.000366769 -5.33088e-06      90.5652 
         -70      1.50375  0.000367496 -5.23222e-06      90.5647 
         -70      1.54156  0.000367466  -5.2762e-06      90.5642 
         -70      1.57987  0.000367822 -5.10269e-06      90.5637 
         -70      1.61863  0.000368562 -4.74718e-06      90.5631 
         -70      1.65788    0.0003696 -4.24645e-06      90.5625 
         -70      1.69757  0.000370854  -3.6356e-06       90.562 
         -70      1.73776  0.000372254 -2.94476e-06      90.5614 
         -70      1.77842  0.000373735 -2.20219e-06      90.5607 
         -70      1.81952  0.000375239 -1.43296e-06      90.5601 
         -70      1.86113  0.000376719 -6.56697e-07      90.5594 
         -70      1.90316  0.000378133  1.07914e-07      90.5587 
         -70      1.94571  0.000379449  8.48166e-07       90.558 
         -70      1.98869  0.000380639  1.55235e-06      90.5573 
         -70      2.03217  0.000381688  2.21441e-06      90.5565 
         -70      2.07612  0.000382582  2.82978e-06      90.5557 
         -70      2.12051  0.000383317  3.39706e-06      90.5549 
         -70       2.1654  0.000383893  3.91902e-06       90.554 
         -70      2.21073  0.000384317  4.39927e-06      90.5532 
         -70      2.25656  0.000384601  4.84532e-06      90.5523 
         -70      2.30283  0.000384757  5.26519e-06      90.5513 
         -70       2.3496  0.000384804   5.6699e-06      90.5504 
         -70      2.39685  0.000384763  6.07077e-06      90.5494 
         -70      2.44452  0.000384653  6.47997e-06      90.5484 
         -70      2.49271  0.000384498  6.91112e-06      90.5474 
         -70      2.54132  0.000384317  7.37653e-06      90.5463 
         -70      2.59044   0.00038413  7.88955e-06      90.5452 
         -70         2.64  0.000383956  8.46108e-06      90.5441 
         -70      2.69006  0.000383807  9.10254e-06      90.5429 
         -70      2.74056  0.000383696  9.82171e-06      90.5417 
         -70      2.79156  0.000383628  1.06265e-05      90.5405 
         -70      2.84304  0.000383606  1.15207e-05      90.5392 
         -70      2.89494  0.000383626  1.25052e-05      90.5379 
         -70      2.94735  0.000383681  1.35804e-05      90.5366 
         -70       3.0002  0.000383757  1.47401e-05      90.5352 
         -70      3.05355  0.000383839  1.59789e-05      90.5338 
         -70      3.10733  0.000383907  1.72843e-05      90.5324 
         -70      3.16163  0.000383939  1.86452e-05      90.5309 
         -70      3.21639  0.000383917  2.00448e-05      90.5294 
         -70      3.27158   0.00038382  2.14642e-05      90.5278 
         -70      3.32729  0.000383639  2.28869e-05      90.5262 
         -70      3.38342   0.00038337  2.42916e-05      90.5246 
         -70      3.44007  0.000383025  2.56625e-05      90.5229 
         -70      3.49714  0.000382638  2.69819e-05      90.5212 
         -70      3.55472  0.000382264  2.82409e-05      90.5194 
         -70      3.61273  0.000381998  2.94332e-05      90.5176 
         -70      3.67125  0.000381971  3.05655e-05      90.5158 
         -70      3.73025  0.000382371  3.16541e-05      90.5139 
         -70      3.78967  0.000382389  3.18236e-05       90.512 
         -70      3.84961  0.000382197  3.16745e-05        90.51 
         -70      3.90996  0.000382088  3.17331e-05       90.508 
         -70      3.97084  0.000381932   3.2037e-05      90.5059 
         -70      4.03214  0.000381637  3.26072e-05      90.5038 
         -70      4.09395  0.000381137  3.34512e-05      90.5016 
         -70      4.15624  0.000380619  3.39994e-05      90.4994 
         -70      4.21895  0.000380082   3.4223e-05      90.4972 
         -70      4.28217  0.000379422  3.44475e-05      90.4948 
         -70      4.34582  0.000378671  3.46767e-05      90.4925 
         -70      4.40998  0.000377849  3.49284e-05      90.4901 
         -70      4.47457  0.000376977   3.5228e-05      90.4876 
         -70      4.53968  0.000376065   3.5605e-05      90.4851 
         -70      4.60525  0.000375129  3.60871e-05      90.4825 
         -70      4.67125  0.000374177  3.66962e-05      90.4799 
         -70      4.73777   0.00037322  3.74473e-05      90.4772 
         -70       4.8047  0.000372269  3.83419e-05      90.4745 
         -70      4.87216  0.000371334  3.93717e-05      90.4717 
         -70      4.94003  0.000370428  4.05121e-05      90.4689 
         -70      5.00843  0.000369561  4.17296e-05       90.466 
         -70      5.07724  0.000368747  4.29771e-05      90.4631 
         -70      5.14658  0.000367995  4.42055e-05        90.46 
         -70      5.21639  0.000367313   4.5363e-05       90.457 
         -70      5.28661  0.000366702  4.64058e-05      90.4538 
         -70      5.35736  0.000366155  4.73118e-05      90.4506 
         -70      5.42852  0.000365652  4.80874e-05      90.4474 
         -70      5.50021  0.000365157  4.87897e-05      90.4441 
         -70      5.57231  0.000364609  4.95408e-05      90.4407 
         -70      5.64493  0.000363921  5.05553e-05      90.4373 
         -70      5.71803  0.000362965  5.21634e-05      90.4338 
         -70      5.79154  0.000361571  5.48412e-05      90.4302 
         -70      5.86558  0.000361236  5.65986e-05      90.4266 
         -70      5.94003  0.000362031   5.6354e-05      90.4229 
         -70      6.01501  0.000362112   5.6759e-05      90.4191 
         -70       6.0904  0.000361731  5.76583e-05      90.4153 
         -70      6.16632  0.000361088   5.8908e-05      90.4114 
         -70      6.24271  0.000360336  6.03757e-05      90.4075 
         -70       6.3195  0.000359583  6.19445e-05      90.4034 
         -70      6.39683  0.000358896  6.35206e-05      90.3993 
         -70      6.47457  0.000358312   6.5027e-05      90.3952 
         -70      6.55284  0.000357836  6.64147e-05      90.3909 
         -70      6.63152  0.000357452  6.76547e-05      90.3866 
         -70      6.71073  0.000357127  6.87469e-05      90.3822 
         -70      6.79034  0.000356816  6.97124e-05      90.3778 
         -70      6.87049  0.000356475  7.05988e-05      90.3733 
         -70      6.95111  0.000356061  7.14725e-05      90.3687 
         -70      7.03214  0.000355544  7.24181e-05       90.364 
         -70       7.1137  0.000354915  7.35354e-05      90.3592 
         -70      7.19566  0.000354191  7.49285e-05      90.3544 
         -70      7.27816  0.000353429  7.67058e-05      90.3495 
         -70      7.36106  0.000352729  7.89615e-05      90.3445 
         -70      7.44451  0.000352247   8.1777e-05      90.3395 
         -70      7.52842  0.000352205  8.51966e-05      90.3343 
         -70      7.61273  0.000350747  8.51222e-05      90.3291 
         -70      7.69758  0.000349266  8.40541e-05      90.3239 
         -70      7.78283   0.00034816  8.20396e-05      90.3185 
         -70      7.86862  0.000347849  7.89501e-05       90.313 
         -70      7.95481   0.00034795   7.8374e-05      90.3075 
         -70      8.04155  0.000347126   8.3064e-05      90.3019 
         -70      8.12868  0.000346815   8.6024e-05      90.2962 
         -70      8.21635   0.00034683  8.75307e-05      90.2904 
         -70      8.30449  0.000347009  8.78415e-05      90.2846 
         -70      8.39303  0.000347219  8.72047e-05      90.2787 
         -70      8.48211  0.000347309   8.5993e-05      90.2726 
         -70      8.57159  0.000346348  8.71537e-05      90.2665 
         -70      8.66161   0.00034502  8.87664e-05      90.2603 
         -70      8.75203   0.00034342  9.05994e-05      90.2541 
         -70      8.84299   0.00034169  9.24358e-05      90.2477 
         -70      8.93443  0.000339994  9.40895e-05      90.2413 
         -70      9.02626  0.000338485  9.54308e-05      90.2347 
         -70      9.11863  0.000337271  9.64016e-05      90.2281 
         -70      9.21139  0.000336415  9.70148e-05      90.2214 
         -70      9.30471  0.000335911  9.73558e-05      90.2146 
         -70      9.39841  0.000335695   9.7566e-05      90.2077 
         -70      9.49267  0.000335647   9.7821e-05      90.2007 
         -70      9.58739  0.000335619  9.82931e-05      90.1937 
         -70      9.68251  0.000335465  9.91027e-05      90.1865 
         -70      9.77817  0.000335088  0.000100258      90.1793 
         -70      9.87422  0.000334506   0.00010157       90.172 
         -70      9.97083  0.000333922  0.000102569      90.1645 
         -70      10.0678  0.000333825   0.00010238       90.157 
         -70      10.1654  0.000333443   0.00010156      90.1494 
         -70      10.2633  0.000331031  0.000103326      90.1417 
         -70      10.3618  0.000329216  0.000105008      90.1339 
         -70      10.4607  0.000327856  0.000106516       90.126 
         -70      10.5601  0.000326827  0.000107772      90.1181 
         -70        10.66  0.000326023  0.000108712        90.11 
         -70      10.7603  0.000325356   0.00010928      90.1018 
         -70      10.8611  0.000324755  0.000109429      90.0936 
         -70      10.9623  0.000324165  0.000109119      90.0852 
         -70      11.0641  0.000323541  0.000108314      90.0768 
         -70      11.1663  0.000322575   0.00010884      90.0682 
         -70       11.269  0.000321462  0.000111081      90.0596 
         -70      11.3721   0.00032056  0.000112971      90.0509 
         -70      11.4757  0.000319811  0.000114525      90.0421 
         -70      11.5798  0.000319151  0.000115778      90.0331 
         -70      11.6844  0.000318528  0.000116766      90.0241 
         -70      11.7894  0.000317895  0.000117538       90.015 
         -70       11.895  0.000317216  0.000118145      90.0058 
         -70      12.0009  0.000316472  0.000118638      89.9965 
         -70      12.1073  0.000315651   0.00011907      89.9871 
         -70      12.2142  0.000314763   0.00011949      89.9776 
         -70      12.3216  0.000313823  0.000119946       89.968 
         -70      12.4294  0.000312861  0.000120476      89.9583 
         -70      12.5378  0.000311911  0.000121113      89.9485 
         -70      12.6465  0.000311012  0.000121879      89.9386 
         -70      12.7558  0.000310194  0.000122791      89.9286 
         -70      12.8656   0.00030948   0.00012385      89.9185 
         -70      12.9757  0.000308868   0.00012505      89.9083 
         -70      13.0864  0.000308322  0.000126373      89.8981 
         -70      13.1975  0.000307761  0.000127792      89.8877 
         -70      13.3092  0.000307042   0.00012927      89.8772 
         -70      13.4212  0.000305807  0.000129736      89.8666 
         -70      13.5338  0.000304366   0.00012957       89.856 
         -70      13.6468  0.000302966  0.000129645      89.8452 
         -70      13.7603  0.000301623  0.000129919      89.8343 
         -70      13.8743  0.000300345  0.000130355      89.8233 
         -70      13.9886  0.000299142  0.000130919      89.8123 
         -70      14.1036  0.000298016   0.00013158      89.8011 
         -70      14.2189  0.000296971  0.000132306      89.7899 
         -70      14.3348  0.000296003  0.000133074      89.7785 
         -70       14.451   0.00029511  0.000133859       89.767 
         -70      14.5678  0.000294282   0.00013464      89.7555 
         -70      14.6851  0.000293511  0.000135401      89.7438 
         -70      14.8028  0.000292786  0.000136124      89.7321 
         -70       14.921   0.00029209  0.000136799      89.7202 
         -70      15.0396   0.00029141  0.000137416      89.7083 
         -70      15.1588  0.000290726   0.00013797      89.6962 
         -70      15.2783  0.000290024  0.000138457      89.6841 
         -70      15.3984  0.000289285  0.000138877      89.6718 
         -70       15.519  0.000288493  0.000139233      89.6595 
         -70        15.64  0.000287633  0.000139532      89.6471 
         -70      15.7615  0.000286693  0.000139785      89.6345 
         -70      15.8834  0.000285665  0.000140004      89.6219 
         -70      16.0058  0.000284544  0.000140208      89.6092 
         -70      16.1286  0.000283334  0.000140419      89.5964 
         -70       16.252  0.000282043  0.000140661      89.5835 
         -70      16.3759  0.000280691  0.000140966      89.5705 
         -70      16.5002  0.000279309  0.000141369      89.5574 
         -70       16.625  0.000277936  0.000141908      89.5442 
         -70      16.7501   0.00027663   0.00014263      89.5309 
         -70      16.8759  0.000275464  0.000143586      89.5175 
         -70       17.002   0.00027453  0.000144831       89.504 
         -70      17.1287   0.00027394   0.00014643      89.4904 
         -70      17.2557   0.00027264  0.000146342      89.4768 
         -70      17.3834  0.000271121   0.00014647       89.463 
         -70      17.5115  0.000269716  0.000146508      89.4491 
         -70      17.6399  0.000268798  0.000145839      89.4352 
         -70       17.769  0.000267461  0.000146634      89.4211 
         -70      17.8984  0.000266429  0.000146858       89.407 
         -70      18.0284  0.000265706  0.000146563      89.3928 
         -70      18.1587  0.000265188  0.000146039      89.3785 
         -70      18.2896  0.000264761  0.000145566      89.3641 
         -70       18.421  0.000264105   0.00014616      89.3495 
         -70      18.5528  0.000262921  0.000148886       89.335 
         -70      18.6851  0.000261866  0.000151181      89.3203 
         -70      18.8178  0.000260898   0.00015304      89.3055 
         -70      18.9511  0.000259981  0.000154486      89.2907 
         -70      19.0847  0.000259084  0.000155552      89.2757 
         -70      19.2189  0.000258182  0.000156285      89.2607 
         -70      19.3535  0.000257255  0.000156741      89.2456 
         -70      19.4886  0.000256287  0.000156977      89.2304 
         -70      19.6242  0.000255269  0.000157055      89.2151 
         -70      19.7602  0.000254197  0.000157033      89.1997 
         -70      19.8968  0.000253068  0.000156966      89.1842 
         -70      20.0337  0.000251886  0.000156901      89.1687 
         -70      20.1712  0.000250656  0.000156879       89.153 
         -70      20.3091   0.00024939  0.000156928      89.1373 
         -70      20.4475  0.000248098  0.000157069      89.1215 
         -70      20.5864  0.000246795  0.000157309      89.1056 
         -70      20.7257  0.000245497  0.000157643      89.0897 
         -70      20.8655  0.000244218  0.000158057      89.0736 
         -70      21.0058  0.000242975  0.000158524      89.0575 
         -70      21.1465  0.000241783  0.000159014      89.0413 
         -70      21.2877  0.000240655  0.000159484       89.025 
         -70      21.4294  0.000239599  0.000159895      89.0086 
         -70      21.5716  0.000238623  0.000160205      88.9921 
         -70      21.7142  0.000237727  0.000160379      88.9756 
         -70      21.8573  0.000236906  0.000160392       88.959 
         -70      22.0008  0.000236147  0.000160238      88.9423 
         -70      22.1449  0.000235426  0.000159934      88.9255 
         -70      22.2893  0.000234711  0.000159533      88.9087 
         -70      22.4344  0.000233957  0.000159127      88.8918 
         -70      22.5797  0.000233105  0.000158863      88.8748 
         -70      22.7257  0.000232079  0.000158953      88.8577 
         -70      22.8721  0.000230353   0.00015942      88.8406 
         -70      23.0189   0.00022837  0.000159935      88.8234 
         -70      23.1663   0.00022672  0.000160552      88.8061 
         -70       23.314   0.00022533  0.000161202      88.7887 
         -70      23.4623  0.000224136   0.00016183      88.7713 
         -70       23.611  0.000223086  0.000162399      88.7538 
         -70      23.7602  0.000222137  0.000162881      88.7362 
         -70        23.91  0.000221253  0.000163263      88.7186 
         -70        24.06  0.000220407  0.000163539      88.7009 
         -70      24.2107  0.000219576  0.000163715      88.6831 
         -70      24.3617  0.000218743  0.000163803      88.6652 
         -70      24.5133  0.000217895  0.000163822      88.6473 
         -70      24.6653  0.000217021  0.000163795      88.6294 
         -70      24.8178  0.000216113  0.000163748      88.6113 
         -70      24.9708  0.000215162  0.000163707      88.5932 
         -70      25.1242  0.000214162    0.0001637       88.575 
         -70      25.2781  0.000213103   0.00016375      88.5568 
         -70      25.4324  0.000211975  0.000163876      88.5385 
         -70      25.5873  0.000210765  0.000164093      88.5201 
         -70      25.7426  0.000209459  0.000164404      88.5017 
         -70      25.8984  0.000208034  0.000164804      88.4832 
         -70      26.0546  0.000206468  0.000165275      88.4647 
         -70      26.2114  0.000204731  0.000165783      88.4461 
         -70      26.3686  0.000204198  0.000165532      88.4274 
         -70      26.5262  0.000203677  0.000165031      88.4087 
         -70      26.6844  0.000203012  0.000164444      88.3899 
         -70      26.8429  0.000202246  0.000163827      88.3711 
         -70       27.002  0.000201411  0.000163225      88.3522 
         -70      27.1615  0.000200538  0.000162671      88.3332 
         -70      27.3216  0.000199647  0.000162191      88.3142 
         -70      27.4821  0.000198754  0.000161804      88.2951 
         -70       27.643   0.00019787  0.000161518       88.276 
         -70      27.8044  0.000196996  0.000161338      88.2569 
         -70      27.9663  0.000196132  0.000161264      88.2377 
         -70      28.1287   0.00019527   0.00016129      88.2184 
         -70      28.2914    0.0001944  0.000161409      88.1991 
         -70      28.4548  0.000193506  0.000161612      88.1797 
         -70      28.6185  0.000192573   0.00016189      88.1603 
         -70      28.7828   0.00019158  0.000162233      88.1408 
         -70      28.9475  0.000190508  0.000162637      88.1213 
         -70      29.1126  0.000189341  0.000163097      88.1018 
         -70      29.2784   0.00018806  0.000163617      88.0821 
         -70      29.4444  0.000186656  0.000164205      88.0625 
         -70       29.611  0.000185119  0.000164878      88.0428 
         -70       29.778  0.000183442   0.00016521      88.0231 
         -70      29.9456  0.000182023  0.000164173      88.0033 
         -70      30.1137  0.000181041  0.000163605      87.9835 
         -70      30.2821  0.000180327  0.000163402      87.9636 
         -70      30.4511  0.000179748  0.000163464      87.9437 
         -70      30.6204  0.000179208  0.000163706      87.9237 
         -70      30.7903  0.000178639  0.000164049      87.9037 
         -70      30.9606  0.000177996  0.000164427      87.8837 
         -70      31.1315  0.000177254  0.000164787      87.8636 
         -70      31.3028  0.000176407  0.000165088      87.8435 
         -70      31.4745  0.000175459    0.0001653      87.8234 
         -70      31.6468  0.000174423  0.000165407      87.8032 
         -70      31.8194  0.000173319  0.000165403       87.783 
         -70      31.9926  0.000172169  0.000165296      87.7628 
         -70      32.1662  0.000170997  0.000165101      87.7425 
         -70      32.3404  0.000169822  0.000164842      87.7222 
         -70      32.5149  0.000168666  0.000164552      87.7018 
         -70        32.69  0.000167539  0.000164266      87.6814 
         -70      32.8655  0.000166452  0.000164021       87.661 
         -70      33.0414  0.000165409  0.000163854      87.6406 
         -70       33.218  0.000164405  0.000163797      87.6201 
         -70      33.3948  0.000163436  0.000163872      87.5996 
         -70      33.5723  0.000162491  0.000164091       87.579 
         -70        33.75   0.00016156  0.000164444      87.5585 
         -70      33.9284  0.000160632  0.000164903      87.5379 
         -70      34.1073  0.000159703  0.000165406      87.5173 
         -70      34.2865  0.000158777  0.000165856      87.4966 
         -70      34.4663   0.00015787  0.000166116       87.476 
         -70      34.6465  0.000157018  0.000165996      87.4553 
         -70      34.8272  0.000156281  0.000165246      87.4345 
         -70      35.0083  0.000157207   0.00016111      87.4138 
         -70        35.19  0.000157556  0.000156358       87.393 
         -70      35.3721  0.000155934  0.000158221      87.3723 
         -70      35.5546  0.000154847  0.000159598      87.3515 
         -70      35.7377  0.000154057   0.00016052      87.3306 
         -70      35.9211  0.000153393  0.000161029      87.3098 
         -70      36.1052  0.000152728  0.000161174      87.2889 
         -70      36.2895  0.000151987   0.00016101       87.268 
         -70      36.4745  0.000151124  0.000160598      87.2471 
         -70      36.6598  0.000150129  0.000159998      87.2262 
         -70      36.8457   0.00014901  0.000159266      87.2052 
         -70      37.0321  0.000147795  0.000158461      87.1843 
         -70      37.2188  0.000146523  0.000157633      87.1633 
         -70      37.4062  0.000145235  0.000156825      87.1423 
         -70      37.5938  0.000143977  0.000156078      87.1213 
         -70      37.7821  0.000142788  0.000155418      87.1003 
         -70      37.9707  0.000141705  0.000154866      87.0793 
         -70      38.1599  0.000140752  0.000154433      87.0582 
         -70      38.3496  0.000139943  0.000154119      87.0372 
         -70      38.5396  0.000139281  0.000153918      87.0161 
         -70      38.7302  0.000138751  0.000153811       86.995 
         -70      38.9211  0.000138331  0.000153775      86.9739 
         -70      39.1127  0.000137981   0.00015378      86.9528 
         -70      39.3046  0.000137658   0.00015379      86.9317 
         -70      39.4971  0.000137308  0.000153768      86.9106 
         -70      39.6899  0.000136875  0.000153677      86.8895 
         -70      39.8833  0.000136306  0.000153485      86.8684 
         -70      40.0772  0.000135559  0.000153163      86.8472 
         -70      40.2714  0.000134607  0.000152699      86.8261 
         -70      40.4663  0.000133446  0.000152089      86.8049 
         -70      40.6615   0.00013211  0.000151358      86.7838 
         -70      40.8573  0.000130678   0.00015055      86.7626 
         -70      41.0534  0.000129289  0.000149746      86.7415 
         -70      41.2501  0.000128151  0.000149066      86.7203 
         -70      41.4473  0.000127567  0.000148675      86.6991 
         -70      41.6448   0.00012794  0.000148797       86.678 
         -70      41.8429  0.000128675  0.000149548      86.6568 
         -70      42.0414  0.000128428   0.00014967      86.6356 
         -70      42.2405  0.000127083  0.000148556      86.6144 
         -70      42.4399  0.000126012  0.000147542      86.5933 
         -70      42.6399  0.000125147  0.000146633      86.5721 
         -70      42.8404  0.000124435  0.000145832      86.5509 
         -70      43.0412  0.000123827  0.000145139      86.5297 
         -70      43.2426  0.000123284  0.000144551      86.5086 
         -70      43.4444  0.000122772  0.000144064      86.4874 
         -70      43.6467  0.000122263  0.000143672      86.4662 
         -70      43.8494  0.000121737  0.000143367      86.4451 
         -70      44.0527  0.000121176   0.00014314      86.4239 
         -70      44.2563  0.000120571  0.000142981      86.4028 
         -70      44.4606  0.000119912  0.000142879      86.3816 
         -70      44.6653  0.000119196  0.000142823      86.3605 
         -70      44.8704  0.000118424    0.0001428      86.3393 
         -70       45.076  0.000117595  0.000142797      86.3182 
         -70       45.282  0.000116716  0.000142804      86.2971 
         -70      45.4886   0.00011579  0.000142807       86.276 
         -70      45.6955  0.000114828  0.000142795      86.2549 
         -70       45.903  0.000113835  0.000142756      86.2338 
         -70      46.1111  0.000112821   0.00014268      86.2127 
         -70      46.3194  0.000111824  0.000142553      86.1916 
         -70      46.5283  0.000110973  0.000142335      86.1705 
         -70      46.7376  0.000110161  0.000142041      86.1495 
         -70      46.9475  0.000109392   0.00014167      86.1284 
         -70      47.1577   0.00010867  0.000141224      86.1074 
         -70      47.3685  0.000107995  0.000140706      86.0864 
         -70      47.5798  0.000107369  0.000140125      86.0654 
         -70      47.7914  0.000106791  0.000139488      86.0444 
         -70      48.0037  0.000106256  0.000138806      86.0234 