Variables = x, y, u, v, p

Zone, I=800, F=POINT
         550            0            0            0      46.2343 
         550     0.000234  1.23695e-05 -2.59556e-11      46.2343 
         550     0.000939  4.63007e-05 -4.20683e-10      46.2343 
         550     0.002113   9.2602e-05   -2.134e-09      46.2343 
         550     0.003759  0.000139024 -6.76233e-09      46.2343 
         550     0.005872  0.000173293 -1.65224e-08      46.2343 
         550     0.008457  0.000187024 -3.43174e-08      46.2343 
         550      0.01151  0.000177814 -6.36565e-08      46.2343 
         550     0.015036  0.000149993 -1.08788e-07      46.2343 
         550     0.019031  0.000113052 -1.74525e-07      46.2343 
         550     0.023493   7.8011e-05 -2.66314e-07      46.2343 
         550     0.028429  5.28354e-05 -3.90444e-07      46.2343 
         550     0.033831  3.88345e-05 -5.53464e-07      46.2343 
         550     0.039706  2.95211e-05 -7.62908e-07      46.2343 
         550     0.046047  1.41707e-05 -1.02637e-06      46.2343 
         550     0.052863 -1.42909e-05 -1.35258e-06      46.2343 
         550      0.06015 -4.99601e-05 -1.75011e-06      46.2343 
         550       0.0679 -7.25215e-05 -2.22752e-06      46.2343 
         550     0.076126  -7.1994e-05 -2.79485e-06      46.2343 
         550     0.084816 -0.000108152 -3.46062e-06      46.2343 
         550     0.093982 -0.000117449 -4.23511e-06      46.2343 
         550     0.103611 -0.000129486 -5.12639e-06      46.2343 
         550     0.113718 -0.000141578 -6.14481e-06      46.2343 
         550     0.124286 -0.000151763 -7.29715e-06      46.2343 
         550     0.135333 -0.000158953 -8.59341e-06      46.2343 
         550      0.14685 -0.000162813   -1.004e-05      46.2343 
         550     0.158827 -0.000163612 -1.16421e-05      46.2343 
         550     0.171284 -0.000161892 -1.34083e-05      46.2343 
         550     0.184201 -0.000158107 -1.53404e-05      46.2343 
         550     0.197599 -0.000152303 -1.74454e-05      46.2343 
         550     0.211455 -0.000144059 -1.97224e-05      46.2343 
         550     0.225792 -0.000132859  -2.2177e-05      46.2343 
         550       0.2406 -0.000119387 -2.48082e-05      46.2343 
         550     0.255865 -0.000105726  -2.7613e-05      46.2343 
         550     0.271613 -8.94727e-05 -3.05946e-05      46.2343 
         550     0.287818 -7.21165e-05 -3.37459e-05      46.2343 
         550     0.304506 -5.38277e-05 -3.70688e-05      46.2343 
         550      0.32165 -3.48512e-05 -4.05537e-05      46.2343 
         550     0.339278 -1.53842e-05 -4.42019e-05      46.2343 
         550     0.357377  4.32389e-06 -4.80056e-05      46.2343 
         550      0.37593  2.40188e-05 -5.19555e-05      46.2343 
         550     0.394968  4.35027e-05 -5.60522e-05      46.2343 
         550     0.414461  6.25255e-05 -6.02834e-05      46.2343 
         550      0.43444  8.09155e-05 -6.46494e-05      46.2343 
         550     0.454872  9.84633e-05 -6.91369e-05      46.2343 
         550     0.475791  0.000115045 -7.37473e-05      46.2343 
         550     0.497163  0.000130509 -7.84674e-05      46.2343 
         550     0.519021  0.000144781 -8.32987e-05      46.2343 
         550      0.54135  0.000157773 -8.82327e-05      46.2343 
         550     0.564131   0.00016941   -9.326e-05      46.2343 
         550       0.5874  0.000179639 -9.83834e-05      46.2343 
         550     0.611121   0.00018835  -0.00010359      46.2343 
         550      0.63533  0.000195641 -0.000108884      46.2343 
         550      0.65999  0.000201488 -0.000114253      46.2343 
         550     0.685139  0.000205905 -0.000119701      46.2343 
         550     0.710759  0.000208911 -0.000125221      46.2343 
         550     0.736828  0.000210547 -0.000130803      46.2343 
         550     0.763387  0.000210872 -0.000136452      46.2343 
         550     0.790396  0.000209962 -0.000142154      46.2343 
         550     0.817896  0.000207905 -0.000147913      46.2343 
         550     0.845843   0.00020481 -0.000153714      46.2343 
         550     0.874283  0.000200794 -0.000159561      46.2343 
         550      0.90317  0.000195993 -0.000165437      46.2343 
         550     0.932551  0.000190542 -0.000171346      46.2343 
         550     0.962401  0.000184596 -0.000177275      46.2343 
         550     0.992697  0.000178315 -0.000183213      46.2343 
         550      1.02349  0.000171847 -0.000189161      46.2343 
         550      1.05472   0.00016536   -0.0001951      46.2343 
         550      1.08645  0.000158996 -0.000201033      46.2343 
         550      1.11863  0.000152913 -0.000206941      46.2343 
         550       1.1513  0.000147236 -0.000212823      46.2343 
         550      1.18444  0.000142092 -0.000218668      46.2343 
         550      1.21802  0.000137589  -0.00022446      46.2343 
         550      1.25211  0.000133802 -0.000230201      46.2343 
         550      1.28663  0.000130797 -0.000235873      46.2343 
         550      1.32165  0.000128605  -0.00024148      46.2343 
         550      1.35712  0.000127236 -0.000247005      46.2343 
         550      1.39308  0.000126668 -0.000252454      46.2343 
         550      1.42951  0.000126856  -0.00025782      46.2343 
         550      1.46638  0.000127726   -0.0002631      46.2343 
         550      1.50375  0.000129188 -0.000268307      46.2343 
         550      1.54156  0.000131453 -0.000273386      46.2343 
         550      1.57987  0.000133952 -0.000278377      46.2343 
         550      1.61863  0.000136608 -0.000283272      46.2343 
         550      1.65788  0.000139393 -0.000288074      46.2343 
         550      1.69757  0.000142269 -0.000292773      46.2343 
         550      1.73776  0.000145212 -0.000297372      46.2343 
         550      1.77842  0.000148194 -0.000301864      46.2343 
         550      1.81952  0.000151192  -0.00030624      46.2343 
         550      1.86113   0.00015419 -0.000310503      46.2343 
         550      1.90316  0.000157167 -0.000314643      46.2343 
         550      1.94571  0.000160117  -0.00031866      46.2343 
         550      1.98869  0.000163025 -0.000322545      46.2343 
         550      2.03217  0.000165889 -0.000326298      46.2343 
         550      2.07612  0.000168701 -0.000329912      46.2343 
         550      2.12051   0.00017146 -0.000333379      46.2343 
         550       2.1654  0.000174168 -0.000336699      46.2343 
         550      2.21073  0.000176825 -0.000339862      46.2343 
         550      2.25656   0.00017944 -0.000342869      46.2343 
         550      2.30283  0.000182012  -0.00034571      46.2343 
         550       2.3496  0.000184553 -0.000348385      46.2343 
         550      2.39685  0.000187068 -0.000350886      46.2343 
         550      2.44452   0.00018956 -0.000353208      46.2343 
         550      2.49271  0.000192042 -0.000355351      46.2343 
         550      2.54132  0.000194515 -0.000357307      46.2343 
         550      2.59044  0.000196987 -0.000359075      46.2343 
         550         2.64  0.000199459  -0.00036065      46.2343 
         550      2.69006  0.000201937 -0.000362031      46.2343 
         550      2.74056  0.000204416 -0.000363213      46.2343 
         550      2.79156  0.000206899 -0.000364198      46.2343 
         550      2.84304  0.000209379 -0.000364982      46.2343 
         550      2.89494  0.000211848 -0.000365564      46.2343 
         550      2.94735  0.000214301 -0.000365944      46.2343 
         550       3.0002  0.000216723 -0.000366124      46.2343 
         550      3.05355  0.000219107 -0.000366103      46.2343 
         550      3.10733  0.000221435 -0.000365883      46.2343 
         550      3.16163  0.000223699 -0.000365467      46.2343 
         550      3.21639  0.000225882 -0.000364857      46.2343 
         550      3.27158  0.000227974 -0.000364059      46.2343 
         550      3.32729  0.000229971 -0.000363074      46.2343 
         550      3.38342  0.000231869 -0.000361909      46.2343 
         550      3.44007  0.000233677 -0.000360568      46.2343 
         550      3.49714  0.000235409 -0.000359059      46.2343 
         550      3.55472    0.0002371 -0.000357385      46.2343 
         550      3.61273  0.000238793 -0.000355556      46.2343 
         550      3.67125  0.000240561 -0.000353576      46.2343 
         550      3.73025  0.000242499 -0.000351452      46.2343 
         550      3.78967  0.000243857 -0.000349247      46.2343 
         550      3.84961  0.000244962 -0.000346873      46.2343 
         550      3.90996  0.000246169 -0.000344308      46.2343 
         550      3.97084  0.000247549 -0.000341533      46.2343 
         550      4.03214  0.000248962 -0.000338641      46.2343 
         550      4.09395  0.000250346 -0.000335655      46.2343 
         550      4.15624  0.000251673 -0.000332587      46.2343 
         550      4.21895  0.000252918 -0.000329451      46.2343 
         550      4.28217  0.000254064  -0.00032625      46.2343 
         550      4.34582  0.000255094 -0.000322999      46.2343 
         550      4.40998  0.000255997 -0.000319701      46.2343 
         550      4.47457  0.000256762  -0.00031637      46.2343 
         550      4.53968  0.000257387 -0.000313008      46.2343 
         550      4.60525  0.000257869 -0.000309626      46.2343 
         550      4.67125  0.000258207 -0.000306231      46.2343 
         550      4.73777  0.000258405 -0.000302826      46.2343 
         550       4.8047  0.000258467  -0.00029942      46.2343 
         550      4.87216  0.000258402 -0.000296013      46.2343 
         550      4.94003  0.000258218 -0.000292616      46.2343 
         550      5.00843  0.000257924 -0.000289227      46.2343 
         550      5.07724  0.000257531 -0.000285854      46.2343 
         550      5.14658  0.000257052 -0.000282496      46.2343 
         550      5.21639  0.000256497 -0.000279156      46.2343 
         550      5.28661  0.000255879 -0.000275841      46.2343 
         550      5.35736   0.00025521 -0.000272545      46.2343 
         550      5.42852  0.000254501 -0.000269275      46.2343 
         550      5.50021  0.000253762 -0.000266027      46.2343 
         550      5.57231  0.000253005 -0.000262806      46.2343 
         550      5.64493  0.000252236 -0.000259606      46.2343 
         550      5.71803  0.000251465 -0.000256429      46.2343 
         550      5.79154  0.000250699 -0.000253278      46.2343 
         550      5.86558   0.00024994 -0.000250144      46.2343 
         550      5.94003  0.000249196 -0.000247033      46.2343 
         550      6.01501  0.000248469 -0.000243937      46.2343 
         550       6.0904  0.000247761 -0.000240858      46.2343 
         550      6.16632  0.000247074 -0.000237789      46.2343 
         550      6.24271  0.000246411 -0.000234731      46.2343 
         550       6.3195  0.000245775 -0.000231683      46.2343 
         550      6.39683  0.000245169 -0.000228637      46.2343 
         550      6.47457  0.000244599 -0.000225594      46.2343 
         550      6.55284  0.000244074 -0.000222547      46.2343 
         550      6.63152  0.000243608 -0.000219497      46.2343 
         550      6.71073  0.000243217 -0.000216436      46.2343 
         550      6.79034  0.000242875 -0.000213417      46.2343 
         550      6.87049  0.000242469  -0.00021049      46.2343 
         550      6.95111  0.000242083 -0.000207547      46.2343 
         550      7.03214   0.00024171 -0.000204601      46.2343 
         550       7.1137  0.000241344 -0.000201656      46.2343 
         550      7.19566   0.00024098 -0.000198724      46.2343 
         550      7.27816  0.000240616 -0.000195807      46.2343 
         550      7.36106  0.000240249 -0.000192912      46.2343 
         550      7.44451   0.00023988  -0.00019004      46.2343 
         550      7.52842  0.000239507 -0.000187195      46.2343 
         550      7.61273  0.000239132  -0.00018438      46.2343 
         550      7.69758  0.000238756 -0.000181591      46.2343 
         550      7.78283   0.00023838 -0.000178833      46.2343 
         550      7.86862  0.000238007 -0.000176102      46.2343 
         550      7.95481  0.000237639   -0.0001734      46.2343 
         550      8.04155  0.000237277 -0.000170723      46.2343 
         550      8.12868  0.000236925 -0.000168073      46.2343 
         550      8.21635  0.000236582 -0.000165446      46.2343 
         550      8.30449  0.000236249 -0.000162843      46.2343 
         550      8.39303  0.000235929 -0.000160264      46.2343 
         550      8.48211  0.000235619 -0.000157708      46.2343 
         550      8.57159  0.000235318 -0.000155176      46.2343 
         550      8.66161  0.000235023 -0.000152667      46.2343 
         550      8.75203  0.000234732 -0.000150185      46.2343 
         550      8.84299  0.000234438 -0.000147729      46.2343 
         550      8.93443  0.000234134 -0.000145304      46.2343 
         550      9.02626  0.000233815 -0.000142912      46.2343 
         550      9.11863  0.000233468 -0.000140556      46.2343 
         550      9.21139  0.000233083 -0.000138241      46.2343 
         550      9.30471  0.000232719 -0.000135929      46.2343 
         550      9.39841  0.000232383 -0.000133613      46.2343 
         550      9.49267  0.000232085 -0.000131288      46.2343 
         550      9.58739  0.000231845 -0.000128947      46.2343 
         550      9.68251  0.000231572 -0.000126686      46.2343 
         550      9.77817  0.000231257 -0.000124531      46.2343 
         550      9.87422  0.000230977  -0.00012241      46.2343 
         550      9.97083  0.000230717 -0.000120314      46.2343 
         550      10.0678  0.000230467 -0.000118242      46.2343 
         550      10.1654   0.00023022 -0.000116189      46.2343 
         550      10.2633  0.000229969 -0.000114156      46.2343 
         550      10.3618  0.000229713  -0.00011214      46.2343 
         550      10.4607   0.00022945 -0.000110142      46.2343 
         550      10.5601  0.000229181 -0.000108166      46.2343 
         550        10.66  0.000228907 -0.000106208      46.2343 
         550      10.7603  0.000228631 -0.000104275      46.2343 
         550      10.8611  0.000228355 -0.000102365      46.2343 
         550      10.9623  0.000228083 -0.000100483      46.2343 
         550      11.0641  0.000227816  -9.8628e-05      46.2343 
         550      11.1663  0.000227558 -9.68025e-05      46.2343 
         550       11.269  0.000227309 -9.50095e-05      46.2343 
         550      11.3721  0.000227072 -9.32471e-05      46.2343 
         550      11.4757  0.000226846 -9.15186e-05      46.2343 
         550      11.5798  0.000226629 -8.98213e-05      46.2343 
         550      11.6844  0.000226422 -8.81572e-05      46.2343 
         550      11.7894   0.00022622 -8.65226e-05      46.2343 
         550       11.895  0.000226022 -8.49173e-05      46.2343 
         550      12.0009  0.000225824 -8.33404e-05      46.2343 
         550      12.1073  0.000225621 -8.17869e-05      46.2343 
         550      12.2142  0.000225412 -8.02567e-05      46.2343 
         550      12.3216  0.000225193 -7.87443e-05      46.2343 
         550      12.4294  0.000224964 -7.72495e-05      46.2343 
         550      12.5378  0.000224725 -7.57672e-05      46.2343 
         550      12.6465  0.000224482 -7.42979e-05      46.2343 
         550      12.7558  0.000224242  -7.2838e-05      46.2343 
         550      12.8656  0.000224091 -7.14107e-05      46.2343 
         550      12.9757  0.000224009  -6.9992e-05      46.2343 
         550      13.0864  0.000223919 -6.85705e-05      46.2343 
         550      13.1975   0.00022382 -6.71721e-05      46.2343 
         550      13.3092  0.000223711 -6.58191e-05      46.2343 
         550      13.4212   0.00022359  -6.4539e-05      46.2343 
         550      13.5338  0.000223455 -6.33555e-05      46.2343 
         550      13.6468  0.000223304 -6.22967e-05      46.2343 
         550      13.7603  0.000223139  -6.1195e-05      46.2343 
         550      13.8743  0.000222969 -5.97888e-05      46.2343 
         550      13.9886  0.000222791 -5.84599e-05      46.2343 
         550      14.1036  0.000222608 -5.71967e-05      46.2343 
         550      14.2189  0.000222422 -5.59926e-05      46.2343 
         550      14.3348  0.000222237 -5.48378e-05      46.2343 
         550       14.451  0.000222056  -5.3727e-05      46.2343 
         550      14.5678  0.000221882 -5.26519e-05      46.2343 
         550      14.6851  0.000221716 -5.16078e-05      46.2343 
         550      14.8028   0.00022156 -5.05905e-05      46.2343 
         550       14.921  0.000221417 -4.95939e-05      46.2343 
         550      15.0396  0.000221286 -4.86161e-05      46.2343 
         550      15.1588  0.000221169 -4.76524e-05      46.2343 
         550      15.2783  0.000221064  -4.6702e-05      46.2343 
         550      15.3984  0.000220972 -4.57615e-05      46.2343 
         550       15.519   0.00022089 -4.48304e-05      46.2343 
         550        15.64  0.000220818 -4.39086e-05      46.2343 
         550      15.7615  0.000220752 -4.29945e-05      46.2343 
         550      15.8834  0.000220691 -4.20897e-05      46.2343 
         550      16.0058  0.000220632 -4.11933e-05      46.2343 
         550      16.1286  0.000220571 -4.03078e-05      46.2343 
         550       16.252  0.000220507 -3.94331e-05      46.2343 
         550      16.3759  0.000220436 -3.85714e-05      46.2343 
         550      16.5002  0.000220357 -3.77252e-05      46.2343 
         550       16.625  0.000220267 -3.68953e-05      46.2343 
         550      16.7501  0.000220167 -3.60851e-05      46.2343 
         550      16.8759  0.000220058 -3.52955e-05      46.2343 
         550       17.002  0.000219941   -3.453e-05      46.2343 
         550      17.1287  0.000219822 -3.37895e-05      46.2343 
         550      17.2557  0.000219707 -3.30773e-05      46.2343 
         550      17.3834  0.000219607 -3.23941e-05      46.2343 
         550      17.5115  0.000219534 -3.17421e-05      46.2343 
         550      17.6399  0.000219507 -3.11232e-05      46.2343 
         550       17.769    0.0002194  -3.0461e-05      46.2343 
         550      17.8984   0.00021926 -2.97832e-05      46.2343 
         550      18.0284  0.000219152 -2.91258e-05      46.2343 
         550      18.1587  0.000219069 -2.84886e-05      46.2343 
         550      18.2896  0.000219006 -2.78698e-05      46.2343 
         550       18.421  0.000218957 -2.72691e-05      46.2343 
         550      18.5528  0.000218918 -2.66863e-05      46.2343 
         550      18.6851  0.000218885 -2.61199e-05      46.2343 
         550      18.8178  0.000218857   -2.557e-05      46.2343 
         550      18.9511   0.00021883 -2.50352e-05      46.2343 
         550      19.0847  0.000218803 -2.45157e-05      46.2343 
         550      19.2189  0.000218774 -2.40098e-05      46.2343 
         550      19.3535  0.000218743 -2.35174e-05      46.2343 
         550      19.4886  0.000218708 -2.30367e-05      46.2343 
         550      19.6242  0.000218669 -2.25671e-05      46.2343 
         550      19.7602  0.000218626 -2.21074e-05      46.2343 
         550      19.8968   0.00021858 -2.16557e-05      46.2343 
         550      20.0337  0.000218529 -2.12109e-05      46.2343 
         550      20.1712  0.000218475 -2.07705e-05      46.2343 
         550      20.3091  0.000218418 -2.03334e-05      46.2343 
         550      20.4475  0.000218359  -1.9897e-05      46.2343 
         550      20.5864  0.000218297 -1.94593e-05      46.2343 
         550      20.7257  0.000218234 -1.90186e-05      46.2343 
         550      20.8655  0.000218171 -1.85721e-05      46.2343 
         550      21.0058  0.000218108 -1.81183e-05      46.2342 
         550      21.1465  0.000218047 -1.76545e-05      46.2342 
         550      21.2877  0.000218009 -1.72806e-05      46.2342 
         550      21.4294  0.000217988 -1.69615e-05      46.2342 
         550      21.5716  0.000217965 -1.66207e-05      46.2342 
         550      21.7142  0.000217943 -1.62689e-05      46.2342 
         550      21.8573   0.00021792 -1.59141e-05      46.2342 
         550      22.0008  0.000217896 -1.55639e-05      46.2342 
         550      22.1449   0.00021787 -1.52229e-05      46.2342 
         550      22.2893  0.000217841 -1.48954e-05      46.2342 
         550      22.4344  0.000217807 -1.45831e-05      46.2342 
         550      22.5797  0.000217769 -1.42869e-05      46.2342 
         550      22.7257  0.000217726 -1.40058e-05      46.2342 
         550      22.8721   0.00021768 -1.37376e-05      46.2342 
         550      23.0189  0.000217633 -1.34788e-05      46.2342 
         550      23.1663  0.000217591 -1.32241e-05      46.2342 
         550       23.314  0.000217561 -1.29675e-05      46.2342 
         550      23.4623  0.000217554 -1.27007e-05      46.2342 
         550       23.611  0.000217586 -1.24152e-05      46.2342 
         550      23.7602  0.000217674 -1.21002e-05      46.2342 
         550        23.91  0.000217681 -1.18523e-05      46.2342 
         550        24.06  0.000217664 -1.16018e-05      46.2342 
         550      24.2107  0.000217647 -1.13373e-05      46.2342 
         550      24.3617  0.000217628 -1.10669e-05      46.2342 
         550      24.5133  0.000217609 -1.07961e-05      46.2342 
         550      24.6653  0.000217589 -1.05304e-05      46.2342 
         550      24.8178  0.000217569 -1.02728e-05      46.2342 
         550      24.9708  0.000217547 -1.00261e-05      46.2342 
         550      25.1242  0.000217525 -9.79217e-06      46.2342 
         550      25.2781  0.000217503 -9.57132e-06      46.2342 
         550      25.4324   0.00021748 -9.36401e-06      46.2342 
         550      25.5873  0.000217457 -9.16938e-06      46.2342 
         550      25.7426  0.000217435 -8.98679e-06      46.2342 
         550      25.8984  0.000217413 -8.81459e-06      46.2342 
         550      26.0546  0.000217392 -8.65146e-06      46.2342 
         550      26.2114  0.000217373 -8.49541e-06      46.2342 
         550      26.3686  0.000217354 -8.34473e-06      46.2342 
         550      26.5262  0.000217337 -8.19778e-06      46.2342 
         550      26.6844  0.000217322 -8.05262e-06      46.2342 
         550      26.8429  0.000217308 -7.90798e-06      46.2342 
         550       27.002  0.000217296 -7.76236e-06      46.2342 
         550      27.1615  0.000217286 -7.61503e-06      46.2342 
         550      27.3216  0.000217277 -7.46511e-06      46.2342 
         550      27.4821  0.000217271 -7.31247e-06      46.2342 
         550       27.643  0.000217266 -7.15737e-06      46.2342 
         550      27.8044  0.000217263  -7.0001e-06      46.2342 
         550      27.9663  0.000217262 -6.84189e-06      46.2342 
         550      28.1287  0.000217263 -6.68383e-06      46.2342 
         550      28.2914  0.000217266 -6.52789e-06      46.2342 
         550      28.4548   0.00021727 -6.37587e-06      46.2342 
         550      28.6185  0.000217277 -6.23033e-06      46.2342 
         550      28.7828  0.000217286 -6.09352e-06      46.2342 
         550      28.9475  0.000217297 -5.96816e-06      46.2342 
         550      29.1126  0.000217313 -5.85692e-06      46.2342 
         550      29.2784  0.000217321 -5.81419e-06      46.2342 
         550      29.4444  0.000217317 -5.81085e-06      46.2342 
         550       29.611  0.000217306 -5.80743e-06      46.2342 
         550       29.778  0.000217286 -5.79889e-06      46.2342 
         550      29.9456  0.000217256 -5.77976e-06      46.2342 
         550      30.1137  0.000217215 -5.74417e-06      46.2342 
         550      30.2821  0.000217164 -5.68587e-06      46.2342 
         550      30.4511  0.000217102 -5.59803e-06      46.2342 
         550      30.6204  0.000217028 -5.47359e-06      46.2342 
         550      30.7903  0.000216945 -5.30466e-06      46.2342 
         550      30.9606  0.000216853 -5.08334e-06      46.2342 
         550      31.1315  0.000216754 -4.80059e-06      46.2341 
         550      31.3028  0.000216667 -4.48857e-06      46.2341 
         550      31.4745  0.000216757 -4.60113e-06      46.2341 
         550      31.6468  0.000216842 -4.71212e-06      46.2341 
         550      31.8194  0.000216919 -4.80678e-06      46.2341 
         550      31.9926  0.000216984 -4.87408e-06      46.2341 
         550      32.1662  0.000217035 -4.90586e-06      46.2341 
         550      32.3404   0.00021707 -4.89698e-06      46.2341 
         550      32.5149  0.000217085  -4.8448e-06      46.2341 
         550        32.69  0.000217081 -4.74883e-06      46.2341 
         550      32.8655   0.00021706 -4.59428e-06      46.2341 
         550      33.0414  0.000217041 -4.43623e-06      46.2341 
         550       33.218  0.000217024 -4.29054e-06      46.2341 
         550      33.3948  0.000217008 -4.16162e-06      46.2341 
         550      33.5723  0.000216995  -4.0514e-06      46.2341 
         550        33.75  0.000216982 -3.96056e-06      46.2341 
         550      33.9284   0.00021697 -3.88806e-06      46.2341 
         550      34.1073  0.000216958 -3.83207e-06      46.2341 
         550      34.2865  0.000216945 -3.78997e-06      46.2341 
         550      34.4663  0.000216932 -3.75856e-06      46.2341 
         550      34.6465  0.000216917 -3.73454e-06      46.2341 
         550      34.8272  0.000216902 -3.71454e-06      46.2341 
         550      35.0083  0.000216886 -3.69543e-06      46.2341 
         550        35.19  0.000216869 -3.67441e-06      46.2341 
         550      35.3721  0.000216852 -3.64923e-06      46.2341 
         550      35.5546  0.000216835 -3.61826e-06      46.2341 
         550      35.7377   0.00021682 -3.58051e-06      46.2341 
         550      35.9211  0.000216808 -3.53582e-06      46.2341 
         550      36.1052  0.000216798 -3.48465e-06      46.2341 
         550      36.2895  0.000216794 -3.42828e-06      46.2341 
         550      36.4745  0.000216795  -3.3685e-06      46.2341 
         550      36.6598  0.000216802 -3.30772e-06      46.2341 
         550      36.8457  0.000216816 -3.24854e-06      46.2341 
         550      37.0321  0.000216837  -3.1938e-06      46.2341 
         550      37.2188  0.000216865 -3.14616e-06      46.2341 
         550      37.4062  0.000216898 -3.10773e-06      46.2341 
         550      37.5938  0.000216935 -3.07988e-06      46.2341 
         550      37.7821  0.000216973  -3.0626e-06      46.2341 
         550      37.9707  0.000217007 -3.05416e-06      46.2341 
         550      38.1599  0.000217032 -3.05047e-06      46.2341 
         550      38.3496  0.000217039 -3.04449e-06      46.2341 
         550      38.5396  0.000217021 -3.02554e-06       46.234 
         550      38.7302  0.000216964 -2.97846e-06       46.234 
         550      38.9211  0.000216854 -2.88298e-06       46.234 
         550      39.1127  0.000216673 -2.71239e-06       46.234 
         550      39.3046  0.000216606 -2.68033e-06       46.234 
         550      39.4971  0.000216649 -2.74146e-06       46.234 
         550      39.6899  0.000216696 -2.76935e-06       46.234 
         550      39.8833  0.000216743 -2.77168e-06       46.234 
         550      40.0772  0.000216788 -2.75488e-06       46.234 
         550      40.2714   0.00021683 -2.72434e-06       46.234 
         550      40.4663  0.000216868 -2.68433e-06       46.234 
         550      40.6615    0.0002169 -2.63828e-06       46.234 
         550      40.8573  0.000216928 -2.58861e-06       46.234 
         550      41.0534   0.00021695 -2.53711e-06       46.234 
         550      41.2501  0.000216968 -2.48477e-06       46.234 
         550      41.4473   0.00021698 -2.43215e-06       46.234 
         550      41.6448  0.000216988 -2.37942e-06       46.234 
         550      41.8429  0.000216991 -2.32637e-06       46.234 
         550      42.0414   0.00021699 -2.27287e-06       46.234 
         550      42.2405  0.000216983 -2.21871e-06       46.234 
         550      42.4399  0.000216971 -2.16413e-06       46.234 
         550      42.6399  0.000216953 -2.10967e-06       46.234 
         550      42.8404  0.000216929 -2.05672e-06       46.234 
         550      43.0412  0.000216897 -2.00762e-06       46.234 
         550      43.2426  0.000216857 -1.96575e-06       46.234 
         550      43.4444  0.000216809 -1.93615e-06       46.234 
         550      43.6467  0.000216751 -1.92548e-06       46.234 
         550      43.8494  0.000216732 -1.90202e-06       46.234 
         550      44.0527  0.000216759 -1.84482e-06       46.234 
         550      44.2563  0.000216782 -1.79188e-06       46.234 
         550      44.4606  0.000216801 -1.74466e-06       46.234 
         550      44.6653  0.000216819 -1.70458e-06      46.2339 
         550      44.8704  0.000216837 -1.67281e-06      46.2339 
         550       45.076  0.000216853 -1.65016e-06      46.2339 
         550       45.282   0.00021687 -1.63722e-06      46.2339 
         550      45.4886  0.000216885 -1.63412e-06      46.2339 
         550      45.6955  0.000216899 -1.64067e-06      46.2339 
         550       45.903   0.00021691 -1.65625e-06      46.2339 
         550      46.1111  0.000216918 -1.67981e-06      46.2339 
         550      46.3194  0.000216921 -1.70988e-06      46.2339 
         550      46.5283   0.00021692 -1.74466e-06      46.2339 
         550      46.7376  0.000216912 -1.78188e-06      46.2339 
         550      46.9475  0.000216898 -1.81904e-06      46.2339 
         550      47.1577  0.000216878 -1.85327e-06      46.2339 
         550      47.3685  0.000216853 -1.88159e-06      46.2339 
         550      47.5798  0.000216825 -1.90079e-06      46.2339 
         550      47.7914  0.000216795 -1.90768e-06      46.2339 
         550      48.0037  0.000216767 -1.89912e-06      46.2339 