Variables = x, y, u, v, p

Zone, I=800, F=POINT
        1000            0           -0           -0    -0.293649 
        1000     0.000234 -4.15331e-06  7.99596e-11    -0.293649 
        1000     0.000939 -1.61592e-05  6.58737e-10    -0.293649 
        1000     0.002113  -3.4603e-05  2.73714e-09    -0.293649 
        1000     0.003759  -5.7661e-05  7.95705e-09    -0.293649 
        1000     0.005872 -8.34413e-05  1.85103e-08    -0.293649 
        1000     0.008457 -0.000110753  3.71295e-08    -0.293649 
        1000      0.01151  -0.00013923  6.69011e-08    -0.293649 
        1000     0.015036 -0.000169603  1.11288e-07    -0.293649 
        1000     0.019031 -0.000203251  1.73828e-07    -0.293649 
        1000     0.023493 -0.000241725   2.5808e-07    -0.293649 
        1000     0.028429 -0.000286098  3.67674e-07    -0.293649 
        1000     0.033831 -0.000336181  5.05661e-07    -0.293649 
        1000     0.039706 -0.000390678  6.75024e-07    -0.293649 
        1000     0.046047 -0.000447523  8.77797e-07    -0.293649 
        1000     0.052863 -0.000505461   1.1158e-06    -0.293649 
        1000      0.06015 -0.000565234   1.3896e-06    -0.293649 
        1000       0.0679 -0.000629772  1.69858e-06    -0.293649 
        1000     0.076126 -0.000700103  2.04193e-06    -0.293649 
        1000     0.084816 -0.000765261  2.41667e-06    -0.293649 
        1000     0.093982 -0.000836833  2.81958e-06    -0.293649 
        1000     0.103611 -0.000908332  3.24517e-06    -0.293649 
        1000     0.113718 -0.000979939  3.68797e-06    -0.293649 
        1000     0.124286  -0.00105143  4.13989e-06    -0.293649 
        1000     0.135333  -0.00112265  4.59316e-06    -0.293649 
        1000      0.14685  -0.00119308  5.03776e-06    -0.293649 
        1000     0.158827  -0.00126212  5.46278e-06    -0.293649 
        1000     0.171284  -0.00132928  5.85752e-06    -0.293649 
        1000     0.184201  -0.00139391  6.20931e-06    -0.293649 
        1000     0.197599  -0.00145568  6.50616e-06    -0.293649 
        1000     0.211455  -0.00151419  6.73473e-06    -0.293649 
        1000     0.225792  -0.00156932  6.88243e-06    -0.293649 
        1000       0.2406  -0.00162058  6.93599e-06    -0.293649 
        1000     0.255865  -0.00166727  6.88269e-06    -0.293649 
        1000     0.271613   -0.0017098  6.71098e-06    -0.293649 
        1000     0.287818  -0.00174769   6.4095e-06    -0.293649 
        1000     0.304506  -0.00178089  5.96697e-06    -0.293649 
        1000      0.32165  -0.00180932  5.37441e-06     -0.29365 
        1000     0.339278  -0.00183306   4.6224e-06     -0.29365 
        1000     0.357377  -0.00185214  3.70421e-06     -0.29365 
        1000      0.37593  -0.00186667  2.61519e-06     -0.29365 
        1000     0.394968  -0.00187685   1.3493e-06     -0.29365 
        1000     0.414461  -0.00188288 -9.42637e-08     -0.29365 
        1000      0.43444  -0.00188502 -1.71921e-06     -0.29365 
        1000     0.454872  -0.00188354 -3.52286e-06     -0.29365 
        1000     0.475791  -0.00187877 -5.50695e-06     -0.29365 
        1000     0.497163  -0.00187103  -7.6657e-06     -0.29365 
        1000     0.519021  -0.00186066 -9.99856e-06     -0.29365 
        1000      0.54135  -0.00184801 -1.24988e-05     -0.29365 
        1000     0.564131  -0.00183342 -1.51573e-05     -0.29365 
        1000       0.5874   -0.0018172 -1.79694e-05     -0.29365 
        1000     0.611121  -0.00179968 -2.09192e-05    -0.293651 
        1000      0.63533  -0.00178113 -2.40077e-05    -0.293651 
        1000      0.65999  -0.00176187 -2.72236e-05    -0.293651 
        1000     0.685139  -0.00174209 -3.05587e-05    -0.293651 
        1000     0.710759    -0.001722 -3.39976e-05    -0.293651 
        1000     0.736828  -0.00170177 -3.75244e-05    -0.293651 
        1000     0.763387  -0.00168149 -4.11315e-05    -0.293651 
        1000     0.790396  -0.00166128 -4.48009e-05    -0.293651 
        1000     0.817896  -0.00164115 -4.85256e-05    -0.293651 
        1000     0.845843  -0.00162115 -5.22875e-05    -0.293651 
        1000     0.874283  -0.00160123 -5.60807e-05    -0.293651 
        1000      0.90317  -0.00158137 -5.98876e-05    -0.293651 
        1000     0.932551  -0.00156145 -6.37032e-05    -0.293652 
        1000     0.962401  -0.00154139 -6.75132e-05    -0.293652 
        1000     0.992697  -0.00152108 -7.13042e-05    -0.293652 
        1000      1.02349  -0.00150036 -7.50724e-05    -0.293652 
        1000      1.05472  -0.00147913  -7.8802e-05    -0.293652 
        1000      1.08645  -0.00145721 -8.24899e-05    -0.293652 
        1000      1.11863  -0.00143453 -8.61219e-05    -0.293652 
        1000       1.1513  -0.00141092 -8.96959e-05    -0.293652 
        1000      1.18444  -0.00138633 -9.32025e-05    -0.293652 
        1000      1.21802  -0.00136072 -9.66332e-05    -0.293651 
        1000      1.25211  -0.00133403   -9.999e-05    -0.293651 
        1000      1.28663  -0.00130631 -0.000103265    -0.293651 
        1000      1.32165  -0.00127758 -0.000106465    -0.293651 
        1000      1.35712  -0.00124796 -0.000109589    -0.293651 
        1000      1.39308  -0.00121753  -0.00011265    -0.293651 
        1000      1.42951  -0.00118645  -0.00011566    -0.293651 
        1000      1.46638  -0.00115486 -0.000118636     -0.29365 
        1000      1.50375  -0.00112284 -0.000121613     -0.29365 
        1000      1.54156  -0.00108986 -0.000124464     -0.29365 
        1000      1.57987  -0.00105746 -0.000127274    -0.293649 
        1000      1.61863  -0.00102575 -0.000130057    -0.293649 
        1000      1.65788 -0.000994671 -0.000132825    -0.293648 
        1000      1.69757 -0.000964232  -0.00013558    -0.293648 
        1000      1.73776 -0.000934355 -0.000138332    -0.293647 
        1000      1.77842 -0.000905026 -0.000141084    -0.293647 
        1000      1.81952 -0.000876227 -0.000143836    -0.293646 
        1000      1.86113 -0.000847865 -0.000146596    -0.293645 
        1000      1.90316 -0.000819939  -0.00014936    -0.293644 
        1000      1.94571 -0.000792354 -0.000152134    -0.293644 
        1000      1.98869 -0.000765102  -0.00015491    -0.293643 
        1000      2.03217 -0.000738084 -0.000157693    -0.293642 
        1000      2.07612 -0.000711269 -0.000160478    -0.293641 
        1000      2.12051 -0.000684625 -0.000163259     -0.29364 
        1000       2.1654 -0.000658055 -0.000166036    -0.293638 
        1000      2.21073  -0.00063155 -0.000168802    -0.293637 
        1000      2.25656  -0.00060502 -0.000171554    -0.293636 
        1000      2.30283  -0.00057846 -0.000174285    -0.293634 
        1000       2.3496 -0.000551786 -0.000176993    -0.293633 
        1000      2.39685 -0.000524984 -0.000179671    -0.293631 
        1000      2.44452 -0.000498042 -0.000182312     -0.29363 
        1000      2.49271 -0.000470894 -0.000184915    -0.293628 
        1000      2.54132 -0.000443563 -0.000187471    -0.293626 
        1000      2.59044 -0.000415996 -0.000189981    -0.293624 
        1000         2.64 -0.000388234 -0.000192437    -0.293622 
        1000      2.69006 -0.000360239 -0.000194841     -0.29362 
        1000      2.74056 -0.000332071 -0.000197187    -0.293618 
        1000      2.79156 -0.000303707 -0.000199477    -0.293616 
        1000      2.84304 -0.000275204  -0.00020171    -0.293613 
        1000      2.89494 -0.000246623 -0.000203883    -0.293611 
        1000      2.94735 -0.000217968 -0.000206002    -0.293608 
        1000       3.0002 -0.000189341 -0.000208064    -0.293606 
        1000      3.05355 -0.000160759 -0.000210074    -0.293603 
        1000      3.10733 -0.000132331 -0.000212031      -0.2936 
        1000      3.16163 -0.000104083 -0.000213938    -0.293597 
        1000      3.21639 -7.61065e-05 -0.000215794    -0.293594 
        1000      3.27158 -4.84897e-05 -0.000217597    -0.293591 
        1000      3.32729 -2.12494e-05 -0.000219344    -0.293588 
        1000      3.38342  5.52056e-06 -0.000221028    -0.293585 
        1000      3.44007  3.18259e-05 -0.000222639    -0.293582 
        1000      3.49714  5.76089e-05 -0.000224158    -0.293578 
        1000      3.55472  8.29201e-05 -0.000225566    -0.293575 
        1000      3.61273  0.000107762  -0.00022683    -0.293571 
        1000      3.67125  0.000132259  -0.00022791    -0.293567 
        1000      3.73025  0.000156524 -0.000228752    -0.293564 
        1000      3.78967  0.000180727 -0.000229812     -0.29356 
        1000      3.84961  0.000204303 -0.000230975    -0.293556 
        1000      3.90996  0.000227049  -0.00023202    -0.293552 
        1000      3.97084  0.000248977 -0.000232955    -0.293548 
        1000      4.03214  0.000270032 -0.000233782    -0.293544 
        1000      4.09395  0.000290226 -0.000234509    -0.293539 
        1000      4.15624  0.000309524  -0.00023514    -0.293535 
        1000      4.21895    0.0003279  -0.00023568    -0.293531 
        1000      4.28217   0.00034537 -0.000236133    -0.293527 
        1000      4.34582  0.000361897 -0.000236505    -0.293522 
        1000      4.40998  0.000377502   -0.0002368    -0.293518 
        1000      4.47457  0.000392156 -0.000237021    -0.293513 
        1000      4.53968  0.000405881 -0.000237174    -0.293509 
        1000      4.60525  0.000418666 -0.000237262    -0.293504 
        1000      4.67125  0.000430508 -0.000237288    -0.293499 
        1000      4.73777  0.000441431 -0.000237257    -0.293495 
        1000       4.8047  0.000451427 -0.000237171     -0.29349 
        1000      4.87216  0.000460525 -0.000237034    -0.293485 
        1000      4.94003  0.000468724 -0.000236849    -0.293481 
        1000      5.00843  0.000476054 -0.000236617    -0.293476 
        1000      5.07724  0.000482521 -0.000236343    -0.293471 
        1000      5.14658  0.000488157 -0.000236028    -0.293466 
        1000      5.21639   0.00049298 -0.000235673    -0.293461 
        1000      5.28661  0.000497011 -0.000235283    -0.293457 
        1000      5.35736  0.000500284 -0.000234857    -0.293452 
        1000      5.42852  0.000502822 -0.000234397    -0.293447 
        1000      5.50021  0.000504658 -0.000233905    -0.293442 
        1000      5.57231  0.000505821 -0.000233383    -0.293437 
        1000      5.64493  0.000506345 -0.000232831    -0.293433 
        1000      5.71803  0.000506263 -0.000232249    -0.293428 
        1000      5.79154  0.000505609  -0.00023164    -0.293423 
        1000      5.86558  0.000504417 -0.000231003    -0.293418 
        1000      5.94003  0.000502725  -0.00023034    -0.293413 
        1000      6.01501  0.000500565  -0.00022965    -0.293408 
        1000       6.0904  0.000497977 -0.000228934    -0.293404 
        1000      6.16632  0.000494992 -0.000228193    -0.293399 
        1000      6.24271  0.000491647 -0.000227425    -0.293394 
        1000       6.3195   0.00048798 -0.000226634    -0.293389 
        1000      6.39683  0.000484019 -0.000225816    -0.293385 
        1000      6.47457  0.000479803 -0.000224975     -0.29338 
        1000      6.55284  0.000475358 -0.000224108    -0.293375 
        1000      6.63152  0.000470719 -0.000223218    -0.293371 
        1000      6.71073  0.000465909 -0.000222303    -0.293366 
        1000      6.79034  0.000460962 -0.000221364    -0.293361 
        1000      6.87049  0.000455896 -0.000220402    -0.293357 
        1000      6.95111  0.000450736 -0.000219416    -0.293352 
        1000      7.03214  0.000445507 -0.000218409    -0.293347 
        1000       7.1137  0.000440218 -0.000217379    -0.293343 
        1000      7.19566  0.000434894 -0.000216329    -0.293338 
        1000      7.27816  0.000429537 -0.000215258    -0.293334 
        1000      7.36106  0.000424166 -0.000214169    -0.293329 
        1000      7.44451  0.000418781 -0.000213082    -0.293325 
        1000      7.52842  0.000413406 -0.000211995     -0.29332 
        1000      7.61273  0.000408054 -0.000210908    -0.293316 
        1000      7.69758  0.000402722 -0.000209819    -0.293312 
        1000      7.78283  0.000397421 -0.000208732    -0.293307 
        1000      7.86862  0.000392144 -0.000207644    -0.293303 
        1000      7.95481  0.000386899 -0.000206559    -0.293299 
        1000      8.04155  0.000381676 -0.000205475    -0.293294 
        1000      8.12868   0.00037648 -0.000204395     -0.29329 
        1000      8.21635  0.000371297 -0.000203317    -0.293286 
        1000      8.30449  0.000366125 -0.000202244    -0.293282 
        1000      8.39303  0.000360962 -0.000201177    -0.293277 
        1000      8.48211  0.000355794 -0.000200114    -0.293273 
        1000      8.57159  0.000350622 -0.000199057    -0.293269 
        1000      8.66161  0.000345434 -0.000198006    -0.293265 
        1000      8.75203  0.000340233 -0.000196963    -0.293261 
        1000      8.84299  0.000335009 -0.000195926    -0.293257 
        1000      8.93443  0.000329863 -0.000194756    -0.293253 
        1000      9.02626  0.000324764 -0.000193598    -0.293249 
        1000      9.11863  0.000319701 -0.000192457    -0.293245 
        1000      9.21139  0.000314684 -0.000191333    -0.293241 
        1000      9.30471  0.000309706  -0.00019022    -0.293237 
        1000      9.39841  0.000304777  -0.00018912    -0.293233 
        1000      9.49267  0.000299889 -0.000188028    -0.293229 
        1000      9.58739  0.000295046 -0.000186945    -0.293225 
        1000      9.68251  0.000290252  -0.00018587    -0.293222 
        1000      9.77817  0.000285501 -0.000184801    -0.293218 
        1000      9.87422  0.000280798  -0.00018374    -0.293214 
        1000      9.97083  0.000276137 -0.000182685     -0.29321 
        1000      10.0678  0.000271523 -0.000181638    -0.293207 
        1000      10.1654   0.00026695 -0.000180597    -0.293203 
        1000      10.2633  0.000262422 -0.000179567    -0.293199 
        1000      10.3618  0.000257933 -0.000178545    -0.293196 
        1000      10.4607  0.000253476  -0.00017754    -0.293192 
        1000      10.5601   0.00024906  -0.00017654    -0.293189 
        1000        10.66  0.000244686 -0.000175537    -0.293185 
        1000      10.7603  0.000240359 -0.000174534    -0.293181 
        1000      10.8611  0.000236075 -0.000173529    -0.293178 
        1000      10.9623  0.000231838 -0.000172525    -0.293175 
        1000      11.0641  0.000227643  -0.00017152    -0.293171 
        1000      11.1663  0.000223491 -0.000170517    -0.293168 
        1000       11.269  0.000219386 -0.000169516    -0.293164 
        1000      11.3721   0.00021532 -0.000168517    -0.293161 
        1000      11.4757    0.0002113 -0.000167523    -0.293158 
        1000      11.5798  0.000207317 -0.000166531    -0.293154 
        1000      11.6844  0.000203378 -0.000165544    -0.293151 
        1000      11.7894  0.000199475 -0.000164562    -0.293148 
        1000       11.895  0.000195612 -0.000163585    -0.293145 
        1000      12.0009  0.000191788 -0.000162616    -0.293141 
        1000      12.1073  0.000187999 -0.000161652    -0.293138 
        1000      12.2142  0.000184249 -0.000160695    -0.293135 
        1000      12.3216  0.000180531 -0.000159746    -0.293132 
        1000      12.4294  0.000176851 -0.000158804    -0.293129 
        1000      12.5378  0.000173201 -0.000157868    -0.293126 
        1000      12.6465  0.000169588 -0.000156941    -0.293123 
        1000      12.7558  0.000166006  -0.00015602     -0.29312 
        1000      12.8656  0.000162457 -0.000155105    -0.293117 
        1000      12.9757  0.000158944 -0.000154197    -0.293114 
        1000      13.0864  0.000155463 -0.000153293    -0.293111 
        1000      13.1975  0.000152018 -0.000152394    -0.293108 
        1000      13.3092  0.000148608 -0.000151497    -0.293105 
        1000      13.4212  0.000145237 -0.000150602    -0.293102 
        1000      13.5338  0.000141903 -0.000149706    -0.293099 
        1000      13.6468  0.000138612 -0.000148807    -0.293096 
        1000      13.7603  0.000135369 -0.000147904    -0.293094 
        1000      13.8743  0.000132172 -0.000146992    -0.293091 
        1000      13.9886  0.000129032  -0.00014607    -0.293088 
        1000      14.1036  0.000125948 -0.000145133    -0.293085 
        1000      14.2189  0.000122933 -0.000144178    -0.293083 
        1000      14.3348  0.000119987   -0.0001432     -0.29308 
        1000       14.451  0.000117125 -0.000142194    -0.293077 
        1000      14.5678   0.00011435 -0.000141154    -0.293075 
        1000      14.6851  0.000111677 -0.000140076    -0.293072 
        1000      14.8028  0.000108957 -0.000139058     -0.29307 
        1000       14.921  0.000105908 -0.000138277    -0.293067 
        1000      15.0396  0.000102963 -0.000137444    -0.293065 
        1000      15.1588  0.000100103 -0.000136569    -0.293062 
        1000      15.2783  9.73201e-05 -0.000135664     -0.29306 
        1000      15.3984  9.45999e-05 -0.000134736    -0.293057 
        1000       15.519  9.19361e-05 -0.000133793    -0.293055 
        1000        15.64  8.93237e-05 -0.000132841    -0.293052 
        1000      15.7615  8.67527e-05 -0.000131886     -0.29305 
        1000      15.8834  8.42227e-05 -0.000130931    -0.293047 
        1000      16.0058  8.17263e-05 -0.000129979    -0.293045 
        1000      16.1286  7.92649e-05 -0.000129034    -0.293043 
        1000       16.252  7.68328e-05 -0.000128095     -0.29304 
        1000      16.3759  7.44308e-05 -0.000127165    -0.293038 
        1000      16.5002  7.20602e-05 -0.000126243    -0.293036 
        1000       16.625  6.97169e-05  -0.00012533    -0.293034 
        1000      16.7501  6.74048e-05 -0.000124425    -0.293031 
        1000      16.8759  6.51201e-05 -0.000123526    -0.293029 
        1000       17.002  6.28668e-05 -0.000122634    -0.293027 
        1000      17.1287  6.06415e-05 -0.000121746    -0.293025 
        1000      17.2557   5.8448e-05 -0.000120862    -0.293023 
        1000      17.3834  5.62826e-05  -0.00011998    -0.293021 
        1000      17.5115   5.4147e-05 -0.000119098    -0.293019 
        1000      17.6399  5.20425e-05 -0.000118217    -0.293016 
        1000       17.769  4.99651e-05 -0.000117333    -0.293014 
        1000      17.8984  4.79175e-05 -0.000116449    -0.293012 
        1000      18.0284  4.58956e-05 -0.000115561     -0.29301 
        1000      18.1587  4.39017e-05 -0.000114671    -0.293008 
        1000      18.2896  4.19317e-05 -0.000113779    -0.293006 
        1000       18.421  3.99866e-05 -0.000112885    -0.293004 
        1000      18.5528  3.80673e-05 -0.000111991    -0.293002 
        1000      18.6851   3.6171e-05 -0.000111098       -0.293 
        1000      18.8178  3.43014e-05 -0.000110208    -0.292999 
        1000      18.9511  3.24571e-05 -0.000109323    -0.292997 
        1000      19.0847  3.06441e-05 -0.000108447    -0.292995 
        1000      19.2189  2.88637e-05 -0.000107581    -0.292993 
        1000      19.3535  2.71253e-05  -0.00010673    -0.292991 
        1000      19.4886  2.54345e-05 -0.000105896    -0.292989 
        1000      19.6242  2.38059e-05 -0.000105099    -0.292988 
        1000      19.7602  2.22466e-05 -0.000104302    -0.292986 
        1000      19.8968  2.07559e-05 -0.000103467    -0.292984 
        1000      20.0337  1.93416e-05 -0.000102584    -0.292982 
        1000      20.1712  1.77097e-05  -0.00010168    -0.292981 
        1000      20.3091   1.6084e-05 -0.000100806    -0.292979 
        1000      20.4475  1.44832e-05  -9.9955e-05    -0.292977 
        1000      20.5864  1.29119e-05 -9.91202e-05    -0.292976 
        1000      20.7257  1.13737e-05 -9.82975e-05    -0.292974 
        1000      20.8655  9.86763e-06 -9.74813e-05    -0.292972 
        1000      21.0058  8.39714e-06 -9.66696e-05    -0.292971 
        1000      21.1465  6.96027e-06 -9.58584e-05    -0.292969 
        1000      21.2877  5.55924e-06 -9.50473e-05    -0.292967 
        1000      21.4294  4.19123e-06 -9.42338e-05    -0.292966 
        1000      21.5716  2.85647e-06 -9.34177e-05    -0.292964 
        1000      21.7142  1.55475e-06 -9.25996e-05    -0.292963 
        1000      21.8573  2.82496e-07 -9.17782e-05    -0.292961 
        1000      22.0008 -9.59921e-07 -9.09555e-05     -0.29296 
        1000      22.1449 -2.17629e-06 -9.01307e-05    -0.292958 
        1000      22.2893 -3.36655e-06  -8.9306e-05    -0.292957 
        1000      22.4344 -4.53449e-06 -8.84813e-05    -0.292955 
        1000      22.5797 -5.68011e-06 -8.76587e-05    -0.292954 
        1000      22.7257 -6.80701e-06  -8.6838e-05    -0.292952 
        1000      22.8721 -7.91593e-06 -8.60209e-05    -0.292951 
        1000      23.0189 -9.00748e-06 -8.52089e-05     -0.29295 
        1000      23.1663 -1.00847e-05 -8.44013e-05    -0.292948 
        1000       23.314 -1.11469e-05 -8.36001e-05    -0.292947 
        1000      23.4623 -1.21965e-05 -8.28041e-05    -0.292945 
        1000       23.611 -1.32324e-05  -8.2015e-05    -0.292944 
        1000      23.7602 -1.42565e-05 -8.12312e-05    -0.292943 
        1000        23.91 -1.52677e-05  -8.0453e-05    -0.292941 
        1000        24.06 -1.62648e-05 -7.96805e-05     -0.29294 
        1000      24.2107 -1.72487e-05 -7.89116e-05    -0.292939 
        1000      24.3617 -1.82167e-05 -7.81467e-05    -0.292937 
        1000      24.5133 -1.91692e-05 -7.73833e-05    -0.292936 
        1000      24.6653 -2.01029e-05 -7.66215e-05    -0.292935 
        1000      24.8178 -2.10175e-05 -7.58589e-05    -0.292934 
        1000      24.9708 -2.19104e-05 -7.50949e-05    -0.292932 
        1000      25.1242 -2.27787e-05 -7.43291e-05    -0.292931 
        1000      25.2781 -2.36217e-05 -7.35595e-05     -0.29293 
        1000      25.4324 -2.44359e-05 -7.27868e-05    -0.292929 
        1000      25.5873 -2.52206e-05 -7.20101e-05    -0.292928 
        1000      25.7426 -2.59729e-05 -7.12312e-05    -0.292926 
        1000      25.8984 -2.66924e-05 -7.04505e-05    -0.292925 
        1000      26.0546 -2.73771e-05 -6.96719e-05    -0.292924 
        1000      26.2114 -2.81157e-05 -6.89067e-05    -0.292923 
        1000      26.3686 -2.88919e-05 -6.81594e-05    -0.292922 
        1000      26.5262 -2.96373e-05  -6.7424e-05    -0.292921 
        1000      26.6844 -3.03569e-05 -6.66991e-05     -0.29292 
        1000      26.8429  -3.1053e-05 -6.59851e-05    -0.292919 
        1000       27.002 -3.17295e-05   -6.528e-05    -0.292917 
        1000      27.1615 -3.23875e-05 -6.45835e-05    -0.292916 
        1000      27.3216 -3.30298e-05 -6.38927e-05    -0.292915 
        1000      27.4821  -3.3657e-05 -6.32055e-05    -0.292914 
        1000       27.643 -3.42694e-05 -6.25189e-05    -0.292913 
        1000      27.8044 -3.48682e-05 -6.18276e-05    -0.292912 
        1000      27.9663 -3.54522e-05 -6.11273e-05    -0.292911 
        1000      28.1287  -3.6022e-05 -6.04104e-05     -0.29291 
        1000      28.2914 -3.65768e-05 -5.96752e-05    -0.292909 
        1000      28.4548 -3.71261e-05 -5.89853e-05    -0.292908 
        1000      28.6185 -3.76588e-05 -5.82995e-05    -0.292907 
        1000      28.7828 -3.81761e-05 -5.76173e-05    -0.292906 
        1000      28.9475 -3.86779e-05 -5.69394e-05    -0.292905 
        1000      29.1126 -3.91643e-05 -5.62666e-05    -0.292904 
        1000      29.2784 -3.96366e-05  -5.5598e-05    -0.292903 
        1000      29.4444 -4.00947e-05 -5.49348e-05    -0.292902 
        1000       29.611 -4.05399e-05 -5.42759e-05    -0.292902 
        1000       29.778 -4.09721e-05 -5.36226e-05    -0.292901 
        1000      29.9456 -4.13928e-05 -5.29737e-05      -0.2929 
        1000      30.1137 -4.18021e-05 -5.23296e-05    -0.292899 
        1000      30.2821 -4.22004e-05 -5.16909e-05    -0.292898 
        1000      30.4511 -4.25889e-05 -5.10564e-05    -0.292897 
        1000      30.6204 -4.29676e-05 -5.04271e-05    -0.292896 
        1000      30.7903 -4.33375e-05 -4.98017e-05    -0.292895 
        1000      30.9606 -4.36987e-05 -4.91813e-05    -0.292895 
        1000      31.1315 -4.40519e-05 -4.85646e-05    -0.292894 
        1000      31.3028 -4.43973e-05 -4.79521e-05    -0.292893 
        1000      31.4745 -4.47349e-05 -4.73442e-05    -0.292892 
        1000      31.6468 -4.50653e-05 -4.67398e-05    -0.292891 
        1000      31.8194 -4.53881e-05 -4.61397e-05     -0.29289 
        1000      31.9926 -4.57039e-05  -4.5543e-05     -0.29289 
        1000      32.1662 -4.60122e-05 -4.49505e-05    -0.292889 
        1000      32.3404 -4.63133e-05 -4.43613e-05    -0.292888 
        1000      32.5149 -4.66065e-05 -4.37764e-05    -0.292887 
        1000        32.69 -4.68921e-05 -4.31946e-05    -0.292886 
        1000      32.8655 -4.71696e-05 -4.26166e-05    -0.292886 
        1000      33.0414 -4.74384e-05 -4.20428e-05    -0.292885 
        1000       33.218 -4.76986e-05 -4.14724e-05    -0.292884 
        1000      33.3948 -4.79496e-05 -4.09062e-05    -0.292883 
        1000      33.5723 -4.81913e-05 -4.03434e-05    -0.292883 
        1000        33.75  -4.8423e-05  -3.9785e-05    -0.292882 
        1000      33.9284  -4.8645e-05 -3.92301e-05    -0.292881 
        1000      34.1073 -4.88569e-05 -3.86792e-05     -0.29288 
        1000      34.2865 -4.90585e-05 -3.81326e-05     -0.29288 
        1000      34.4663 -4.92504e-05 -3.75894e-05    -0.292879 
        1000      34.6465 -4.94324e-05 -3.70505e-05    -0.292878 
        1000      34.8272 -4.96055e-05 -3.65147e-05    -0.292878 
        1000      35.0083 -4.97702e-05 -3.59828e-05    -0.292877 
        1000        35.19  -4.9928e-05 -3.54534e-05    -0.292876 
        1000      35.3721 -5.00801e-05 -3.49268e-05    -0.292876 
        1000      35.5546 -5.02286e-05 -3.44026e-05    -0.292875 
        1000      35.7377  -5.0376e-05 -3.38794e-05    -0.292874 
        1000      35.9211  -5.0525e-05 -3.33573e-05    -0.292874 
        1000      36.1052 -5.06797e-05 -3.28342e-05    -0.292873 
        1000      36.2895 -5.07461e-05 -3.23562e-05    -0.292872 
        1000      36.4745 -5.07839e-05 -3.18897e-05    -0.292872 
        1000      36.6598 -5.08059e-05 -3.14257e-05    -0.292871 
        1000      36.8457 -5.08194e-05 -3.09583e-05    -0.292871 
        1000      37.0321 -5.08346e-05 -3.04838e-05     -0.29287 
        1000      37.2188 -5.08651e-05 -2.99995e-05    -0.292869 
        1000      37.4062 -5.09283e-05 -2.95029e-05    -0.292869 
        1000      37.5938  -5.1046e-05 -2.89939e-05    -0.292868 
        1000      37.7821  -5.1246e-05 -2.84723e-05    -0.292868 
        1000      37.9707 -5.15613e-05 -2.79406e-05    -0.292867 
        1000      38.1599 -5.15166e-05 -2.75216e-05    -0.292866 
        1000      38.3496 -5.14571e-05 -2.71093e-05    -0.292866 
        1000      38.5396 -5.14414e-05 -2.66864e-05    -0.292865 
        1000      38.7302 -5.14628e-05  -2.6252e-05    -0.292865 
        1000      38.9211 -5.15158e-05 -2.58073e-05    -0.292864 
        1000      39.1127 -5.15955e-05 -2.53521e-05    -0.292863 
        1000      39.3046  -5.1697e-05 -2.48881e-05    -0.292863 
        1000      39.4971 -5.18155e-05 -2.44157e-05    -0.292862 
        1000      39.6899 -5.19444e-05 -2.39372e-05    -0.292862 
        1000      39.8833 -5.20763e-05 -2.34534e-05    -0.292861 
        1000      40.0772 -5.20532e-05 -2.30623e-05    -0.292861 
        1000      40.2714 -5.20166e-05 -2.26869e-05     -0.29286 
        1000      40.4663 -5.19893e-05 -2.23117e-05     -0.29286 
        1000      40.6615   -5.197e-05 -2.19369e-05    -0.292859 
        1000      40.8573  -5.1957e-05 -2.15619e-05    -0.292859 
        1000      41.0534 -5.19488e-05 -2.11873e-05    -0.292858 
        1000      41.2501 -5.19438e-05 -2.08125e-05    -0.292858 
        1000      41.4473 -5.19404e-05 -2.04381e-05    -0.292857 
        1000      41.6448  -5.1937e-05 -2.00647e-05    -0.292856 
        1000      41.8429 -5.19323e-05 -1.96921e-05    -0.292856 
        1000      42.0414 -5.19248e-05 -1.93213e-05    -0.292855 
        1000      42.2405 -5.19133e-05  -1.8952e-05    -0.292855 
        1000      42.4399 -5.18968e-05 -1.85854e-05    -0.292854 
        1000      42.6399 -5.18743e-05 -1.82212e-05    -0.292854 
        1000      42.8404  -5.1845e-05 -1.78601e-05    -0.292853 
        1000      43.0412 -5.18084e-05 -1.75028e-05    -0.292853 
        1000      43.2426 -5.17641e-05 -1.71491e-05    -0.292853 
        1000      43.4444 -5.17121e-05 -1.67997e-05    -0.292852 
        1000      43.6467 -5.16522e-05 -1.64543e-05    -0.292852 
        1000      43.8494 -5.15848e-05 -1.61136e-05    -0.292851 
        1000      44.0527 -5.15103e-05  -1.5777e-05    -0.292851 
        1000      44.2563 -5.14294e-05 -1.54452e-05     -0.29285 
        1000      44.4606  -5.1343e-05 -1.51174e-05     -0.29285 
        1000      44.6653  -5.1252e-05 -1.47938e-05    -0.292849 
        1000      44.8704 -5.11578e-05 -1.44743e-05    -0.292849 
        1000       45.076 -5.10616e-05 -1.41582e-05    -0.292848 
        1000       45.282 -5.09648e-05 -1.38457e-05    -0.292848 
        1000      45.4886  -5.0869e-05 -1.35358e-05    -0.292847 
        1000      45.6955 -5.07757e-05 -1.32287e-05    -0.292847 
        1000       45.903 -5.06864e-05 -1.29233e-05    -0.292847 
        1000      46.1111 -5.06027e-05 -1.26197e-05    -0.292846 
        1000      46.3194  -5.0526e-05 -1.23175e-05    -0.292846 
        1000      46.5283 -5.04575e-05 -1.20162e-05    -0.292845 
        1000      46.7376 -5.03983e-05 -1.17159e-05    -0.292845 
        1000      46.9475 -5.03489e-05 -1.14161e-05    -0.292844 
        1000      47.1577   -5.031e-05 -1.11174e-05    -0.292844 
        1000      47.3685 -5.02812e-05 -1.08195e-05    -0.292844 
        1000      47.5798 -5.02621e-05 -1.05234e-05    -0.292843 
        1000      47.7914 -5.02513e-05 -1.02301e-05    -0.292843 
        1000      48.0037 -5.02469e-05 -9.94031e-06    -0.292842 