Variables = x, y, u, v, p

Zone, I=800, F=POINT
         -70            0           -0           -0      10.8222 
         -70     0.000234  -5.7453e-06   3.1455e-10      10.8222 
         -70     0.000939 -2.16399e-05  7.96181e-10      10.8222 
         -70     0.002113 -4.37732e-05  1.64226e-10      10.8222 
         -70     0.003759 -6.69218e-05 -3.35257e-09      10.8222 
         -70     0.005872 -8.57907e-05 -1.15487e-08      10.8222 
         -70     0.008457  -9.6703e-05 -2.58469e-08      10.8222 
         -70      0.01151 -9.84717e-05 -4.69269e-08      10.8222 
         -70     0.015036 -9.28022e-05 -7.47666e-08      10.8222 
         -70     0.019031 -8.36596e-05 -1.08764e-07      10.8222 
         -70     0.023493 -7.58116e-05 -1.48319e-07      10.8222 
         -70     0.028429 -7.29051e-05 -1.93535e-07      10.8222 
         -70     0.033831 -7.58194e-05 -2.45512e-07      10.8222 
         -70     0.039706 -8.20245e-05 -3.06745e-07      10.8222 
         -70     0.046047 -8.67342e-05  -3.8032e-07      10.8222 
         -70     0.052863 -8.60114e-05  -4.6904e-07      10.8222 
         -70      0.06015 -8.07017e-05 -5.73606e-07      10.8222 
         -70       0.0679 -7.79977e-05 -6.92033e-07      10.8222 
         -70     0.076126 -8.37882e-05 -8.22605e-07      10.8222 
         -70     0.084816 -7.98103e-05 -9.70852e-07      10.8222 
         -70     0.093982 -7.87173e-05 -1.14083e-06      10.8222 
         -70     0.103611   -7.722e-05 -1.33626e-06      10.8222 
         -70     0.113718 -7.54077e-05 -1.55385e-06      10.8222 
         -70     0.124286 -7.33666e-05 -1.79325e-06      10.8222 
         -70     0.135333 -7.11625e-05 -2.05798e-06      10.8222 
         -70      0.14685 -6.88483e-05 -2.35291e-06      10.8222 
         -70     0.158827  -6.6458e-05 -2.68297e-06      10.8222 
         -70     0.171284 -6.40026e-05 -3.05199e-06      10.8222 
         -70     0.184201 -6.14894e-05 -3.45891e-06      10.8222 
         -70     0.197599 -5.89151e-05 -3.89947e-06      10.8222 
         -70     0.211455  -5.6293e-05  -4.3653e-06      10.8222 
         -70     0.225792 -5.36471e-05 -4.85295e-06      10.8222 
         -70       0.2406 -5.10365e-05 -5.37407e-06      10.8222 
         -70     0.255865 -4.84993e-05 -5.91765e-06      10.8222 
         -70     0.271613 -4.59607e-05   -6.423e-06      10.8222 
         -70     0.287818 -4.35085e-05 -6.91123e-06      10.8222 
         -70     0.304506 -4.11818e-05 -7.33825e-06      10.8222 
         -70      0.32165 -3.90179e-05 -7.67483e-06      10.8222 
         -70     0.339278 -3.70366e-05 -7.91002e-06      10.8222 
         -70     0.357377 -3.52531e-05 -8.04863e-06      10.8222 
         -70      0.37593 -3.36735e-05 -8.11101e-06      10.8222 
         -70     0.394968 -3.22921e-05 -8.13031e-06      10.8222 
         -70     0.414461 -3.11032e-05 -8.14844e-06      10.8222 
         -70      0.43444 -3.00937e-05 -8.21153e-06      10.8221 
         -70     0.454872 -2.92542e-05 -8.36395e-06      10.8221 
         -70     0.475791 -2.85753e-05 -8.64229e-06      10.8221 
         -70     0.497163 -2.80553e-05 -9.06734e-06      10.8221 
         -70     0.519021  -2.7698e-05   -9.639e-06      10.8221 
         -70      0.54135 -2.75167e-05 -1.03279e-05      10.8221 
         -70     0.564131 -2.75309e-05  -1.1071e-05      10.8221 
         -70       0.5874  -2.7763e-05 -1.17712e-05      10.8221 
         -70     0.611121 -2.82328e-05 -1.22826e-05      10.8221 
         -70      0.63533 -2.90241e-05 -1.26131e-05       10.822 
         -70      0.65999 -3.00924e-05 -1.30428e-05       10.822 
         -70     0.685139 -3.13573e-05 -1.35596e-05       10.822 
         -70     0.710759 -3.27433e-05 -1.41497e-05       10.822 
         -70     0.736828 -3.41829e-05  -1.4799e-05       10.822 
         -70     0.763387 -3.56216e-05 -1.54947e-05      10.8219 
         -70     0.790396 -3.70103e-05 -1.62222e-05      10.8219 
         -70     0.817896 -3.83148e-05 -1.69693e-05      10.8219 
         -70     0.845843 -3.95077e-05 -1.77222e-05      10.8219 
         -70     0.874283 -4.05765e-05 -1.84702e-05      10.8219 
         -70      0.90317 -4.15159e-05 -1.92013e-05      10.8218 
         -70     0.932551 -4.23338e-05 -1.99069e-05      10.8218 
         -70     0.962401 -4.30456e-05 -2.05781e-05      10.8218 
         -70     0.992697 -4.36752e-05  -2.1208e-05      10.8217 
         -70      1.02349 -4.42549e-05 -2.17929e-05      10.8217 
         -70      1.05472 -4.48204e-05 -2.23288e-05      10.8217 
         -70      1.08645 -4.54127e-05  -2.2816e-05      10.8216 
         -70      1.11863 -4.60716e-05 -2.32549e-05      10.8216 
         -70       1.1513 -4.68375e-05 -2.36498e-05      10.8216 
         -70      1.18444  -4.7745e-05 -2.40057e-05      10.8215 
         -70      1.21802 -4.88207e-05 -2.43297e-05      10.8215 
         -70      1.25211 -5.00837e-05 -2.46314e-05      10.8214 
         -70      1.28663 -5.15351e-05 -2.49203e-05      10.8214 
         -70      1.32165 -5.31639e-05  -2.5208e-05      10.8213 
         -70      1.35712 -5.49339e-05 -2.55048e-05      10.8213 
         -70      1.39308  -5.6791e-05 -2.58214e-05      10.8212 
         -70      1.42951 -5.86513e-05 -2.61661e-05      10.8212 
         -70      1.46638 -6.04025e-05 -2.65437e-05      10.8211 
         -70      1.50375 -6.19069e-05 -2.69556e-05      10.8211 
         -70      1.54156 -6.44893e-05   -2.738e-05       10.821 
         -70      1.57987 -6.67462e-05 -2.77483e-05      10.8209 
         -70      1.61863 -6.85913e-05  -2.8051e-05      10.8209 
         -70      1.65788 -7.00591e-05 -2.82826e-05      10.8208 
         -70      1.69757 -7.11795e-05 -2.84382e-05      10.8207 
         -70      1.73776 -7.19877e-05 -2.85155e-05      10.8207 
         -70      1.77842 -7.25167e-05 -2.85132e-05      10.8206 
         -70      1.81952 -7.28004e-05  -2.8432e-05      10.8205 
         -70      1.86113 -7.28735e-05 -2.82739e-05      10.8204 
         -70      1.90316 -7.27701e-05 -2.80427e-05      10.8204 
         -70      1.94571 -7.25235e-05 -2.77433e-05      10.8203 
         -70      1.98869 -7.21669e-05 -2.73828e-05      10.8202 
         -70      2.03217 -7.17315e-05 -2.69683e-05      10.8201 
         -70      2.07612 -7.12481e-05 -2.65091e-05        10.82 
         -70      2.12051 -7.07459e-05 -2.60158e-05      10.8199 
         -70       2.1654  -7.0251e-05 -2.54984e-05      10.8198 
         -70      2.21073  -6.9789e-05 -2.49693e-05      10.8197 
         -70      2.25656 -6.93813e-05 -2.44399e-05      10.8196 
         -70      2.30283 -6.90483e-05 -2.39232e-05      10.8195 
         -70       2.3496 -6.88059e-05 -2.34312e-05      10.8194 
         -70      2.39685  -6.8668e-05 -2.29764e-05      10.8192 
         -70      2.44452 -6.86447e-05 -2.25712e-05      10.8191 
         -70      2.49271 -6.87424e-05 -2.22263e-05       10.819 
         -70      2.54132 -6.89641e-05 -2.19528e-05      10.8189 
         -70      2.59044 -6.93095e-05 -2.17596e-05      10.8187 
         -70         2.64 -6.97737e-05  -2.1655e-05      10.8186 
         -70      2.69006 -7.03496e-05 -2.16452e-05      10.8185 
         -70      2.74056 -7.10248e-05 -2.17348e-05      10.8183 
         -70      2.79156 -7.17859e-05 -2.19266e-05      10.8182 
         -70      2.84304 -7.26149e-05 -2.22209e-05       10.818 
         -70      2.89494  -7.3491e-05 -2.26153e-05      10.8179 
         -70      2.94735 -7.43937e-05 -2.31058e-05      10.8177 
         -70       3.0002 -7.52984e-05 -2.36847e-05      10.8175 
         -70      3.05355 -7.61827e-05 -2.43432e-05      10.8174 
         -70      3.10733  -7.7022e-05  -2.5068e-05      10.8172 
         -70      3.16163 -7.77962e-05 -2.58456e-05       10.817 
         -70      3.21639 -7.84859e-05 -2.66585e-05      10.8168 
         -70      3.27158 -7.90767e-05  -2.7487e-05      10.8167 
         -70      3.32729 -7.95616e-05 -2.83121e-05      10.8165 
         -70      3.38342 -7.99406e-05 -2.91106e-05      10.8163 
         -70      3.44007 -8.02253e-05 -2.98618e-05      10.8161 
         -70      3.49714 -8.04395e-05 -3.05426e-05      10.8159 
         -70      3.55472 -8.06239e-05 -3.11336e-05      10.8156 
         -70      3.61273 -8.08379e-05 -3.16155e-05      10.8154 
         -70      3.67125 -8.11643e-05 -3.19747e-05      10.8152 
         -70      3.73025 -8.17124e-05 -3.22011e-05       10.815 
         -70      3.78967 -8.18481e-05 -3.26017e-05      10.8147 
         -70      3.84961 -8.17644e-05 -3.32686e-05      10.8145 
         -70      3.90996 -8.17718e-05 -3.39718e-05      10.8143 
         -70      3.97084 -8.18469e-05 -3.46048e-05       10.814 
         -70      4.03214 -8.19679e-05 -3.50934e-05      10.8138 
         -70      4.09395 -8.21136e-05 -3.53984e-05      10.8135 
         -70      4.15624 -8.22037e-05 -3.50404e-05      10.8132 
         -70      4.21895 -8.22687e-05 -3.47141e-05       10.813 
         -70      4.28217 -8.23557e-05 -3.47988e-05      10.8127 
         -70      4.34582 -8.24652e-05 -3.51962e-05      10.8124 
         -70      4.40998 -8.25962e-05 -3.58096e-05      10.8121 
         -70      4.47457 -8.27457e-05  -3.6547e-05      10.8118 
         -70      4.53968 -8.29093e-05 -3.73281e-05      10.8115 
         -70      4.60525  -8.3081e-05 -3.80841e-05      10.8112 
         -70      4.67125  -8.3253e-05 -3.87625e-05      10.8109 
         -70      4.73777 -8.34169e-05 -3.93301e-05      10.8106 
         -70       4.8047 -8.35628e-05 -3.97714e-05      10.8102 
         -70      4.87216 -8.36808e-05 -4.00916e-05      10.8099 
         -70      4.94003 -8.37608e-05 -4.03133e-05      10.8096 
         -70      5.00843 -8.37934e-05 -4.04755e-05      10.8092 
         -70      5.07724  -8.3771e-05 -4.06287e-05      10.8089 
         -70      5.14658 -8.36881e-05   -4.083e-05      10.8085 
         -70      5.21639  -8.3543e-05 -4.11347e-05      10.8081 
         -70      5.28661  -8.3339e-05 -4.15864e-05      10.8077 
         -70      5.35736 -8.30851e-05 -4.22063e-05      10.8074 
         -70      5.42852 -8.27993e-05 -4.29754e-05       10.807 
         -70      5.50021 -8.25085e-05 -4.38206e-05      10.8066 
         -70      5.57231 -8.22528e-05 -4.45893e-05      10.8062 
         -70      5.64493 -8.20859e-05 -4.50295e-05      10.8057 
         -70      5.71803 -8.20795e-05 -4.47571e-05      10.8053 
         -70      5.79154 -8.23251e-05 -4.32284e-05      10.8049 
         -70      5.86558 -8.28247e-05 -4.27983e-05      10.8045 
         -70      5.94003 -8.31068e-05 -4.42573e-05       10.804 
         -70      6.01501 -8.31532e-05 -4.46448e-05      10.8036 
         -70       6.0904  -8.3014e-05 -4.44278e-05      10.8031 
         -70      6.16632  -8.2739e-05 -4.39611e-05      10.8026 
         -70      6.24271 -8.23768e-05 -4.34985e-05      10.8021 
         -70       6.3195 -8.19723e-05 -4.32058e-05      10.8017 
         -70      6.39683 -8.15637e-05 -4.31722e-05      10.8012 
         -70      6.47457 -8.11835e-05 -4.34248e-05      10.8007 
         -70      6.55284 -8.08545e-05 -4.39414e-05      10.8001 
         -70      6.63152 -8.05914e-05 -4.46621e-05      10.7996 
         -70      6.71073 -8.03985e-05  -4.5505e-05      10.7991 
         -70      6.79034 -8.02716e-05 -4.63745e-05      10.7986 
         -70      6.87049 -8.01966e-05 -4.71782e-05       10.798 
         -70      6.95111 -8.01526e-05 -4.78336e-05      10.7975 
         -70      7.03214 -8.01125e-05 -4.82814e-05      10.7969 
         -70       7.1137 -8.00461e-05 -4.84956e-05      10.7963 
         -70      7.19566 -7.99238e-05 -4.84898e-05      10.7957 
         -70      7.27816 -7.97202e-05 -4.83258e-05      10.7951 
         -70      7.36106 -7.94205e-05 -4.81191e-05      10.7945 
         -70      7.44451 -7.90253e-05 -4.80415e-05      10.7939 
         -70      7.52842 -7.85599e-05 -4.83242e-05      10.7933 
         -70      7.61273 -7.85132e-05 -4.78373e-05      10.7927 
         -70      7.69758 -7.86253e-05 -4.72872e-05       10.792 
         -70      7.78283 -7.89859e-05 -4.72134e-05      10.7914 
         -70      7.86862 -7.97672e-05 -4.81467e-05      10.7907 
         -70      7.95481 -7.99001e-05 -4.90906e-05      10.7901 
         -70      8.04155 -7.83513e-05  -4.8098e-05      10.7894 
         -70      8.12868 -7.74542e-05 -4.77325e-05      10.7887 
         -70      8.21635 -7.69918e-05 -4.78135e-05       10.788 
         -70      8.30449 -7.68081e-05 -4.82011e-05      10.7873 
         -70      8.39303 -7.67964e-05  -4.8788e-05      10.7866 
         -70      8.48211  -7.6878e-05 -4.94837e-05      10.7858 
         -70      8.57159 -7.68456e-05 -4.99796e-05      10.7851 
         -70      8.66161 -7.68952e-05 -5.04224e-05      10.7843 
         -70      8.75203 -7.70004e-05 -5.07876e-05      10.7836 
         -70      8.84299 -7.71341e-05 -5.10705e-05      10.7828 
         -70      8.93443 -7.72678e-05 -5.12787e-05       10.782 
         -70      9.02626 -7.73718e-05 -5.14277e-05      10.7812 
         -70      9.11863 -7.74163e-05  -5.1537e-05      10.7804 
         -70      9.21139 -7.73721e-05 -5.16261e-05      10.7796 
         -70      9.30471 -7.72126e-05 -5.17121e-05      10.7788 
         -70      9.39841 -7.69168e-05 -5.18082e-05       10.778 
         -70      9.49267 -7.64711e-05 -5.19235e-05      10.7771 
         -70      9.58739 -7.58747e-05  -5.2064e-05      10.7763 
         -70      9.68251 -7.51445e-05  -5.2235e-05      10.7754 
         -70      9.77817 -7.43182e-05 -5.24456e-05      10.7745 
         -70      9.87422 -7.34654e-05 -5.27139e-05      10.7736 
         -70      9.97083 -7.26901e-05 -5.30757e-05      10.7727 
         -70      10.0678 -7.21448e-05 -5.35933e-05      10.7718 
         -70      10.1654 -7.20557e-05 -5.38579e-05      10.7709 
         -70      10.2633 -7.22301e-05  -5.3329e-05        10.77 
         -70      10.3618 -7.24362e-05 -5.29005e-05       10.769 
         -70      10.4607 -7.26346e-05 -5.25559e-05      10.7681 
         -70      10.5601 -7.27757e-05 -5.22857e-05      10.7671 
         -70        10.66 -7.28016e-05  -5.2081e-05      10.7661 
         -70      10.7603 -7.26474e-05 -5.19286e-05      10.7651 
         -70      10.8611 -7.22433e-05 -5.18026e-05      10.7641 
         -70      10.9623 -7.15177e-05 -5.16588e-05      10.7631 
         -70      11.0641 -7.03969e-05 -5.14266e-05      10.7621 
         -70      11.1663 -6.98608e-05 -5.12847e-05      10.7611 
         -70       11.269 -7.02124e-05 -5.12929e-05        10.76 
         -70      11.3721 -7.03437e-05 -5.12199e-05       10.759 
         -70      11.4757 -7.02951e-05 -5.11242e-05      10.7579 
         -70      11.5798 -7.01155e-05 -5.10451e-05      10.7568 
         -70      11.6844 -6.98557e-05 -5.10045e-05      10.7557 
         -70      11.7894 -6.95636e-05 -5.10068e-05      10.7546 
         -70       11.895 -6.92801e-05 -5.10417e-05      10.7535 
         -70      12.0009 -6.90364e-05 -5.10862e-05      10.7524 
         -70      12.1073 -6.88505e-05 -5.11086e-05      10.7512 
         -70      12.2142 -6.87283e-05 -5.10724e-05      10.7501 
         -70      12.3216 -6.86623e-05 -5.09418e-05      10.7489 
         -70      12.4294  -6.8635e-05  -5.0688e-05      10.7477 
         -70      12.5378 -6.86216e-05 -5.02961e-05      10.7465 
         -70      12.6465 -6.85957e-05 -4.97751e-05      10.7453 
         -70      12.7558 -6.85365e-05 -4.91651e-05      10.7441 
         -70      12.8656 -6.84377e-05 -4.85512e-05      10.7429 
         -70      12.9757 -6.83194e-05 -4.80749e-05      10.7417 
         -70      13.0864 -6.82414e-05 -4.79469e-05      10.7404 
         -70      13.1975   -6.832e-05 -4.84642e-05      10.7391 
         -70      13.3092 -6.87467e-05 -5.00281e-05      10.7379 
         -70      13.4212 -6.88801e-05 -5.01229e-05      10.7366 
         -70      13.5338 -6.82898e-05 -4.87856e-05      10.7353 
         -70      13.6468 -6.75962e-05 -4.80887e-05       10.734 
         -70      13.7603 -6.68736e-05 -4.78351e-05      10.7327 
         -70      13.8743 -6.61747e-05 -4.78635e-05      10.7313 
         -70      13.9886 -6.55371e-05 -4.80463e-05        10.73 
         -70      14.1036 -6.49815e-05 -4.82858e-05      10.7286 
         -70      14.2189 -6.45179e-05 -4.85107e-05      10.7273 
         -70      14.3348  -6.4145e-05 -4.86736e-05      10.7259 
         -70       14.451 -6.38547e-05 -4.87474e-05      10.7245 
         -70      14.5678 -6.36326e-05 -4.87224e-05      10.7231 
         -70      14.6851 -6.34611e-05 -4.86027e-05      10.7217 
         -70      14.8028 -6.33209e-05  -4.8404e-05      10.7202 
         -70       14.921  -6.3192e-05 -4.81494e-05      10.7188 
         -70      15.0396 -6.30567e-05 -4.78679e-05      10.7173 
         -70      15.1588 -6.28991e-05   -4.759e-05      10.7159 
         -70      15.2783  -6.2708e-05 -4.73466e-05      10.7144 
         -70      15.3984 -6.24758e-05 -4.71648e-05      10.7129 
         -70       15.519 -6.22004e-05 -4.70668e-05      10.7114 
         -70        15.64  -6.1885e-05 -4.70671e-05      10.7099 
         -70      15.7615 -6.15372e-05 -4.71703e-05      10.7084 
         -70      15.8834 -6.11699e-05 -4.73693e-05      10.7068 
         -70      16.0058 -6.07985e-05 -4.76446e-05      10.7053 
         -70      16.1286 -6.04417e-05 -4.79612e-05      10.7037 
         -70       16.252 -6.01173e-05   -4.827e-05      10.7022 
         -70      16.3759 -5.98422e-05 -4.85047e-05      10.7006 
         -70      16.5002 -5.96281e-05 -4.85829e-05       10.699 
         -70       16.625 -5.94781e-05 -4.84059e-05      10.6974 
         -70      16.7501 -5.93836e-05 -4.78596e-05      10.6958 
         -70      16.8759 -5.93188e-05 -4.68135e-05      10.6941 
         -70       17.002 -5.92358e-05 -4.51263e-05      10.6925 
         -70      17.1287 -5.90584e-05 -4.26403e-05      10.6909 
         -70      17.2557 -5.89062e-05 -4.47011e-05      10.6892 
         -70      17.3834 -5.84029e-05 -4.69289e-05      10.6875 
         -70      17.5115  -5.7578e-05 -4.86762e-05      10.6858 
         -70      17.6399 -5.64475e-05 -4.98985e-05      10.6841 
         -70       17.769 -5.67688e-05  -5.0112e-05      10.6824 
         -70      17.8984 -5.68276e-05 -5.02427e-05      10.6807 
         -70      18.0284 -5.65802e-05  -5.0274e-05       10.679 
         -70      18.1587 -5.61607e-05  -5.0126e-05      10.6772 
         -70      18.2896 -5.56987e-05 -4.97269e-05      10.6755 
         -70       18.421 -5.52851e-05 -4.89123e-05      10.6737 
         -70      18.5528 -5.48555e-05 -4.78029e-05      10.6719 
         -70      18.6851 -5.44725e-05 -4.69128e-05      10.6701 
         -70      18.8178 -5.41282e-05 -4.62439e-05      10.6684 
         -70      18.9511 -5.38162e-05  -4.5783e-05      10.6665 
         -70      19.0847  -5.3533e-05 -4.55091e-05      10.6647 
         -70      19.2189 -5.32758e-05 -4.53929e-05      10.6629 
         -70      19.3535 -5.30438e-05 -4.54008e-05      10.6611 
         -70      19.4886 -5.28364e-05 -4.54964e-05      10.6592 
         -70      19.6242 -5.26538e-05 -4.56428e-05      10.6573 
         -70      19.7602 -5.24965e-05 -4.58039e-05      10.6555 
         -70      19.8968 -5.23644e-05 -4.59475e-05      10.6536 
         -70      20.0337 -5.22576e-05 -4.60449e-05      10.6517 
         -70      20.1712 -5.21751e-05 -4.60736e-05      10.6498 
         -70      20.3091 -5.21152e-05 -4.60175e-05      10.6479 
         -70      20.4475 -5.20752e-05 -4.58676e-05      10.6459 
         -70      20.5864 -5.20511e-05 -4.56227e-05       10.644 
         -70      20.7257  -5.2038e-05 -4.52893e-05      10.6421 
         -70      20.8655 -5.20292e-05 -4.48806e-05      10.6401 
         -70      21.0058 -5.20172e-05 -4.44177e-05      10.6381 
         -70      21.1465 -5.19929e-05 -4.39253e-05      10.6362 
         -70      21.2877 -5.19462e-05 -4.34343e-05      10.6342 
         -70      21.4294 -5.18659e-05 -4.29754e-05      10.6322 
         -70      21.5716 -5.17404e-05 -4.25805e-05      10.6302 
         -70      21.7142 -5.15575e-05 -4.22776e-05      10.6282 
         -70      21.8573 -5.13047e-05  -4.2087e-05      10.6262 
         -70      22.0008 -5.09704e-05 -4.20189e-05      10.6241 
         -70      22.1449 -5.05433e-05 -4.20669e-05      10.6221 
         -70      22.2893 -5.00144e-05 -4.22038e-05        10.62 
         -70      22.4344 -4.93759e-05 -4.23755e-05       10.618 
         -70      22.5797 -4.86245e-05 -4.24934e-05      10.6159 
         -70      22.7257 -4.77589e-05  -4.2428e-05      10.6138 
         -70      22.8721 -4.74732e-05 -4.20998e-05      10.6117 
         -70      23.0189 -4.77412e-05 -4.18372e-05      10.6096 
         -70      23.1663 -4.78165e-05 -4.16635e-05      10.6075 
         -70       23.314 -4.77432e-05 -4.15594e-05      10.6054 
         -70      23.4623 -4.75591e-05 -4.15074e-05      10.6033 
         -70       23.611 -4.72964e-05 -4.14926e-05      10.6011 
         -70      23.7602 -4.69815e-05 -4.15022e-05       10.599 
         -70        23.91 -4.66365e-05 -4.15261e-05      10.5969 
         -70        24.06 -4.62798e-05 -4.15559e-05      10.5947 
         -70      24.2107 -4.59255e-05  -4.1586e-05      10.5925 
         -70      24.3617 -4.55857e-05 -4.16122e-05      10.5904 
         -70      24.5133 -4.52695e-05 -4.16325e-05      10.5882 
         -70      24.6653 -4.49846e-05 -4.16462e-05       10.586 
         -70      24.8178  -4.4737e-05 -4.16539e-05      10.5838 
         -70      24.9708  -4.4532e-05 -4.16571e-05      10.5816 
         -70      25.1242 -4.43743e-05 -4.16575e-05      10.5794 
         -70      25.2781 -4.42681e-05  -4.1657e-05      10.5771 
         -70      25.4324 -4.42181e-05 -4.16565e-05      10.5749 
         -70      25.5873 -4.42289e-05 -4.16559e-05      10.5727 
         -70      25.7426 -4.43059e-05 -4.16528e-05      10.5704 
         -70      25.8984  -4.4455e-05 -4.16423e-05      10.5682 
         -70      26.0546 -4.46826e-05 -4.16156e-05      10.5659 
         -70      26.2114 -4.49962e-05 -4.15593e-05      10.5636 
         -70      26.3686 -4.38918e-05 -4.24333e-05      10.5614 
         -70      26.5262 -4.29061e-05 -4.32682e-05      10.5591 
         -70      26.6844 -4.21991e-05 -4.39165e-05      10.5568 
         -70      26.8429 -4.17062e-05 -4.43833e-05      10.5545 
         -70       27.002 -4.13691e-05  -4.4681e-05      10.5522 
         -70      27.1615 -4.11388e-05 -4.48254e-05      10.5499 
         -70      27.3216 -4.09739e-05 -4.48359e-05      10.5476 
         -70      27.4821 -4.08409e-05 -4.47341e-05      10.5452 
         -70       27.643 -4.07141e-05 -4.45432e-05      10.5429 
         -70      27.8044 -4.05745e-05  -4.4286e-05      10.5406 
         -70      27.9663 -4.04101e-05 -4.39859e-05      10.5382 
         -70      28.1287 -4.02143e-05 -4.36642e-05      10.5359 
         -70      28.2914 -3.99861e-05 -4.33415e-05      10.5335 
         -70      28.4548  -3.9728e-05 -4.30353e-05      10.5312 
         -70      28.6185 -3.94463e-05 -4.27621e-05      10.5288 
         -70      28.7828  -3.9148e-05 -4.25346e-05      10.5264 
         -70      28.9475 -3.88413e-05  -4.2364e-05      10.5241 
         -70      29.1126 -3.85329e-05  -4.2259e-05      10.5217 
         -70      29.2784 -3.82258e-05  -4.2226e-05      10.5193 
         -70      29.4444  -3.7919e-05 -4.22703e-05      10.5169 
         -70       29.611 -3.76032e-05 -4.23968e-05      10.5145 
         -70       29.778 -3.76502e-05 -4.25978e-05      10.5121 
         -70      29.9456  -3.8608e-05 -4.25343e-05      10.5097 
         -70      30.1137 -3.88152e-05 -4.21744e-05      10.5072 
         -70      30.2821 -3.85334e-05 -4.16545e-05      10.5048 
         -70      30.4511 -3.79702e-05 -4.10755e-05      10.5024 
         -70      30.6204 -3.72871e-05 -4.05098e-05         10.5 
         -70      30.7903 -3.66014e-05 -4.00033e-05      10.4975 
         -70      30.9606 -3.59962e-05 -3.95825e-05      10.4951 
         -70      31.1315 -3.55205e-05 -3.92559e-05      10.4926 
         -70      31.3028 -3.51988e-05 -3.90202e-05      10.4902 
         -70      31.4745 -3.50327e-05 -3.88624e-05      10.4877 
         -70      31.6468 -3.50067e-05 -3.87629e-05      10.4853 
         -70      31.8194 -3.50925e-05 -3.86994e-05      10.4828 
         -70      31.9926 -3.52534e-05 -3.86488e-05      10.4803 
         -70      32.1662 -3.54476e-05 -3.85893e-05      10.4779 
         -70      32.3404 -3.56324e-05 -3.85021e-05      10.4754 
         -70      32.5149  -3.5767e-05 -3.83731e-05      10.4729 
         -70        32.69 -3.58159e-05  -3.8193e-05      10.4704 
         -70      32.8655 -3.57514e-05 -3.79584e-05      10.4679 
         -70      33.0414 -3.55557e-05 -3.76711e-05      10.4654 
         -70       33.218 -3.52229e-05 -3.73368e-05      10.4629 
         -70      33.3948 -3.47607e-05 -3.69654e-05      10.4604 
         -70      33.5723 -3.41904e-05 -3.65668e-05      10.4579 
         -70        33.75 -3.35496e-05 -3.61504e-05      10.4554 
         -70      33.9284 -3.28886e-05 -3.57197e-05      10.4529 
         -70      34.1073 -3.22739e-05 -3.52701e-05      10.4504 
         -70      34.2865  -3.1785e-05 -3.47836e-05      10.4479 
         -70      34.4663 -3.15117e-05 -3.42216e-05      10.4454 
         -70      34.6465 -3.15544e-05 -3.35214e-05      10.4428 
         -70      34.8272 -3.20193e-05 -3.25854e-05      10.4403 
         -70      35.0083 -3.15781e-05 -3.42376e-05      10.4378 
         -70        35.19 -3.10853e-05 -3.73916e-05      10.4353 
         -70      35.3721 -3.23412e-05 -3.61438e-05      10.4327 
         -70      35.5546 -3.30444e-05  -3.5333e-05      10.4302 
         -70      35.7377 -3.33173e-05 -3.48756e-05      10.4276 
         -70      35.9211 -3.32662e-05 -3.46983e-05      10.4251 
         -70      36.1052 -3.29839e-05 -3.47346e-05      10.4226 
         -70      36.2895 -3.25499e-05 -3.49257e-05        10.42 
         -70      36.4745 -3.20302e-05 -3.52203e-05      10.4175 
         -70      36.6598 -3.14798e-05 -3.55735e-05      10.4149 
         -70      36.8457 -3.09408e-05 -3.59475e-05      10.4124 
         -70      37.0321 -3.04459e-05 -3.63101e-05      10.4098 
         -70      37.2188 -3.00177e-05 -3.66348e-05      10.4072 
         -70      37.4062 -2.96687e-05 -3.69015e-05      10.4047 
         -70      37.5938 -2.94049e-05 -3.70941e-05      10.4021 
         -70      37.7821 -2.92237e-05 -3.72024e-05      10.3996 
         -70      37.9707 -2.91172e-05 -3.72199e-05       10.397 
         -70      38.1599 -2.90722e-05 -3.71445e-05      10.3944 
         -70      38.3496 -2.90715e-05 -3.69781e-05      10.3919 
         -70      38.5396 -2.90951e-05 -3.67262e-05      10.3893 
         -70      38.7302 -2.91214e-05 -3.63968e-05      10.3867 
         -70      38.9211 -2.91287e-05 -3.60019e-05      10.3842 
         -70      39.1127 -2.90963e-05 -3.55549e-05      10.3816 
         -70      39.3046  -2.9006e-05  -3.5073e-05       10.379 
         -70      39.4971 -2.88435e-05 -3.45737e-05      10.3764 
         -70      39.6899 -2.86003e-05  -3.4078e-05      10.3739 
         -70      39.8833 -2.82748e-05 -3.36068e-05      10.3713 
         -70      40.0772 -2.78743e-05 -3.31835e-05      10.3687 
         -70      40.2714 -2.74172e-05 -3.28325e-05      10.3661 
         -70      40.4663 -2.69332e-05 -3.25781e-05      10.3636 
         -70      40.6615 -2.64679e-05 -3.24461e-05       10.361 
         -70      40.8573 -2.60815e-05 -3.24623e-05      10.3584 
         -70      41.0534 -2.58539e-05 -3.26529e-05      10.3558 
         -70      41.2501 -2.58849e-05 -3.30444e-05      10.3532 
         -70      41.4473 -2.62974e-05 -3.36634e-05      10.3507 
         -70      41.6448 -2.72382e-05 -3.45351e-05      10.3481 
         -70      41.8429 -2.77944e-05 -3.13866e-05      10.3455 
         -70      42.0414 -2.82114e-05 -2.93498e-05      10.3429 
         -70      42.2405 -2.81555e-05 -3.03005e-05      10.3403 
         -70      42.4399 -2.79346e-05 -3.10616e-05      10.3378 
         -70      42.6399 -2.75928e-05  -3.1676e-05      10.3352 
         -70      42.8404 -2.71686e-05  -3.2176e-05      10.3326 
         -70      43.0412  -2.6695e-05  -3.2587e-05        10.33 
         -70      43.2426 -2.61988e-05 -3.29286e-05      10.3274 
         -70      43.4444 -2.57029e-05 -3.32134e-05      10.3249 
         -70      43.6467 -2.52245e-05 -3.34504e-05      10.3223 
         -70      43.8494 -2.47781e-05 -3.36436e-05      10.3197 
         -70      44.0527 -2.43729e-05 -3.37949e-05      10.3171 
         -70      44.2563 -2.40161e-05 -3.39029e-05      10.3145 
         -70      44.4606 -2.37107e-05 -3.39653e-05       10.312 
         -70      44.6653 -2.34578e-05 -3.39785e-05      10.3094 
         -70      44.8704 -2.32564e-05 -3.39386e-05      10.3068 
         -70       45.076 -2.31026e-05 -3.38421e-05      10.3042 
         -70       45.282 -2.29919e-05 -3.36862e-05      10.3017 
         -70      45.4886 -2.29178e-05 -3.34692e-05      10.2991 
         -70      45.6955 -2.28734e-05 -3.31912e-05      10.2965 
         -70       45.903 -2.28508e-05 -3.28538e-05      10.2939 
         -70      46.1111 -2.28418e-05 -3.24612e-05      10.2914 
         -70      46.3194 -2.28354e-05 -3.20533e-05      10.2888 
         -70      46.5283 -2.28187e-05 -3.17921e-05      10.2862 
         -70      46.7376  -2.2803e-05 -3.15405e-05      10.2837 
         -70      46.9475 -2.27818e-05 -3.13036e-05      10.2811 
         -70      47.1577 -2.27494e-05 -3.10886e-05      10.2785 
         -70      47.3685 -2.27014e-05 -3.09026e-05       10.276 
         -70      47.5798 -2.26346e-05  -3.0754e-05      10.2734 
         -70      47.7914 -2.25473e-05 -3.06514e-05      10.2709 
         -70      48.0037 -2.24389e-05 -3.06027e-05      10.2683 