Variables = x, y, u, v, p

Zone, I=800, F=POINT
         -25            0  3.02701e-19  9.29317e-24       46.045 
         -25     0.000234  1.50103e-05  4.69892e-10       46.045 
         -25     0.000939   5.6716e-05  1.88277e-09       46.045 
         -25     0.002113  0.000115378  4.22296e-09       46.045 
         -25     0.003759  0.000177967  7.46714e-09       46.045 
         -25     0.005872  0.000231159  1.15464e-08       46.045 
         -25     0.008457  0.000265547  1.63686e-08       46.045 
         -25      0.01151  0.000277706  2.17722e-08       46.045 
         -25     0.015036  0.000271239  2.75552e-08       46.045 
         -25     0.019031  0.000255194  3.34465e-08       46.045 
         -25     0.023493   0.00024058  3.91367e-08       46.045 
         -25     0.028429  0.000235768  4.42971e-08       46.045 
         -25     0.033831   0.00024263  4.85659e-08       46.045 
         -25     0.039706  0.000255235  5.15846e-08       46.045 
         -25     0.046047  0.000262922  5.29693e-08       46.045 
         -25     0.052863  0.000257961  5.23066e-08       46.045 
         -25      0.06015  0.000244747  4.91232e-08       46.045 
         -25       0.0679  0.000242038  4.29036e-08       46.045 
         -25     0.076126  0.000260566   3.3147e-08       46.045 
         -25     0.084816  0.000245834  1.95855e-08       46.045 
         -25     0.093982  0.000251455  1.56333e-09       46.045 
         -25     0.103611  0.000253446 -2.11727e-08       46.045 
         -25     0.113718  0.000253716 -4.90766e-08       46.045 
         -25     0.124286  0.000253626 -8.24561e-08       46.045 
         -25     0.135333  0.000253933 -1.21656e-07       46.045 
         -25      0.14685  0.000254835  -1.6687e-07       46.045 
         -25     0.158827  0.000256113 -2.18216e-07       46.045 
         -25     0.171284  0.000257369 -2.75891e-07       46.045 
         -25     0.184201  0.000258302 -3.39875e-07       46.045 
         -25     0.197599  0.000258939 -4.10311e-07       46.045 
         -25     0.211455  0.000259697 -4.87075e-07       46.045 
         -25     0.225792  0.000261074 -5.70207e-07       46.045 
         -25       0.2406  0.000262704 -6.59409e-07       46.045 
         -25     0.255865  0.000263181  -7.5431e-07       46.045 
         -25     0.271613  0.000264453 -8.55063e-07       46.045 
         -25     0.287818  0.000265607 -9.61209e-07       46.045 
         -25     0.304506   0.00026668 -1.07263e-06       46.045 
         -25      0.32165  0.000267692 -1.18852e-06       46.045 
         -25     0.339278   0.00026866 -1.30815e-06       46.045 
         -25     0.357377  0.000269587 -1.43034e-06       46.045 
         -25      0.37593  0.000270469 -1.55377e-06       46.045 
         -25     0.394968  0.000271298  -1.6775e-06       46.045 
         -25     0.414461  0.000272062 -1.80035e-06      46.0449 
         -25      0.43444  0.000272751 -1.92182e-06      46.0449 
         -25     0.454872  0.000273356 -2.04146e-06      46.0449 
         -25     0.475791  0.000273874 -2.15968e-06      46.0449 
         -25     0.497163  0.000274307 -2.27699e-06      46.0449 
         -25     0.519021  0.000274666 -2.39469e-06      46.0449 
         -25      0.54135  0.000274963 -2.51396e-06      46.0449 
         -25     0.564131  0.000275203 -2.63567e-06      46.0449 
         -25       0.5874  0.000275375 -2.76006e-06      46.0449 
         -25     0.611121  0.000275438  -2.8855e-06      46.0449 
         -25      0.63533  0.000275478   -3.018e-06      46.0449 
         -25      0.65999  0.000275469 -3.15314e-06      46.0449 
         -25     0.685139   0.00027542 -3.28846e-06      46.0449 
         -25     0.710759  0.000275336 -3.42153e-06      46.0449 
         -25     0.736828  0.000275224 -3.55033e-06      46.0448 
         -25     0.763387  0.000275087 -3.67354e-06      46.0448 
         -25     0.790396   0.00027493 -3.78983e-06      46.0448 
         -25     0.817896  0.000274755 -3.89862e-06      46.0448 
         -25     0.845843  0.000274563 -3.99932e-06      46.0448 
         -25     0.874283  0.000274355 -4.09197e-06      46.0448 
         -25      0.90317   0.00027413 -4.17656e-06      46.0448 
         -25     0.932551  0.000273889 -4.25358e-06      46.0447 
         -25     0.962401  0.000273629 -4.32343e-06      46.0447 
         -25     0.992697   0.00027335 -4.38663e-06      46.0447 
         -25      1.02349   0.00027305 -4.44384e-06      46.0447 
         -25      1.05472  0.000272729 -4.49547e-06      46.0447 
         -25      1.08645  0.000272383 -4.54201e-06      46.0447 
         -25      1.11863  0.000272015 -4.58363e-06      46.0446 
         -25       1.1513  0.000271624 -4.62047e-06      46.0446 
         -25      1.18444   0.00027121 -4.65237e-06      46.0446 
         -25      1.21802  0.000270776  -4.6791e-06      46.0446 
         -25      1.25211  0.000270323 -4.70039e-06      46.0445 
         -25      1.28663  0.000269853 -4.71603e-06      46.0445 
         -25      1.32165  0.000269368 -4.72616e-06      46.0445 
         -25      1.35712  0.000268868 -4.73146e-06      46.0445 
         -25      1.39308  0.000268351 -4.73364e-06      46.0444 
         -25      1.42951  0.000267812 -4.73591e-06      46.0444 
         -25      1.46638  0.000267241 -4.74362e-06      46.0444 
         -25      1.50375   0.00026662 -4.76509e-06      46.0443 
         -25      1.54156  0.000265758 -4.80211e-06      46.0443 
         -25      1.57987   0.00026478 -4.79463e-06      46.0443 
         -25      1.61863  0.000263698 -4.75073e-06      46.0442 
         -25      1.65788  0.000262507  -4.6799e-06      46.0442 
         -25      1.69757  0.000261208 -4.59106e-06      46.0442 
         -25      1.73776  0.000259799 -4.49208e-06      46.0441 
         -25      1.77842   0.00025828  -4.3902e-06      46.0441 
         -25      1.81952  0.000256656 -4.29179e-06       46.044 
         -25      1.86113  0.000254925  -4.2021e-06       46.044 
         -25      1.90316  0.000253094  -4.1258e-06       46.044 
         -25      1.94571  0.000251166 -4.06637e-06      46.0439 
         -25      1.98869  0.000249149 -4.02663e-06      46.0439 
         -25      2.03217  0.000247047 -4.00835e-06      46.0438 
         -25      2.07612   0.00024487 -4.01257e-06      46.0438 
         -25      2.12051  0.000242631 -4.03942e-06      46.0437 
         -25       2.1654  0.000240336 -4.08834e-06      46.0436 
         -25      2.21073  0.000238001 -4.15792e-06      46.0436 
         -25      2.25656  0.000235637 -4.24628e-06      46.0435 
         -25      2.30283  0.000233261 -4.35067e-06      46.0435 
         -25       2.3496  0.000230885 -4.46815e-06      46.0434 
         -25      2.39685  0.000228528 -4.59507e-06      46.0433 
         -25      2.44452  0.000226209 -4.72739e-06      46.0433 
         -25      2.49271  0.000223943 -4.86114e-06      46.0432 
         -25      2.54132  0.000221753 -4.99175e-06      46.0431 
         -25      2.59044  0.000219653 -5.11498e-06      46.0431 
         -25         2.64  0.000217666 -5.22621e-06       46.043 
         -25      2.69006   0.00021581 -5.32128e-06      46.0429 
         -25      2.74056  0.000214104 -5.39592e-06      46.0428 
         -25      2.79156  0.000212566 -5.44637e-06      46.0428 
         -25      2.84304  0.000211212 -5.46905e-06      46.0427 
         -25      2.89494   0.00021006 -5.46085e-06      46.0426 
         -25      2.94735   0.00020912 -5.41904e-06      46.0425 
         -25       3.0002  0.000208405 -5.34146e-06      46.0424 
         -25      3.05355  0.000207921 -5.22621e-06      46.0423 
         -25      3.10733  0.000207673 -5.07208e-06      46.0422 
         -25      3.16163  0.000207657 -4.87781e-06      46.0421 
         -25      3.21639   0.00020787 -4.64272e-06       46.042 
         -25      3.27158  0.000208296 -4.36635e-06      46.0419 
         -25      3.32729  0.000208917 -4.04748e-06      46.0418 
         -25      3.38342  0.000209703 -3.68542e-06      46.0417 
         -25      3.44007  0.000210616 -3.27778e-06      46.0416 
         -25      3.49714  0.000211607 -2.82224e-06      46.0415 
         -25      3.55472  0.000212616 -2.31359e-06      46.0414 
         -25      3.61273  0.000213567 -1.74603e-06      46.0412 
         -25      3.67125   0.00021437 -1.10926e-06      46.0411 
         -25      3.73025  0.000214917 -3.90749e-07       46.041 
         -25      3.78967  0.000215571  3.02131e-08      46.0409 
         -25      3.84961  0.000216437  4.11938e-07      46.0407 
         -25      3.90996  0.000217333  9.17542e-07      46.0406 
         -25      3.97084  0.000218244  1.50555e-06      46.0405 
         -25      4.03214  0.000219158  2.14053e-06      46.0403 
         -25      4.09395  0.000220067   2.7962e-06      46.0402 
         -25      4.15624  0.000220966  3.45146e-06        46.04 
         -25      4.21895  0.000221849   4.0912e-06      46.0399 
         -25      4.28217  0.000222718  4.70717e-06      46.0397 
         -25      4.34582  0.000223571  5.29369e-06      46.0396 
         -25      4.40998  0.000224408  5.85077e-06      46.0394 
         -25      4.47457   0.00022523  6.37952e-06      46.0392 
         -25      4.53968  0.000226038  6.88483e-06      46.0391 
         -25      4.60525  0.000226829  7.37146e-06      46.0389 
         -25      4.67125  0.000227603  7.84442e-06      46.0387 
         -25      4.73777  0.000228358  8.30908e-06      46.0385 
         -25       4.8047  0.000229091  8.76757e-06      46.0384 
         -25      4.87216  0.000229799  9.22078e-06      46.0382 
         -25      4.94003  0.000230477  9.66447e-06       46.038 
         -25      5.00843  0.000231125  1.00912e-05      46.0378 
         -25      5.07724   0.00023174  1.04865e-05      46.0376 
         -25      5.14658  0.000232326  1.08309e-05      46.0374 
         -25      5.21639  0.000232889  1.10964e-05      46.0372 
         -25      5.28661   0.00023344  1.12475e-05       46.037 
         -25      5.35736  0.000234004  1.12401e-05      46.0367 
         -25      5.42852  0.000234629  1.13749e-05      46.0365 
         -25      5.50021  0.000235211  1.18723e-05      46.0363 
         -25      5.57231  0.000235607  1.23606e-05      46.0361 
         -25      5.64493   0.00023594  1.28405e-05      46.0358 
         -25      5.71803  0.000236493  1.32892e-05      46.0356 
         -25      5.79154  0.000237038  1.37225e-05      46.0354 
         -25      5.86558  0.000237566  1.41269e-05      46.0351 
         -25      5.94003  0.000238071  1.44938e-05      46.0349 
         -25      6.01501  0.000238548  1.48211e-05      46.0346 
         -25       6.0904  0.000238994  1.51096e-05      46.0343 
         -25      6.16632  0.000239407  1.53647e-05      46.0341 
         -25      6.24271  0.000239784   1.5593e-05      46.0338 
         -25       6.3195  0.000240144  1.58584e-05      46.0335 
         -25      6.39683  0.000240507  1.62041e-05      46.0332 
         -25      6.47457   0.00024085  1.65622e-05      46.0329 
         -25      6.55284   0.00024118  1.69367e-05      46.0327 
         -25      6.63152  0.000241503  1.73288e-05      46.0324 
         -25      6.71073  0.000241827  1.77388e-05      46.0321 
         -25      6.79034  0.000242154  1.81627e-05      46.0317 
         -25      6.87049  0.000242488  1.85952e-05      46.0314 
         -25      6.95111   0.00024283  1.90271e-05      46.0311 
         -25      7.03214  0.000243177  1.94473e-05      46.0308 
         -25       7.1137  0.000243528   1.9845e-05      46.0305 
         -25      7.19566  0.000243874  2.02088e-05      46.0301 
         -25      7.27816  0.000244211  2.05317e-05      46.0298 
         -25      7.36106  0.000244531  2.08119e-05      46.0294 
         -25      7.44451   0.00024483  2.10581e-05      46.0291 
         -25      7.52842  0.000245104  2.12925e-05      46.0287 
         -25      7.61273  0.000245359  2.15571e-05      46.0284 
         -25      7.69758  0.000245607  2.19198e-05       46.028 
         -25      7.78283  0.000245871  2.24806e-05      46.0276 
         -25      7.86862  0.000246034  2.29735e-05      46.0272 
         -25      7.95481  0.000246096  2.30134e-05      46.0268 
         -25      8.04155  0.000246261  2.30172e-05      46.0264 
         -25      8.12868  0.000246621   2.3324e-05       46.026 
         -25      8.21635  0.000247101  2.38847e-05      46.0256 
         -25      8.30449  0.000247452  2.43629e-05      46.0252 
         -25      8.39303  0.000247718  2.47655e-05      46.0248 
         -25      8.48211   0.00024794   2.5104e-05      46.0244 
         -25      8.57159  0.000248152  2.53913e-05      46.0239 
         -25      8.66161  0.000248383  2.56422e-05      46.0235 
         -25      8.75203   0.00024866  2.58703e-05       46.023 
         -25      8.84299  0.000248777  2.62871e-05      46.0226 
         -25      8.93443  0.000248849  2.68273e-05      46.0221 
         -25      9.02626   0.00024897   2.7377e-05      46.0216 
         -25      9.11863  0.000249127  2.79164e-05      46.0212 
         -25      9.21139  0.000249306  2.84299e-05      46.0207 
         -25      9.30471  0.000249498  2.89082e-05      46.0202 
         -25      9.39841  0.000249692  2.93451e-05      46.0197 
         -25      9.49267  0.000249878  2.97392e-05      46.0192 
         -25      9.58739  0.000250049  3.00912e-05      46.0187 
         -25      9.68251    0.0002502  3.04042e-05      46.0181 
         -25      9.77817  0.000250324  3.06834e-05      46.0176 
         -25      9.87422  0.000250419  3.09336e-05      46.0171 
         -25      9.97083  0.000250483  3.11606e-05      46.0165 
         -25      10.0678  0.000250516  3.13686e-05       46.016 
         -25      10.1654  0.000250521  3.15605e-05      46.0154 
         -25      10.2633    0.0002505  3.17364e-05      46.0148 
         -25      10.3618  0.000250461  3.18935e-05      46.0143 
         -25      10.4607  0.000250411  3.20244e-05      46.0137 
         -25      10.5601  0.000250362  3.21171e-05      46.0131 
         -25        10.66  0.000250328  3.21539e-05      46.0125 
         -25      10.7603  0.000250324  3.21104e-05      46.0119 
         -25      10.8611  0.000250372   3.1955e-05      46.0113 
         -25      10.9623  0.000250493  3.16483e-05      46.0106 
         -25      11.0641  0.000250716  3.11416e-05        46.01 
         -25      11.1663   0.00025081  3.08842e-05      46.0094 
         -25       11.269  0.000250539  3.13511e-05      46.0087 
         -25      11.3721  0.000250316   3.1721e-05       46.008 
         -25      11.4757  0.000250124   3.2005e-05      46.0074 
         -25      11.5798  0.000249956  3.22212e-05      46.0067 
         -25      11.6844  0.000249808  3.23897e-05       46.006 
         -25      11.7894  0.000249681  3.25319e-05      46.0053 
         -25       11.895  0.000249577  3.26668e-05      46.0046 
         -25      12.0009  0.000249499  3.28092e-05      46.0039 
         -25      12.1073  0.000249449  3.29674e-05      46.0032 
         -25      12.2142  0.000249426  3.31406e-05      46.0024 
         -25      12.3216  0.000249427  3.33172e-05      46.0017 
         -25      12.4294  0.000249445  3.34721e-05      46.0009 
         -25      12.5378  0.000249469  3.35657e-05      46.0002 
         -25      12.6465   0.00024948  3.35412e-05      45.9994 
         -25      12.7558  0.000249337  3.35973e-05      45.9986 
         -25      12.8656  0.000249011  3.39538e-05      45.9978 
         -25      12.9757  0.000248777  3.41398e-05       45.997 
         -25      13.0864  0.000248614  3.42252e-05      45.9962 
         -25      13.1975  0.000248504  3.42645e-05      45.9954 
         -25      13.3092  0.000248431  3.42979e-05      45.9945 
         -25      13.4212  0.000248383  3.43521e-05      45.9937 
         -25      13.5338   0.00024835  3.44416e-05      45.9929 
         -25      13.6468  0.000248324  3.45698e-05       45.992 
         -25      13.7603  0.000248296  3.47305e-05      45.9911 
         -25      13.8743   0.00024826    3.491e-05      45.9902 
         -25      13.9886  0.000248208   3.5088e-05      45.9893 
         -25      14.1036  0.000248125  3.52407e-05      45.9884 
         -25      14.2189  0.000247995  3.53421e-05      45.9875 
         -25      14.3348   0.00024779  3.53677e-05      45.9866 
         -25       14.451   0.00024747  3.52962e-05      45.9857 
         -25      14.5678   0.00024698  3.51129e-05      45.9847 
         -25      14.6851  0.000247052  3.52815e-05      45.9838 
         -25      14.8028  0.000247296  3.55998e-05      45.9828 
         -25       14.921  0.000247437  3.58882e-05      45.9818 
         -25      15.0396  0.000247486  3.61369e-05      45.9808 
         -25      15.1588  0.000247458  3.63431e-05      45.9798 
         -25      15.2783  0.000247363  3.65082e-05      45.9788 
         -25      15.3984  0.000247215  3.66381e-05      45.9778 
         -25       15.519  0.000247026   3.6741e-05      45.9767 
         -25        15.64  0.000246807  3.68271e-05      45.9757 
         -25      15.7615  0.000246569  3.69077e-05      45.9746 
         -25      15.8834  0.000246322  3.69941e-05      45.9735 
         -25      16.0058  0.000246075   3.7097e-05      45.9725 
         -25      16.1286  0.000245837  3.72258e-05      45.9714 
         -25       16.252  0.000245616  3.73881e-05      45.9703 
         -25      16.3759  0.000245417  3.75893e-05      45.9691 
         -25      16.5002  0.000245245  3.78318e-05       45.968 
         -25       16.625  0.000245104  3.81161e-05      45.9669 
         -25      16.7501  0.000244997  3.84389e-05      45.9657 
         -25      16.8759  0.000244923  3.87953e-05      45.9645 
         -25       17.002  0.000244882  3.91769e-05      45.9634 
         -25      17.1287  0.000244869  3.95748e-05      45.9622 
         -25      17.2557  0.000244882  3.99774e-05       45.961 
         -25      17.3834  0.000244912  4.03742e-05      45.9597 
         -25      17.5115  0.000244951  4.07546e-05      45.9585 
         -25      17.6399  0.000244988  4.11103e-05      45.9573 
         -25       17.769   0.00024501  4.14375e-05       45.956 
         -25      17.8984   0.00024491  4.17367e-05      45.9547 
         -25      18.0284  0.000244766  4.20148e-05      45.9535 
         -25      18.1587  0.000244671   4.2268e-05      45.9522 
         -25      18.2896  0.000244601  4.24974e-05      45.9509 
         -25       18.421  0.000244534  4.27115e-05      45.9495 
         -25      18.5528  0.000244453  4.29268e-05      45.9482 
         -25      18.6851  0.000244345  4.31691e-05      45.9469 
         -25      18.8178  0.000244204  4.34723e-05      45.9455 
         -25      18.9511  0.000243805  4.37551e-05      45.9441 
         -25      19.0847  0.000243369  4.40447e-05      45.9427 
         -25      19.2189  0.000243024  4.43852e-05      45.9413 
         -25      19.3535  0.000242797  4.47827e-05      45.9399 
         -25      19.4886  0.000242715  4.52432e-05      45.9385 
         -25      19.6242  0.000242735  4.56038e-05      45.9371 
         -25      19.7602  0.000242661  4.57944e-05      45.9356 
         -25      19.8968  0.000242538  4.60934e-05      45.9341 
         -25      20.0337  0.000242369  4.64528e-05      45.9327 
         -25      20.1712  0.000242162  4.68382e-05      45.9312 
         -25      20.3091  0.000241923  4.72248e-05      45.9296 
         -25      20.4475  0.000241661   4.7598e-05      45.9281 
         -25      20.5864  0.000241382  4.79492e-05      45.9266 
         -25      20.7257  0.000241097  4.82759e-05       45.925 
         -25      20.8655  0.000240811  4.85802e-05      45.9235 
         -25      21.0058  0.000240531  4.88662e-05      45.9219 
         -25      21.1465  0.000240263  4.91402e-05      45.9203 
         -25      21.2877  0.000240009  4.94082e-05      45.9187 
         -25      21.4294  0.000239773  4.96764e-05      45.9171 
         -25      21.5716  0.000239553  4.99493e-05      45.9154 
         -25      21.7142   0.00023935  5.02293e-05      45.9138 
         -25      21.8573   0.00023916  5.05175e-05      45.9121 
         -25      22.0008  0.000238979  5.08113e-05      45.9104 
         -25      22.1449  0.000238803  5.11073e-05      45.9087 
         -25      22.2893  0.000238625  5.13987e-05       45.907 
         -25      22.4344  0.000238442  5.16786e-05      45.9053 
         -25      22.5797  0.000238247  5.19388e-05      45.9036 
         -25      22.7257  0.000238039  5.21723e-05      45.9018 
         -25      22.8721  0.000237816  5.23742e-05         45.9 
         -25      23.0189  0.000237582  5.25434e-05      45.8982 
         -25      23.1663  0.000237344   5.2686e-05      45.8964 
         -25       23.314  0.000237117  5.28161e-05      45.8946 
         -25      23.4623  0.000236923  5.29605e-05      45.8928 
         -25       23.611  0.000236794  5.31608e-05       45.891 
         -25      23.7602  0.000236449  5.35027e-05      45.8891 
         -25        23.91  0.000235874  5.38824e-05      45.8872 
         -25        24.06   0.00023544  5.42285e-05      45.8853 
         -25      24.2107  0.000235118  5.45534e-05      45.8834 
         -25      24.3617  0.000234883  5.48642e-05      45.8815 
         -25      24.5133  0.000234713  5.51655e-05      45.8796 
         -25      24.6653  0.000234586  5.54583e-05      45.8776 
         -25      24.8178  0.000234485  5.57425e-05      45.8756 
         -25      24.9708  0.000234393  5.60161e-05      45.8737 
         -25      25.1242  0.000234298  5.62761e-05      45.8717 
         -25      25.2781  0.000234189  5.65201e-05      45.8696 
         -25      25.4324  0.000234059   5.6745e-05      45.8676 
         -25      25.5873  0.000233901  5.69492e-05      45.8656 
         -25      25.7426  0.000233713  5.71313e-05      45.8635 
         -25      25.8984  0.000233494  5.72918e-05      45.8614 
         -25      26.0546  0.000233246   5.7432e-05      45.8593 
         -25      26.2114  0.000232971  5.75551e-05      45.8572 
         -25      26.3686  0.000232675  5.76656e-05      45.8551 
         -25      26.5262  0.000232363  5.77694e-05       45.853 
         -25      26.6844  0.000232042  5.78736e-05      45.8508 
         -25      26.8429   0.00023172  5.79859e-05      45.8486 
         -25       27.002  0.000231404  5.81148e-05      45.8464 
         -25      27.1615    0.0002311  5.82679e-05      45.8442 
         -25      27.3216  0.000230815  5.84528e-05       45.842 
         -25      27.4821  0.000230551  5.86745e-05      45.8398 
         -25       27.643  0.000230311  5.89354e-05      45.8375 
         -25      27.8044  0.000230092  5.92344e-05      45.8353 
         -25      27.9663  0.000229888  5.95645e-05       45.833 
         -25      28.1287  0.000229686  5.99127e-05      45.8307 
         -25      28.2914   0.00022947  6.02567e-05      45.8284 
         -25      28.4548  0.000229214   6.0565e-05       45.826 
         -25      28.6185  0.000228884  6.07925e-05      45.8237 
         -25      28.7828  0.000228377  6.07756e-05      45.8213 
         -25      28.9475  0.000227713  6.06646e-05      45.8189 
         -25      29.1126  0.000227055  6.07634e-05      45.8165 
         -25      29.2784  0.000227316  6.05023e-05      45.8141 
         -25      29.4444  0.000228276  6.02903e-05      45.8117 
         -25       29.611  0.000228177   6.0623e-05      45.8092 
         -25       29.778  0.000227514  6.11082e-05      45.8068 
         -25      29.9456  0.000226899  6.15301e-05      45.8043 
         -25      30.1137   0.00022634  6.18924e-05      45.8018 
         -25      30.2821  0.000225836   6.2202e-05      45.7993 
         -25      30.4511  0.000225386  6.24682e-05      45.7968 
         -25      30.6204  0.000224984  6.27006e-05      45.7942 
         -25      30.7903  0.000224621  6.29095e-05      45.7917 
         -25      30.9606   0.00022429   6.3104e-05      45.7891 
         -25      31.1315  0.000223982  6.32928e-05      45.7865 
         -25      31.3028  0.000223688  6.34825e-05      45.7839 
         -25      31.4745    0.0002234  6.36776e-05      45.7813 
         -25      31.6468  0.000223113  6.38809e-05      45.7786 
         -25      31.8194  0.000222823  6.40925e-05       45.776 
         -25      31.9926  0.000222526  6.43107e-05      45.7733 
         -25      32.1662  0.000222223  6.45311e-05      45.7706 
         -25      32.3404  0.000221915  6.47486e-05      45.7679 
         -25      32.5149  0.000221606  6.49562e-05      45.7652 
         -25        32.69  0.000221299  6.51472e-05      45.7624 
         -25      32.8655     0.000221   6.5315e-05      45.7597 
         -25      33.0414  0.000220714  6.54551e-05      45.7569 
         -25       33.218  0.000220443   6.5566e-05      45.7541 
         -25      33.3948  0.000220191  6.56508e-05      45.7513 
         -25      33.5723  0.000219953  6.57191e-05      45.7485 
         -25        33.75  0.000219723   6.5789e-05      45.7456 
         -25      33.9284  0.000219486  6.58895e-05      45.7428 
         -25      34.1073  0.000219217  6.60629e-05      45.7399 
         -25      34.2865  0.000218882  6.63673e-05       45.737 
         -25      34.4663  0.000218483  6.67823e-05      45.7341 
         -25      34.6465  0.000218145  6.69365e-05      45.7312 
         -25      34.8272  0.000217708  6.71497e-05      45.7283 
         -25      35.0083  0.000217237  6.74069e-05      45.7253 
         -25        35.19  0.000216777  6.76939e-05      45.7223 
         -25      35.3721  0.000216355  6.79965e-05      45.7193 
         -25      35.5546  0.000215984   6.8301e-05      45.7163 
         -25      35.7377  0.000215664  6.85954e-05      45.7133 
         -25      35.9211  0.000215389  6.88679e-05      45.7103 
         -25      36.1052  0.000215145  6.91092e-05      45.7072 
         -25      36.2895  0.000214915  6.93112e-05      45.7042 
         -25      36.4745  0.000214681  6.94687e-05      45.7011 
         -25      36.6598  0.000214425  6.95791e-05       45.698 
         -25      36.8457  0.000214133  6.96434e-05      45.6949 
         -25      37.0321  0.000213792  6.96664e-05      45.6918 
         -25      37.2188  0.000213398  6.96576e-05      45.6886 
         -25      37.4062   0.00021295  6.96321e-05      45.6855 
         -25      37.5938  0.000212455  6.96108e-05      45.6823 
         -25      37.7821  0.000211929  6.96219e-05      45.6791 
         -25      37.9707  0.000211395  6.97012e-05      45.6759 
         -25      38.1599   0.00021088  6.98937e-05      45.6727 
         -25      38.3496  0.000210421   7.0254e-05      45.6694 
         -25      38.5396  0.000210202  7.05728e-05      45.6662 
         -25      38.7302  0.000210121  7.05502e-05      45.6629 
         -25      38.9211  0.000209928  7.04778e-05      45.6596 
         -25      39.1127  0.000209637  7.03831e-05      45.6563 
         -25      39.3046  0.000209273   7.0298e-05       45.653 
         -25      39.4971   0.00020886  7.02552e-05      45.6497 
         -25      39.6899  0.000208428  7.02837e-05      45.6463 
         -25      39.8833  0.000208006  7.04038e-05       45.643 
         -25      40.0772  0.000207627  7.06217e-05      45.6396 
         -25      40.2714  0.000207318  7.09228e-05      45.6362 
         -25      40.4663  0.000207103  7.12661e-05      45.6328 
         -25      40.6615  0.000207002  7.15752e-05      45.6293 
         -25      40.8573  0.000207022  7.17316e-05      45.6259 
         -25      41.0534  0.000206759  7.19197e-05      45.6225 
         -25      41.2501  0.000206112  7.23726e-05       45.619 
         -25      41.4473   0.00020561  7.27136e-05      45.6155 
         -25      41.6448  0.000205212  7.29623e-05       45.612 
         -25      41.8429  0.000204885  7.31365e-05      45.6085 
         -25      42.0414  0.000204601  7.32514e-05       45.605 
         -25      42.2405  0.000204339  7.33208e-05      45.6014 
         -25      42.4399  0.000204082  7.33563e-05      45.5979 
         -25      42.6399  0.000203819  7.33681e-05      45.5943 
         -25      42.8404  0.000203542  7.33648e-05      45.5907 
         -25      43.0412  0.000203246  7.33537e-05      45.5871 
         -25      43.2426   0.00020293  7.33405e-05      45.5835 
         -25      43.4444  0.000202593  7.33303e-05      45.5799 
         -25      43.6467  0.000202238  7.33266e-05      45.5762 
         -25      43.8494  0.000201868  7.33323e-05      45.5726 
         -25      44.0527  0.000201486  7.33496e-05      45.5689 
         -25      44.2563  0.000201098  7.33795e-05      45.5652 
         -25      44.4606  0.000200706   7.3423e-05      45.5615 
         -25      44.6653  0.000200316  7.34801e-05      45.5578 
         -25      44.8704  0.000199931  7.35506e-05      45.5541 
         -25       45.076  0.000199552   7.3634e-05      45.5503 
         -25       45.282  0.000199182  7.37294e-05      45.5466 
         -25      45.4886  0.000198819   7.3836e-05      45.5428 
         -25      45.6955  0.000198464  7.39523e-05       45.539 
         -25       45.903  0.000198113  7.40776e-05      45.5352 
         -25      46.1111  0.000197762  7.42104e-05      45.5314 
         -25      46.3194  0.000197408  7.43496e-05      45.5276 
         -25      46.5283  0.000197041  7.44942e-05      45.5238 
         -25      46.7376  0.000196657  7.46431e-05      45.5199 
         -25      46.9475  0.000196247  7.47956e-05      45.5161 
         -25      47.1577  0.000195804  7.49508e-05      45.5122 
         -25      47.3685  0.000195318  7.51084e-05      45.5083 
         -25      47.5798  0.000194784  7.52676e-05      45.5044 
         -25      47.7914  0.000194196  7.54279e-05      45.5005 
         -25      48.0037  0.000193549  7.55609e-05      45.4966 