Variables = x, y, u, v, p

Zone, I=800, F=POINT
         350            0           -0           -0     -25.5035 
         350     0.000234 -7.89638e-06  2.26247e-11     -25.5035 
         350     0.000939 -2.94506e-05  3.65846e-10     -25.5035 
         350     0.002113 -5.84998e-05  1.85729e-09     -25.5035 
         350     0.003759 -8.68066e-05  5.89543e-09     -25.5035 
         350     0.005872 -0.000106104  1.44374e-08     -25.5035 
         350     0.008457  -0.00011068  3.00711e-08     -25.5035 
         350      0.01151 -9.88299e-05  5.59622e-08     -25.5035 
         350     0.015036 -7.33589e-05  9.59906e-08     -25.5035 
         350     0.019031 -4.06078e-05  1.54617e-07     -25.5035 
         350     0.023493 -8.05347e-06  2.36963e-07     -25.5035 
         350     0.028429  1.87452e-05  3.49024e-07     -25.5035 
         350     0.033831  3.85246e-05  4.97156e-07     -25.5035 
         350     0.039706  5.52167e-05  6.88752e-07     -25.5035 
         350     0.046047  7.56583e-05  9.31419e-07     -25.5035 
         350     0.052863  0.000104536  1.23395e-06     -25.5035 
         350      0.06015  0.000138179  1.60518e-06     -25.5035 
         350       0.0679   0.00016338  2.05407e-06     -25.5035 
         350     0.076126  0.000172996  2.59114e-06     -25.5035 
         350     0.084816  0.000204486  3.22561e-06     -25.5035 
         350     0.093982  0.000219449  3.96848e-06     -25.5035 
         350     0.103611  0.000234903  4.82882e-06     -25.5035 
         350     0.113718  0.000249258  5.81793e-06     -25.5035 
         350     0.124286  0.000261321  6.94379e-06     -25.5035 
         350     0.135333  0.000270423   8.2175e-06     -25.5035 
         350      0.14685  0.000276322  9.64676e-06     -25.5035 
         350     0.158827  0.000279135   1.1238e-05     -25.5035 
         350     0.171284  0.000279164   1.3001e-05     -25.5035 
         350     0.184201   0.00027668  1.49389e-05     -25.5035 
         350     0.197599   0.00027175  1.70599e-05     -25.5035 
         350     0.211455   0.00026421  1.93642e-05     -25.5035 
         350     0.225792  0.000253844  2.18584e-05     -25.5035 
         350       0.2406  0.000241111  2.45425e-05     -25.5035 
         350     0.255865   0.00022727   2.7414e-05     -25.5035 
         350     0.271613  0.000211125  3.04775e-05     -25.5035 
         350     0.287818  0.000193611  3.37259e-05     -25.5035 
         350     0.304506  0.000174938  3.71616e-05     -25.5035 
         350      0.32165  0.000155385  4.07752e-05     -25.5035 
         350     0.339278  0.000135176  4.45683e-05     -25.5035 
         350     0.357377  0.000114582  4.85329e-05     -25.5035 
         350      0.37593  9.38736e-05  5.26596e-05     -25.5035 
         350     0.394968  7.32586e-05  5.69491e-05     -25.5035 
         350     0.414461  5.29966e-05  6.13881e-05     -25.5035 
         350      0.43444  3.32637e-05   6.5977e-05     -25.5035 
         350     0.454872  1.42779e-05  7.07013e-05     -25.5035 
         350     0.475791 -3.83201e-06   7.5562e-05     -25.5035 
         350     0.497163 -2.09024e-05  8.05444e-05     -25.5035 
         350     0.519021  -3.6851e-05  8.56495e-05     -25.5035 
         350      0.54135 -5.15794e-05  9.08673e-05     -25.5035 
         350     0.564131 -6.50082e-05   9.6187e-05     -25.5035 
         350       0.5874 -7.70985e-05  0.000101611     -25.5035 
         350     0.611121 -8.77728e-05  0.000107125     -25.5035 
         350      0.63533 -9.70893e-05  0.000112735     -25.5035 
         350      0.65999 -0.000105029  0.000118417     -25.5035 
         350     0.685139 -0.000111628  0.000124177     -25.5035 
         350     0.710759 -0.000116922  0.000130007     -25.5035 
         350     0.736828 -0.000120966  0.000135897     -25.5035 
         350     0.763387 -0.000123841   0.00014185     -25.5035 
         350     0.790396 -0.000125633  0.000147851     -25.5035 
         350     0.817896 -0.000126449  0.000153902     -25.5035 
         350     0.845843 -0.000126405  0.000159986     -25.5035 
         350     0.874283 -0.000125628  0.000166103     -25.5035 
         350      0.90317 -0.000124254  0.000172236     -25.5035 
         350     0.932551 -0.000122421  0.000178384     -25.5035 
         350     0.962401 -0.000120273  0.000184534     -25.5035 
         350     0.992697 -0.000117953   0.00019067     -25.5035 
         350      1.02349 -0.000115595  0.000196794     -25.5035 
         350      1.05472 -0.000113333  0.000202887     -25.5035 
         350      1.08645 -0.000111281  0.000208948     -25.5035 
         350      1.11863 -0.000109546  0.000214961     -25.5035 
         350       1.1513 -0.000108212  0.000220927     -25.5035 
         350      1.18444 -0.000107348  0.000226834     -25.5035 
         350      1.21802 -0.000106995   0.00023267     -25.5035 
         350      1.25211 -0.000107175  0.000238439     -25.5035 
         350      1.28663 -0.000107883  0.000244124     -25.5035 
         350      1.32165 -0.000109093   0.00024973     -25.5035 
         350      1.35712 -0.000110756  0.000255239     -25.5035 
         350      1.39308 -0.000112812  0.000260653     -25.5035 
         350      1.42951 -0.000115189  0.000265959     -25.5035 
         350      1.46638 -0.000117811  0.000271139     -25.5035 
         350      1.50375 -0.000120626  0.000276185     -25.5035 
         350      1.54156 -0.000123881  0.000281155     -25.5035 
         350      1.57987 -0.000127057  0.000286025     -25.5035 
         350      1.61863 -0.000130125  0.000290773     -25.5035 
         350      1.65788 -0.000133097  0.000295401     -25.5035 
         350      1.69757 -0.000135976  0.000299892     -25.5035 
         350      1.73776 -0.000138771  0.000304247     -25.5035 
         350      1.77842 -0.000141487  0.000308456     -25.5035 
         350      1.81952 -0.000144127  0.000312507     -25.5035 
         350      1.86113   -0.0001467  0.000316401     -25.5035 
         350      1.90316 -0.000149208  0.000320126     -25.5035 
         350      1.94571 -0.000151658  0.000323681     -25.5035 
         350      1.98869 -0.000154051  0.000327056     -25.5035 
         350      2.03217 -0.000156393   0.00033025     -25.5035 
         350      2.07612 -0.000158684  0.000333256     -25.5035 
         350      2.12051 -0.000160926  0.000336066     -25.5035 
         350       2.1654 -0.000163123  0.000338682     -25.5035 
         350      2.21073 -0.000165272  0.000341094     -25.5035 
         350      2.25656 -0.000167378  0.000343304     -25.5035 
         350      2.30283 -0.000169435  0.000345305     -25.5035 
         350       2.3496 -0.000171448  0.000347096     -25.5035 
         350      2.39685 -0.000173413  0.000348675     -25.5036 
         350      2.44452 -0.000175325  0.000350037     -25.5036 
         350      2.49271 -0.000177187  0.000351184     -25.5036 
         350      2.54132 -0.000178992  0.000352112     -25.5036 
         350      2.59044 -0.000180739  0.000352821     -25.5036 
         350         2.64 -0.000182422  0.000353311     -25.5036 
         350      2.69006 -0.000184041  0.000353583     -25.5036 
         350      2.74056 -0.000185588  0.000353635     -25.5036 
         350      2.79156 -0.000187061   0.00035347     -25.5036 
         350      2.84304 -0.000188457  0.000353089     -25.5036 
         350      2.89494 -0.000189768  0.000352495     -25.5036 
         350      2.94735 -0.000190994  0.000351689     -25.5036 
         350       3.0002 -0.000192129  0.000350677     -25.5036 
         350      3.05355 -0.000193172   0.00034946     -25.5036 
         350      3.10733 -0.000194119  0.000348047     -25.5036 
         350      3.16163 -0.000194968   0.00034644     -25.5036 
         350      3.21639 -0.000195719   0.00034465     -25.5036 
         350      3.27158 -0.000196371  0.000342684     -25.5036 
         350      3.32729 -0.000196925  0.000340551     -25.5036 
         350      3.38342 -0.000197384  0.000338265     -25.5036 
         350      3.44007 -0.000197751  0.000335836     -25.5036 
         350      3.49714 -0.000198031  0.000333282     -25.5036 
         350      3.55472 -0.000198233  0.000330617     -25.5036 
         350      3.61273 -0.000198363  0.000327865     -25.5036 
         350      3.67125 -0.000198435  0.000325045     -25.5036 
         350      3.73025 -0.000198459  0.000322184     -25.5036 
         350      3.78967 -0.000198297  0.000319045     -25.5036 
         350      3.84961 -0.000197971  0.000315778     -25.5036 
         350      3.90996 -0.000197554  0.000312513     -25.5036 
         350      3.97084 -0.000197054  0.000309232     -25.5036 
         350      4.03214 -0.000196479  0.000305935     -25.5036 
         350      4.09395 -0.000195838  0.000302608     -25.5036 
         350      4.15624 -0.000195138  0.000299251     -25.5036 
         350      4.21895 -0.000194388  0.000295864     -25.5036 
         350      4.28217 -0.000193595   0.00029244     -25.5036 
         350      4.34582  -0.00019277  0.000288985     -25.5036 
         350      4.40998 -0.000191917  0.000285496     -25.5036 
         350      4.47457 -0.000191046  0.000281981     -25.5036 
         350      4.53968 -0.000190164  0.000278438     -25.5036 
         350      4.60525 -0.000189278  0.000274874     -25.5036 
         350      4.67125 -0.000188396  0.000271296     -25.5036 
         350      4.73777 -0.000187522  0.000267703     -25.5036 
         350       4.8047 -0.000186665  0.000264105     -25.5036 
         350      4.87216 -0.000185828  0.000260501     -25.5036 
         350      4.94003 -0.000185017  0.000256901     -25.5036 
         350      5.00843 -0.000184234  0.000253303     -25.5036 
         350      5.07724 -0.000183485  0.000249715     -25.5036 
         350      5.14658 -0.000182768  0.000246134     -25.5036 
         350      5.21639 -0.000182086  0.000242565     -25.5036 
         350      5.28661 -0.000181438   0.00023901     -25.5036 
         350      5.35736  -0.00018082  0.000235464     -25.5036 
         350      5.42852 -0.000180228  0.000231933     -25.5036 
         350      5.50021 -0.000179655  0.000228409     -25.5036 
         350      5.57231 -0.000179092  0.000224897     -25.5036 
         350      5.64493 -0.000178526  0.000221389     -25.5036 
         350      5.71803 -0.000177945  0.000217918     -25.5036 
         350      5.79154 -0.000177374  0.000214523     -25.5036 
         350      5.86558 -0.000176825  0.000211118     -25.5036 
         350      5.94003   -0.0001763   0.00020769     -25.5036 
         350      6.01501 -0.000175679  0.000204394     -25.5036 
         350       6.0904 -0.000175032   0.00020117     -25.5036 
         350      6.16632 -0.000174399  0.000197944     -25.5036 
         350      6.24271 -0.000173829  0.000194726     -25.5036 
         350       6.3195 -0.000173451  0.000191527     -25.5036 
         350      6.39683 -0.000173031  0.000188353     -25.5036 
         350      6.47457 -0.000172578  0.000185215     -25.5036 
         350      6.55284 -0.000172097  0.000182113     -25.5036 
         350      6.63152 -0.000171598  0.000179054     -25.5036 
         350      6.71073 -0.000171084  0.000176036     -25.5036 
         350      6.79034 -0.000170563  0.000173061     -25.5036 
         350      6.87049 -0.000170039  0.000170124     -25.5036 
         350      6.95111 -0.000169517  0.000167226     -25.5036 
         350      7.03214    -0.000169  0.000164366     -25.5036 
         350       7.1137 -0.000168491  0.000161537     -25.5036 
         350      7.19566 -0.000167993  0.000158742     -25.5036 
         350      7.27816 -0.000167507  0.000155974     -25.5036 
         350      7.36106 -0.000167036  0.000153238     -25.5036 
         350      7.44451 -0.000166577  0.000150529     -25.5036 
         350      7.52842 -0.000166133  0.000147849     -25.5036 
         350      7.61273 -0.000165702  0.000145201     -25.5036 
         350      7.69758 -0.000165284  0.000142584     -25.5036 
         350      7.78283 -0.000164877  0.000140005     -25.5036 
         350      7.86862  -0.00016448  0.000137461     -25.5036 
         350      7.95481 -0.000164092  0.000134961     -25.5036 
         350      8.04155 -0.000163711  0.000132501     -25.5036 
         350      8.12868 -0.000163337  0.000130087     -25.5036 
         350      8.21635 -0.000162968  0.000127713     -25.5036 
         350      8.30449 -0.000162605  0.000125379     -25.5036 
         350      8.39303 -0.000162249  0.000123077     -25.5036 
         350      8.48211 -0.000161903  0.000120791     -25.5036 
         350      8.57159 -0.000161571  0.000118505     -25.5036 
         350      8.66161 -0.000161257  0.000116188     -25.5036 
         350      8.75203 -0.000160889  0.000114021     -25.5036 
         350      8.84299 -0.000160533  0.000111888     -25.5036 
         350      8.93443 -0.000160194  0.000109774     -25.5036 
         350      9.02626 -0.000159868   0.00010768     -25.5036 
         350      9.11863 -0.000159552  0.000105603     -25.5036 
         350      9.21139 -0.000159244  0.000103548     -25.5036 
         350      9.30471 -0.000158943  0.000101515     -25.5036 
         350      9.39841 -0.000158648  9.95096e-05     -25.5036 
         350      9.49267 -0.000158359  9.75316e-05     -25.5036 
         350      9.58739 -0.000158076  9.55854e-05     -25.5036 
         350      9.68251 -0.000157799  9.36743e-05     -25.5036 
         350      9.77817 -0.000157529  9.17967e-05     -25.5036 
         350      9.87422 -0.000157266  8.99559e-05     -25.5036 
         350      9.97083 -0.000157011  8.81483e-05     -25.5036 
         350      10.0678 -0.000156766  8.63752e-05     -25.5036 
         350      10.1654  -0.00015653  8.46316e-05     -25.5036 
         350      10.2633 -0.000156304   8.2917e-05     -25.5036 
         350      10.3618 -0.000156087  8.12255e-05     -25.5036 
         350      10.4607 -0.000155881   7.9555e-05     -25.5036 
         350      10.5601 -0.000155683  7.79043e-05     -25.5036 
         350        10.66 -0.000155492  7.62694e-05     -25.5036 
         350      10.7603 -0.000155306  7.46536e-05     -25.5036 
         350      10.8611 -0.000155121  7.30581e-05     -25.5036 
         350      10.9623 -0.000154934  7.14935e-05     -25.5036 
         350      11.0641  -0.00015474   6.9971e-05     -25.5036 
         350      11.1663 -0.000154532  6.85126e-05     -25.5036 
         350       11.269 -0.000154303  6.71488e-05     -25.5036 
         350      11.3721 -0.000154127  6.57554e-05     -25.5036 
         350      11.4757 -0.000154057  6.42315e-05     -25.5036 
         350      11.5798 -0.000153999  6.27463e-05     -25.5036 
         350      11.6844 -0.000153948  6.13085e-05     -25.5036 
         350      11.7894 -0.000153887  5.99362e-05     -25.5036 
         350       11.895 -0.000153695  5.86887e-05     -25.5036 
         350      12.0009 -0.000153479  5.74588e-05     -25.5036 
         350      12.1073 -0.000153313   5.6169e-05     -25.5036 
         350      12.2142 -0.000153196  5.48061e-05     -25.5036 
         350      12.3216 -0.000153076   5.3517e-05     -25.5036 
         350      12.4294 -0.000152906  5.24676e-05     -25.5036 
         350      12.5378 -0.000152767  5.14062e-05     -25.5036 
         350      12.6465 -0.000152655   5.0332e-05     -25.5036 
         350      12.7558 -0.000152562  4.92447e-05     -25.5036 
         350      12.8656 -0.000152484  4.81498e-05     -25.5036 
         350      12.9757 -0.000152415  4.70543e-05     -25.5036 
         350      13.0864 -0.000152351   4.5964e-05     -25.5036 
         350      13.1975  -0.00015229   4.4888e-05     -25.5036 
         350      13.3092 -0.000152228  4.38316e-05     -25.5036 
         350      13.4212 -0.000152165  4.28022e-05     -25.5036 
         350      13.5338 -0.000152099  4.18024e-05     -25.5036 
         350      13.6468 -0.000152032  4.08352e-05     -25.5036 
         350      13.7603 -0.000151963  3.99012e-05     -25.5036 
         350      13.8743 -0.000151894  3.89968e-05     -25.5036 
         350      13.9886 -0.000151828  3.81191e-05     -25.5036 
         350      14.1036 -0.000151765  3.72609e-05     -25.5036 
         350      14.2189 -0.000151708  3.64165e-05     -25.5036 
         350      14.3348 -0.000151657  3.55774e-05     -25.5036 
         350       14.451 -0.000151612  3.47385e-05     -25.5036 
         350      14.5678 -0.000151573  3.38942e-05     -25.5036 
         350      14.6851 -0.000151534  3.30448e-05     -25.5036 
         350      14.8028 -0.000151491  3.21963e-05     -25.5036 
         350       14.921 -0.000151432  3.13607e-05     -25.5036 
         350      15.0396 -0.000151344  3.05633e-05     -25.5036 
         350      15.1588 -0.000151217  2.98468e-05     -25.5036 
         350      15.2783 -0.000151189  2.92058e-05     -25.5036 
         350      15.3984 -0.000151216  2.85147e-05     -25.5036 
         350       15.519 -0.000151279  2.77762e-05     -25.5036 
         350        15.64 -0.000151361  2.70132e-05     -25.5036 
         350      15.7615 -0.000151444  2.62604e-05     -25.5036 
         350      15.8834 -0.000151509  2.55568e-05     -25.5036 
         350      16.0058 -0.000151534  2.49242e-05     -25.5036 
         350      16.1286  -0.00015149  2.43475e-05     -25.5036 
         350       16.252 -0.000151336  2.37412e-05     -25.5036 
         350      16.3759 -0.000151219  2.30398e-05     -25.5036 
         350      16.5002 -0.000151316  2.24159e-05     -25.5036 
         350       16.625 -0.000151377  2.18023e-05     -25.5036 
         350      16.7501  -0.00015141  2.12061e-05     -25.5036 
         350      16.8759 -0.000151422  2.06304e-05     -25.5036 
         350       17.002 -0.000151419  2.00782e-05     -25.5036 
         350      17.1287 -0.000151407  1.95492e-05     -25.5036 
         350      17.2557 -0.000151388  1.90436e-05     -25.5036 
         350      17.3834 -0.000151367  1.85588e-05     -25.5036 
         350      17.5115 -0.000151347  1.80926e-05     -25.5036 
         350      17.6399 -0.000151328  1.76422e-05     -25.5036 
         350       17.769 -0.000151314  1.72035e-05     -25.5036 
         350      17.8984 -0.000151304  1.67735e-05     -25.5036 
         350      18.0284   -0.0001513  1.63485e-05     -25.5036 
         350      18.1587 -0.000151302  1.59261e-05     -25.5036 
         350      18.2896 -0.000151311  1.55037e-05     -25.5036 
         350       18.421 -0.000151327  1.50804e-05     -25.5036 
         350      18.5528 -0.000151349  1.46566e-05     -25.5036 
         350      18.6851 -0.000151378  1.42334e-05     -25.5036 
         350      18.8178 -0.000151414  1.38146e-05     -25.5036 
         350      18.9511 -0.000151458  1.34048e-05     -25.5036 
         350      19.0847 -0.000151501  1.30065e-05     -25.5036 
         350      19.2189 -0.000151464   1.2546e-05     -25.5036 
         350      19.3535  -0.00015145  1.20823e-05     -25.5036 
         350      19.4886 -0.000151458  1.16234e-05     -25.5036 
         350      19.6242 -0.000151485  1.11774e-05     -25.5036 
         350      19.7602 -0.000151531  1.07509e-05     -25.5036 
         350      19.8968 -0.000151591  1.03481e-05     -25.5036 
         350      20.0337 -0.000151661  9.97262e-06     -25.5036 
         350      20.1712 -0.000151738  9.62495e-06     -25.5036 
         350      20.3091 -0.000151817  9.30469e-06     -25.5036 
         350      20.4475 -0.000151892  9.00807e-06     -25.5036 
         350      20.5864 -0.000151956  8.72957e-06     -25.5036 
         350      20.7257 -0.000152004  8.46092e-06     -25.5036 
         350      20.8655 -0.000152028  8.19033e-06     -25.5036 
         350      21.0058  -0.00015202  7.90376e-06     -25.5036 
         350      21.1465 -0.000151971  7.58296e-06     -25.5036 
         350      21.2877 -0.000151935  7.35822e-06     -25.5036 
         350      21.4294 -0.000151952  7.18239e-06     -25.5036 
         350      21.5716 -0.000151988  6.96373e-06     -25.5036 
         350      21.7142 -0.000152035  6.72103e-06     -25.5036 
         350      21.8573  -0.00015209  6.46866e-06     -25.5036 
         350      22.0008 -0.000152147  6.21831e-06     -25.5036 
         350      22.1449 -0.000152204  5.97783e-06     -25.5036 
         350      22.2893 -0.000152257  5.75313e-06     -25.5036 
         350      22.4344 -0.000152304  5.54709e-06     -25.5036 
         350      22.5797 -0.000152343  5.36133e-06     -25.5036 
         350      22.7257 -0.000152374  5.19532e-06     -25.5036 
         350      22.8721 -0.000152395  5.04776e-06     -25.5036 
         350      23.0189 -0.000152407  4.91653e-06     -25.5036 
         350      23.1663  -0.00015241  4.79874e-06     -25.5036 
         350       23.314 -0.000152404  4.69188e-06     -25.5036 
         350      23.4623 -0.000152391  4.59334e-06     -25.5036 
         350       23.611 -0.000152424  4.42668e-06     -25.5036 
         350      23.7602  -0.00015252  4.16967e-06     -25.5036 
         350        23.91 -0.000152581  3.95989e-06     -25.5036 
         350        24.06 -0.000152614  3.78334e-06     -25.5036 
         350      24.2107 -0.000152629  3.62706e-06     -25.5036 
         350      24.3617 -0.000152633  3.48055e-06     -25.5036 
         350      24.5133 -0.000152637  3.33507e-06     -25.5036 
         350      24.6653 -0.000152647  3.18496e-06     -25.5036 
         350      24.8178 -0.000152671  3.02686e-06     -25.5036 
         350      24.9708 -0.000152714  2.86076e-06     -25.5036 
         350      25.1242 -0.000152778  2.68966e-06     -25.5036 
         350      25.2781  -0.00015286   2.5191e-06     -25.5036 
         350      25.4324 -0.000152954  2.35801e-06     -25.5036 
         350      25.5873 -0.000153046  2.21733e-06     -25.5036 
         350      25.7426 -0.000153115  2.11067e-06     -25.5036 
         350      25.8984  -0.00015313  2.05295e-06     -25.5036 
         350      26.0546  -0.00015305  2.06043e-06     -25.5036 
         350      26.2114 -0.000153088  1.95531e-06     -25.5036 
         350      26.3686  -0.00015322  1.78734e-06     -25.5036 
         350      26.5262 -0.000153273  1.69324e-06     -25.5036 
         350      26.6844 -0.000153273  1.65269e-06     -25.5036 
         350      26.8429 -0.000153242  1.64852e-06     -25.5036 
         350       27.002 -0.000153195  1.66626e-06     -25.5036 
         350      27.1615 -0.000153149  1.69415e-06     -25.5036 
         350      27.3216 -0.000153112  1.72311e-06     -25.5036 
         350      27.4821 -0.000153093  1.74654e-06     -25.5036 
         350       27.643 -0.000153096  1.76027e-06     -25.5036 
         350      27.8044 -0.000153122  1.76252e-06     -25.5036 
         350      27.9663 -0.000153169  1.75368e-06     -25.5036 
         350      28.1287 -0.000153235  1.73631e-06     -25.5036 
         350      28.2914 -0.000153312  1.71502e-06     -25.5036 
         350      28.4548 -0.000153395  1.69631e-06     -25.5036 
         350      28.6185  -0.00015346  1.68937e-06     -25.5036 
         350      28.7828  -0.00015338  1.68688e-06     -25.5036 
         350      28.9475 -0.000153309  1.66437e-06     -25.5036 
         350      29.1126 -0.000153252  1.62812e-06     -25.5036 
         350      29.2784 -0.000153213  1.58353e-06     -25.5036 
         350      29.4444 -0.000153191  1.53528e-06     -25.5036 
         350       29.611 -0.000153186  1.48708e-06     -25.5036 
         350       29.778 -0.000153197  1.44189e-06     -25.5036 
         350      29.9456 -0.000153219  1.40169e-06     -25.5036 
         350      30.1137  -0.00015325  1.36768e-06     -25.5036 
         350      30.2821 -0.000153284  1.34022e-06     -25.5036 
         350      30.4511 -0.000153316  1.31887e-06     -25.5036 
         350      30.6204 -0.000153343  1.30257e-06     -25.5036 
         350      30.7903 -0.000153362  1.28961e-06     -25.5036 
         350      30.9606  -0.00015337  1.27788e-06     -25.5036 
         350      31.1315 -0.000153369   1.2649e-06     -25.5036 
         350      31.3028 -0.000153362  1.24807e-06     -25.5036 
         350      31.4745 -0.000153356  1.22487e-06     -25.5036 
         350      31.6468 -0.000153364  1.19302e-06     -25.5036 
         350      31.8194 -0.000153404  1.15084e-06     -25.5036 
         350      31.9926 -0.000153501  1.09738e-06     -25.5036 
         350      32.1662 -0.000153687  1.03299e-06     -25.5036 
         350      32.3404 -0.000153582  1.18418e-06     -25.5036 
         350      32.5149 -0.000153461  1.32247e-06     -25.5036 
         350        32.69 -0.000153396  1.39854e-06     -25.5036 
         350      32.8655 -0.000153368  1.42381e-06     -25.5036 
         350      33.0414 -0.000153361  1.41074e-06     -25.5036 
         350       33.218 -0.000153362  1.37241e-06     -25.5036 
         350      33.3948 -0.000153359  1.32245e-06     -25.5036 
         350      33.5723 -0.000153346  1.27479e-06     -25.5036 
         350        33.75 -0.000153322  1.24381e-06     -25.5036 
         350      33.9284 -0.000153287  1.24407e-06     -25.5036 
         350      34.1073 -0.000153246  1.29055e-06     -25.5036 
         350      34.2865 -0.000153209  1.39851e-06     -25.5036 
         350      34.4663 -0.000153271  1.42888e-06     -25.5036 
         350      34.6465 -0.000153342  1.39953e-06     -25.5036 
         350      34.8272 -0.000153383  1.36736e-06     -25.5036 
         350      35.0083 -0.000153401  1.33248e-06     -25.5036 
         350        35.19 -0.000153402  1.29495e-06     -25.5036 
         350      35.3721 -0.000153391  1.25497e-06     -25.5036 
         350      35.5546 -0.000153374  1.21277e-06     -25.5036 
         350      35.7377 -0.000153353  1.16852e-06     -25.5036 
         350      35.9211 -0.000153333  1.12255e-06     -25.5036 
         350      36.1052 -0.000153316  1.07507e-06     -25.5036 
         350      36.2895 -0.000153303  1.02642e-06     -25.5036 
         350      36.4745 -0.000153295  9.76822e-07     -25.5036 
         350      36.6598 -0.000153294  9.26641e-07     -25.5036 
         350      36.8457   -0.0001533  8.76079e-07     -25.5036 
         350      37.0321 -0.000153312  8.25448e-07     -25.5036 
         350      37.2188  -0.00015333  7.75048e-07     -25.5036 
         350      37.4062 -0.000153354  7.25043e-07     -25.5036 
         350      37.5938 -0.000153381  6.75738e-07     -25.5036 
         350      37.7821 -0.000153411   6.2726e-07     -25.5036 
         350      37.9707 -0.000153443  5.79875e-07     -25.5036 
         350      38.1599 -0.000153474  5.33673e-07     -25.5036 
         350      38.3496 -0.000153504  4.88844e-07     -25.5036 
         350      38.5396 -0.000153531  4.45554e-07     -25.5036 
         350      38.7302 -0.000153553  4.03857e-07     -25.5036 
         350      38.9211  -0.00015357   3.6393e-07     -25.5036 
         350      39.1127  -0.00015358   3.2582e-07     -25.5036 
         350      39.3046 -0.000153584  2.89699e-07     -25.5036 
         350      39.4971  -0.00015358  2.55632e-07     -25.5036 
         350      39.6899 -0.000153569  2.23817e-07     -25.5036 
         350      39.8833 -0.000153553  1.94374e-07     -25.5036 
         350      40.0772 -0.000153531  1.67543e-07     -25.5036 
         350      40.2714 -0.000153506  1.43609e-07     -25.5036 
         350      40.4663 -0.000153481  1.22868e-07     -25.5036 
         350      40.6615  -0.00015346  1.05772e-07     -25.5036 
         350      40.8573 -0.000153446  9.28145e-08     -25.5036 
         350      41.0534 -0.000153445  8.46547e-08     -25.5036 
         350      41.2501 -0.000153463  8.20614e-08     -25.5036 
         350      41.4473 -0.000153508  8.59887e-08     -25.5036 
         350      41.6448 -0.000153588  9.75575e-08     -25.5036 
         350      41.8429 -0.000153713  1.18133e-07     -25.5036 
         350      42.0414 -0.000153894  1.49269e-07     -25.5036 
         350      42.2405 -0.000154143  1.92878e-07     -25.5036 
         350      42.4399 -0.000154126   1.5136e-07     -25.5036 
         350      42.6399  -0.00015396   8.8978e-08     -25.5036 
         350      42.8404 -0.000153805  4.62793e-08     -25.5036 
         350      43.0412 -0.000153668  1.49036e-08     -25.5036 
         350      43.2426 -0.000153555 -1.17639e-08     -25.5036 
         350      43.4444 -0.000153472 -3.81303e-08     -25.5036 
         350      43.6467 -0.000153422 -6.62418e-08     -25.5036 
         350      43.8494 -0.000153408 -9.52229e-08     -25.5036 
         350      44.0527 -0.000153433  -1.2102e-07     -25.5036 
         350      44.2563 -0.000153498 -1.35752e-07     -25.5036 
         350      44.4606 -0.000153606 -1.27315e-07     -25.5036 
         350      44.6653 -0.000153627 -1.43465e-07     -25.5036 
         350      44.8704 -0.000153586 -1.75859e-07     -25.5036 
         350       45.076 -0.000153564 -1.89286e-07     -25.5036 
         350       45.282 -0.000153556 -1.88682e-07     -25.5036 
         350      45.4886 -0.000153556  -1.7857e-07     -25.5036 
         350      45.6955 -0.000153559 -1.63077e-07     -25.5036 
         350       45.903 -0.000153563 -1.45918e-07     -25.5036 
         350      46.1111 -0.000153566 -1.30488e-07     -25.5036 
         350      46.3194 -0.000153564 -1.19847e-07     -25.5036 
         350      46.5283 -0.000153558  -1.1672e-07     -25.5036 
         350      46.7376 -0.000153547  -1.2355e-07     -25.5036 
         350      46.9475 -0.000153531 -1.42506e-07     -25.5036 
         350      47.1577 -0.000153511 -1.75436e-07     -25.5036 
         350      47.3685 -0.000153487 -2.23998e-07     -25.5036 
         350      47.5798 -0.000153462 -2.69374e-07     -25.5036 
         350      47.7914 -0.000153441 -2.73684e-07     -25.5036 
         350      48.0037 -0.000153422 -2.81909e-07     -25.5036 