Variables = x, y, u, v, p

Zone, I=800, F=POINT
         350            0           -0           -0      20.9047 
         350     0.000234  6.62684e-06 -3.14061e-11      20.9047 
         350     0.000939  2.50159e-05 -5.05544e-10      20.9047 
         350     0.002113  5.08104e-05 -2.55508e-09      20.9047 
         350     0.003759  7.82028e-05 -8.06346e-09      20.9047 
         350     0.005872  0.000101307 -1.96039e-08      20.9047 
         350     0.008457  0.000116056 -4.04781e-08      20.9047 
         350      0.01151  0.000121137 -7.45722e-08      20.9047 
         350     0.015036  0.000118435 -1.26456e-07      20.9047 
         350     0.019031  0.000112284 -2.01121e-07      20.9047 
         350     0.023493  0.000107849 -3.03996e-07      20.9047 
         350     0.028429  0.000109016 -4.41122e-07      20.9047 
         350     0.033831  0.000116627 -6.18434e-07      20.9047 
         350     0.039706  0.000127945 -8.42506e-07      20.9047 
         350     0.046047    0.0001381  -1.1195e-06      20.9047 
         350     0.052863  0.000143697 -1.45626e-06      20.9047 
         350      0.06015  0.000147014 -1.85893e-06      20.9047 
         350       0.0679  0.000156895 -2.33309e-06      20.9047 
         350     0.076126   0.00017809 -2.88525e-06      20.9047 
         350     0.084816  0.000184522 -3.51987e-06      20.9047 
         350     0.093982  0.000202687 -4.24257e-06      20.9047 
         350     0.103611  0.000220311 -5.05641e-06      20.9047 
         350     0.113718  0.000238362 -5.96604e-06      20.9047 
         350     0.124286  0.000257438  -6.9725e-06      20.9047 
         350     0.135333  0.000277854 -8.07928e-06      20.9047 
         350      0.14685  0.000299557 -9.28646e-06      20.9047 
         350     0.158827  0.000322251  -1.0593e-05      20.9047 
         350     0.171284   0.00034559 -1.20001e-05      20.9047 
         350     0.184201   0.00036919  -1.3504e-05      20.9047 
         350     0.197599  0.000392911 -1.51045e-05      20.9047 
         350     0.211455  0.000416739 -1.67957e-05      20.9047 
         350     0.225792  0.000440785 -1.85764e-05      20.9047 
         350       0.2406  0.000464647  -2.0441e-05      20.9047 
         350     0.255865  0.000487379 -2.23828e-05      20.9047 
         350     0.271613  0.000509893 -2.43994e-05      20.9047 
         350     0.287818   0.00053151 -2.64819e-05      20.9047 
         350     0.304506   0.00055215 -2.86279e-05      20.9047 
         350      0.32165  0.000571676 -3.08283e-05      20.9047 
         350     0.339278  0.000590031 -3.30809e-05      20.9047 
         350     0.357377  0.000607123 -3.53783e-05      20.9047 
         350      0.37593  0.000622875  -3.7713e-05      20.9047 
         350     0.394968  0.000637271 -4.00837e-05      20.9047 
         350     0.414461   0.00065026  -4.2482e-05      20.9047 
         350      0.43444  0.000661852 -4.49076e-05      20.9047 
         350     0.454872  0.000672033 -4.73528e-05      20.9047 
         350     0.475791   0.00068084 -4.98188e-05      20.9047 
         350     0.497163   0.00068829  -5.2299e-05      20.9047 
         350     0.519021  0.000694439 -5.47955e-05      20.9047 
         350      0.54135  0.000699325 -5.73048e-05      20.9047 
         350     0.564131  0.000702995 -5.98236e-05      20.9047 
         350       0.5874  0.000705494 -6.23546e-05      20.9047 
         350     0.611121  0.000706842 -6.48925e-05      20.9047 
         350      0.63533   0.00070711 -6.74465e-05      20.9047 
         350      0.65999  0.000706388 -7.00097e-05      20.9047 
         350     0.685139  0.000704694 -7.25868e-05      20.9047 
         350     0.710759  0.000702054 -7.51767e-05      20.9047 
         350     0.736828  0.000698498 -7.77778e-05      20.9047 
         350     0.763387  0.000694053 -8.03947e-05      20.9047 
         350     0.790396   0.00068876 -8.30239e-05      20.9047 
         350     0.817896   0.00068265 -8.56695e-05      20.9047 
         350     0.845843  0.000675774 -8.83272e-05      20.9047 
         350     0.874283  0.000668167 -9.10008e-05      20.9047 
         350      0.90317   0.00065989 -9.36853e-05      20.9047 
         350     0.932551   0.00065098 -9.63838e-05      20.9047 
         350     0.962401    0.0006415 -9.90922e-05      20.9047 
         350     0.992697  0.000631515 -0.000101806      20.9047 
         350      1.02349  0.000621069 -0.000104528      20.9047 
         350      1.05472  0.000610239 -0.000107249      20.9047 
         350      1.08645  0.000599072  -0.00010997      20.9047 
         350      1.11863  0.000587648 -0.000112683      20.9047 
         350       1.1513  0.000576015 -0.000115387      20.9047 
         350      1.18444  0.000564242 -0.000118076      20.9047 
         350      1.21802    0.0005524  -0.00012074      20.9047 
         350      1.25211  0.000540526  -0.00012338      20.9047 
         350      1.28663  0.000528688 -0.000125986      20.9047 
         350      1.32165  0.000516908 -0.000128557      20.9047 
         350      1.35712  0.000505236 -0.000131085      20.9047 
         350      1.39308   0.00049367 -0.000133569      20.9047 
         350      1.42951  0.000482214 -0.000136007      20.9047 
         350      1.46638  0.000470853 -0.000138397      20.9047 
         350      1.50375  0.000459513 -0.000140746      20.9047 
         350      1.54156  0.000448355 -0.000143016      20.9047 
         350      1.57987  0.000437136 -0.000145227      20.9047 
         350      1.61863  0.000425846 -0.000147375      20.9047 
         350      1.65788  0.000414459 -0.000149459      20.9047 
         350      1.69757  0.000402987 -0.000151475      20.9047 
         350      1.73776  0.000391406 -0.000153422      20.9047 
         350      1.77842  0.000379723 -0.000155296      20.9047 
         350      1.81952  0.000367948 -0.000157093      20.9047 
         350      1.86113  0.000356061 -0.000158813      20.9047 
         350      1.90316  0.000344085  -0.00016045      20.9047 
         350      1.94571  0.000332006 -0.000162006      20.9047 
         350      1.98869  0.000319851 -0.000163473      20.9047 
         350      2.03217   0.00030761 -0.000164853      20.9047 
         350      2.07612  0.000295305 -0.000166142      20.9047 
         350      2.12051  0.000282959 -0.000167336      20.9047 
         350       2.1654  0.000270568 -0.000168435      20.9047 
         350      2.21073  0.000258169 -0.000169435      20.9047 
         350      2.25656  0.000245762 -0.000170337      20.9047 
         350      2.30283  0.000233388 -0.000171136      20.9047 
         350       2.3496   0.00022105 -0.000171833      20.9047 
         350      2.39685  0.000208782 -0.000172425      20.9047 
         350      2.44452  0.000196619 -0.000172912      20.9047 
         350      2.49271  0.000184568 -0.000173292      20.9047 
         350      2.54132  0.000172676 -0.000173566      20.9047 
         350      2.59044  0.000160952 -0.000173732      20.9047 
         350         2.64  0.000149443 -0.000173792      20.9047 
         350      2.69006  0.000138159 -0.000173744      20.9047 
         350      2.74056  0.000127148  -0.00017359      20.9047 
         350      2.79156  0.000116418 -0.000173331      20.9047 
         350      2.84304  0.000106008 -0.000172967      20.9047 
         350      2.89494  9.59511e-05 -0.000172502      20.9047 
         350      2.94735  8.62571e-05 -0.000171935      20.9047 
         350       3.0002  7.69653e-05  -0.00017127      20.9047 
         350      3.05355  6.80834e-05 -0.000170509      20.9047 
         350      3.10733  5.96452e-05 -0.000169656      20.9047 
         350      3.16163  5.16553e-05 -0.000168712      20.9047 
         350      3.21639  4.41358e-05 -0.000167681      20.9047 
         350      3.27158  3.71047e-05 -0.000166567      20.9047 
         350      3.32729  3.05602e-05 -0.000165374      20.9047 
         350      3.38342  2.45191e-05 -0.000164105      20.9047 
         350      3.44007  1.89749e-05 -0.000162762      20.9047 
         350      3.49714  1.39363e-05 -0.000161352      20.9046 
         350      3.55472   9.3918e-06 -0.000159876      20.9046 
         350      3.61273   5.3417e-06 -0.000158338      20.9046 
         350      3.67125  1.76983e-06 -0.000156739      20.9046 
         350      3.73025 -1.33337e-06 -0.000155083      20.9046 
         350      3.78967 -4.03772e-06 -0.000153422      20.9046 
         350      3.84961 -6.39845e-06 -0.000151733      20.9046 
         350      3.90996 -8.41093e-06 -0.000150006      20.9046 
         350      3.97084 -1.00945e-05 -0.000148249      20.9046 
         350      4.03214  -1.1464e-05 -0.000146474      20.9046 
         350      4.09395 -1.25399e-05 -0.000144683      20.9046 
         350      4.15624 -1.33404e-05 -0.000142884      20.9046 
         350      4.21895  -1.3885e-05 -0.000141081      20.9046 
         350      4.28217 -1.41946e-05 -0.000139275      20.9046 
         350      4.34582 -1.42887e-05 -0.000137469      20.9046 
         350      4.40998  -1.4187e-05 -0.000135661      20.9046 
         350      4.47457 -1.39087e-05 -0.000133854      20.9046 
         350      4.53968 -1.34717e-05 -0.000132046      20.9046 
         350      4.60525 -1.28934e-05 -0.000130235      20.9046 
         350      4.67125 -1.21904e-05 -0.000128424      20.9046 
         350      4.73777 -1.13762e-05 -0.000126609      20.9046 
         350       4.8047 -1.04655e-05 -0.000124791      20.9046 
         350      4.87216 -9.46831e-06 -0.000122968      20.9046 
         350      4.94003 -8.39658e-06 -0.000121143      20.9046 
         350      5.00843 -7.25733e-06 -0.000119313      20.9046 
         350      5.07724 -6.05989e-06 -0.000117482      20.9046 
         350      5.14658 -4.80875e-06 -0.000115649      20.9046 
         350      5.21639 -3.51057e-06 -0.000113816      20.9046 
         350      5.28661 -2.17182e-06 -0.000111986      20.9046 
         350      5.35736 -7.95991e-07 -0.000110159      20.9046 
         350      5.42852  6.08197e-07 -0.000108338      20.9046 
         350      5.50021  2.03475e-06  -0.00010652      20.9046 
         350      5.57231  3.47049e-06 -0.000104708      20.9046 
         350      5.64493  4.90294e-06 -0.000102895      20.9046 
         350      5.71803  6.33818e-06 -0.000101098      20.9046 
         350      5.79154  7.80764e-06 -9.93621e-05      20.9046 
         350      5.86558  9.24147e-06 -9.76516e-05      20.9046 
         350      5.94003  1.06218e-05 -9.59754e-05      20.9046 
         350      6.01501  1.19298e-05 -9.42801e-05      20.9046 
         350       6.0904  1.31927e-05 -9.25937e-05      20.9046 
         350      6.16632  1.44202e-05 -9.09347e-05      20.9046 
         350      6.24271  1.56823e-05 -8.92959e-05      20.9046 
         350       6.3195  1.71386e-05 -8.76563e-05      20.9046 
         350      6.39683  1.85384e-05  -8.6026e-05      20.9046 
         350      6.47457  1.98879e-05 -8.44146e-05      20.9046 
         350      6.55284  2.11966e-05 -8.28244e-05      20.9046 
         350      6.63152  2.24688e-05 -8.12608e-05      20.9046 
         350      6.71073  2.37123e-05 -7.97231e-05      20.9046 
         350      6.79034  2.49297e-05 -7.82139e-05      20.9046 
         350      6.87049   2.6127e-05 -7.67302e-05      20.9046 
         350      6.95111  2.73065e-05 -7.52721e-05      20.9046 
         350      7.03214  2.84702e-05 -7.38391e-05      20.9046 
         350       7.1137   2.9622e-05 -7.24268e-05      20.9046 
         350      7.19566  3.07617e-05 -7.10359e-05      20.9046 
         350      7.27816  3.18926e-05 -6.96625e-05      20.9046 
         350      7.36106  3.30137e-05 -6.83076e-05      20.9046 
         350      7.44451  3.41273e-05 -6.69684e-05      20.9046 
         350      7.52842  3.52329e-05 -6.56456e-05      20.9046 
         350      7.61273  3.63296e-05 -6.43409e-05      20.9046 
         350      7.69758  3.74189e-05 -6.30531e-05      20.9046 
         350      7.78283  3.84986e-05 -6.17857e-05      20.9046 
         350      7.86862  3.95698e-05 -6.05384e-05      20.9046 
         350      7.95481  4.06299e-05 -5.93151e-05      20.9046 
         350      8.04155  4.16793e-05 -5.81153e-05      20.9046 
         350      8.12868  4.27148e-05  -5.6942e-05      20.9046 
         350      8.21635  4.37361e-05 -5.57928e-05      20.9046 
         350      8.30449    4.474e-05 -5.46667e-05      20.9046 
         350      8.39303  4.57226e-05 -5.35601e-05      20.9046 
         350      8.48211  4.66817e-05 -5.24632e-05      20.9046 
         350      8.57159   4.7611e-05 -5.13654e-05      20.9046 
         350      8.66161  4.85061e-05 -5.02471e-05      20.9046 
         350      8.75203  4.95313e-05 -4.92188e-05      20.9046 
         350      8.84299  5.05195e-05 -4.82052e-05      20.9046 
         350      8.93443  5.14628e-05 -4.72012e-05      20.9046 
         350      9.02626  5.23688e-05 -4.62105e-05      20.9046 
         350      9.11863  5.32465e-05 -4.52337e-05      20.9046 
         350      9.21139   5.4101e-05 -4.42736e-05      20.9046 
         350      9.30471  5.49392e-05 -4.33296e-05      20.9046 
         350      9.39841  5.57647e-05 -4.24033e-05      20.9046 
         350      9.49267  5.65825e-05  -4.1493e-05      20.9046 
         350      9.58739  5.73952e-05 -4.05988e-05      20.9046 
         350      9.68251  5.82043e-05 -3.97205e-05      20.9046 
         350      9.77817  5.90124e-05 -3.88555e-05      20.9046 
         350      9.87422   5.9819e-05  -3.8004e-05      20.9046 
         350      9.97083  6.06254e-05 -3.71634e-05      20.9046 
         350      10.0678  6.14295e-05  -3.6334e-05      20.9046 
         350      10.1654  6.22313e-05 -3.55138e-05      20.9046 
         350      10.2633  6.30275e-05 -3.47037e-05      20.9046 
         350      10.3618   6.3817e-05 -3.39025e-05      20.9046 
         350      10.4607  6.45962e-05 -3.31117e-05      20.9046 
         350      10.5601  6.53612e-05 -3.23336e-05      20.9046 
         350        10.66  6.61097e-05 -3.15696e-05      20.9046 
         350      10.7603  6.68364e-05 -3.08246e-05      20.9046 
         350      10.8611  6.75388e-05 -3.01026e-05      20.9046 
         350      10.9623  6.82114e-05  -2.9411e-05      20.9046 
         350      11.0641  6.88515e-05 -2.87571e-05      20.9046 
         350      11.1663  6.94545e-05 -2.81512e-05      20.9046 
         350       11.269  7.00165e-05 -2.76058e-05      20.9046 
         350      11.3721    7.063e-05 -2.70068e-05      20.9046 
         350      11.4757  7.13277e-05 -2.63091e-05      20.9046 
         350      11.5798   7.2005e-05 -2.56313e-05      20.9046 
         350      11.6844  7.26732e-05 -2.49199e-05      20.9046 
         350      11.7894  7.33419e-05 -2.41025e-05      20.9046 
         350       11.895  7.40344e-05  -2.3681e-05      20.9046 
         350      12.0009  7.46523e-05 -2.33685e-05      20.9046 
         350      12.1073  7.52045e-05  -2.2858e-05      20.9046 
         350      12.2142  7.57203e-05 -2.21899e-05      20.9046 
         350      12.3216  7.62152e-05 -2.14618e-05      20.9046 
         350      12.4294  7.67109e-05 -2.08838e-05      20.9046 
         350      12.5378  7.72221e-05 -2.03684e-05      20.9046 
         350      12.6465  7.77494e-05 -1.98976e-05      20.9046 
         350      12.7558  7.82915e-05 -1.94557e-05      20.9046 
         350      12.8656  7.88433e-05 -1.90314e-05      20.9046 
         350      12.9757   7.9398e-05 -1.86167e-05      20.9046 
         350      13.0864  7.99495e-05 -1.82051e-05      20.9046 
         350      13.1975  8.04897e-05 -1.77939e-05      20.9046 
         350      13.3092  8.10132e-05 -1.73813e-05      20.9046 
         350      13.4212  8.15144e-05 -1.69681e-05      20.9045 
         350      13.5338  8.19907e-05 -1.65554e-05      20.9045 
         350      13.6468  8.24407e-05 -1.61459e-05      20.9045 
         350      13.7603  8.28653e-05  -1.5743e-05      20.9045 
         350      13.8743  8.32684e-05 -1.53492e-05      20.9045 
         350      13.9886   8.3655e-05 -1.49678e-05      20.9045 
         350      14.1036  8.40327e-05 -1.46005e-05      20.9045 
         350      14.2189  8.44091e-05 -1.42491e-05      20.9045 
         350      14.3348   8.4793e-05 -1.39129e-05      20.9045 
         350       14.451  8.51913e-05 -1.35903e-05      20.9045 
         350      14.5678  8.56099e-05  -1.3277e-05      20.9045 
         350      14.6851  8.60495e-05 -1.29665e-05      20.9045 
         350      14.8028  8.65053e-05   -1.265e-05      20.9045 
         350       14.921  8.69652e-05 -1.23145e-05      20.9045 
         350      15.0396  8.74048e-05  -1.1945e-05      20.9045 
         350      15.1588  8.78068e-05 -1.15273e-05      20.9045 
         350      15.2783  8.82947e-05 -1.11705e-05      20.9045 
         350      15.3984  8.87092e-05 -1.08804e-05      20.9045 
         350       15.519  8.90443e-05 -1.06344e-05      20.9045 
         350        15.64  8.93141e-05 -1.04086e-05      20.9045 
         350      15.7615  8.95487e-05 -1.01847e-05      20.9045 
         350      15.8834  8.97864e-05 -9.95734e-06      20.9045 
         350      16.0058  9.00667e-05 -9.73797e-06      20.9045 
         350      16.1286  9.04174e-05 -9.55925e-06      20.9045 
         350       16.252  9.08428e-05 -9.47586e-06      20.9045 
         350      16.3759  9.11025e-05 -9.38758e-06      20.9045 
         350      16.5002  9.11549e-05 -9.11442e-06      20.9045 
         350       16.625  9.13131e-05 -8.85494e-06      20.9045 
         350      16.7501  9.15483e-05 -8.60699e-06      20.9045 
         350      16.8759  9.18365e-05 -8.36807e-06      20.9045 
         350       17.002  9.21565e-05 -8.13689e-06      20.9045 
         350      17.1287  9.24922e-05 -7.91186e-06      20.9045 
         350      17.2557  9.28295e-05 -7.69256e-06      20.9045 
         350      17.3834  9.31586e-05 -7.47832e-06      20.9045 
         350      17.5115  9.34718e-05 -7.26941e-06      20.9045 
         350      17.6399   9.3764e-05 -7.06649e-06      20.9045 
         350       17.769  9.40329e-05 -6.87004e-06      20.9045 
         350      17.8984  9.42776e-05 -6.68148e-06      20.9045 
         350      18.0284  9.44995e-05 -6.50181e-06      20.9045 
         350      18.1587  9.47009e-05 -6.33272e-06      20.9045 
         350      18.2896  9.48857e-05 -6.17534e-06      20.9045 
         350       18.421  9.50584e-05 -6.03107e-06      20.9045 
         350      18.5528   9.5224e-05 -5.90101e-06      20.9045 
         350      18.6851  9.53884e-05 -5.78547e-06      20.9045 
         350      18.8178  9.55568e-05 -5.68454e-06      20.9045 
         350      18.9511  9.57349e-05 -5.59708e-06      20.9045 
         350      19.0847  9.59337e-05 -5.51374e-06      20.9045 
         350      19.2189  9.62072e-05 -5.35884e-06      20.9045 
         350      19.3535  9.64642e-05 -5.22614e-06      20.9045 
         350      19.4886  9.67018e-05 -5.11088e-06      20.9045 
         350      19.6242  9.69171e-05 -5.00877e-06      20.9045 
         350      19.7602  9.71086e-05 -4.91567e-06      20.9045 
         350      19.8968   9.7276e-05 -4.82753e-06      20.9045 
         350      20.0337  9.74203e-05 -4.74101e-06      20.9045 
         350      20.1712  9.75445e-05  -4.6531e-06      20.9045 
         350      20.3091   9.7653e-05 -4.56186e-06      20.9045 
         350      20.4475  9.77531e-05 -4.46607e-06      20.9045 
         350      20.5864  9.78541e-05 -4.36602e-06      20.9045 
         350      20.7257  9.79678e-05 -4.26359e-06      20.9045 
         350      20.8655  9.81094e-05 -4.16235e-06      20.9045 
         350      21.0058  9.82966e-05 -4.06851e-06      20.9045 
         350      21.1465  9.85509e-05 -3.99073e-06      20.9045 
         350      21.2877  9.87136e-05 -3.82059e-06      20.9045 
         350      21.4294  9.87822e-05 -3.64053e-06      20.9045 
         350      21.5716  9.88725e-05 -3.52507e-06      20.9045 
         350      21.7142  9.89811e-05 -3.44891e-06      20.9045 
         350      21.8573  9.91047e-05 -3.39285e-06      20.9045 
         350      22.0008  9.92399e-05 -3.34334e-06      20.9045 
         350      22.1449  9.93832e-05 -3.29129e-06      20.9045 
         350      22.2893  9.95306e-05  -3.2317e-06      20.9045 
         350      22.4344  9.96784e-05 -3.16262e-06      20.9045 
         350      22.5797   9.9822e-05 -3.08482e-06      20.9045 
         350      22.7257   9.9957e-05 -3.00082e-06      20.9045 
         350      22.8721  0.000100078 -2.91473e-06      20.9045 
         350      23.0189  0.000100181 -2.83154e-06      20.9045 
         350      23.1663   0.00010026 -2.75654e-06      20.9045 
         350       23.314  0.000100309 -2.69536e-06      20.9045 
         350      23.4623  0.000100325 -2.65326e-06      20.9045 
         350       23.611  0.000100374 -2.68745e-06      20.9045 
         350      23.7602  0.000100525 -2.78988e-06      20.9045 
         350        23.91  0.000100652 -2.84864e-06      20.9045 
         350        24.06  0.000100757 -2.87056e-06      20.9045 
         350      24.2107  0.000100841 -2.86386e-06      20.9045 
         350      24.3617  0.000100906 -2.83772e-06      20.9045 
         350      24.5133  0.000100955 -2.80157e-06      20.9045 
         350      24.6653  0.000100993 -2.76465e-06      20.9045 
         350      24.8178  0.000101025 -2.73495e-06      20.9045 
         350      24.9708  0.000101056 -2.71848e-06      20.9045 
         350      25.1242  0.000101094 -2.71814e-06      20.9045 
         350      25.2781  0.000101146 -2.73251e-06      20.9045 
         350      25.4324  0.000101218 -2.75455e-06      20.9045 
         350      25.5873  0.000101319 -2.77015e-06      20.9045 
         350      25.7426  0.000101452 -2.75646e-06      20.9045 
         350      25.8984  0.000101624 -2.68004e-06      20.9045 
         350      26.0546  0.000101837 -2.49514e-06      20.9045 
         350      26.2114  0.000101942 -2.44475e-06      20.9045 
         350      26.3686   0.00010196 -2.53722e-06      20.9045 
         350      26.5262  0.000101996 -2.57556e-06      20.9045 
         350      26.6844  0.000102039 -2.57663e-06      20.9045 
         350      26.8429  0.000102083 -2.55448e-06      20.9045 
         350       27.002  0.000102121 -2.52045e-06      20.9045 
         350      27.1615  0.000102153 -2.48332e-06      20.9045 
         350      27.3216  0.000102177 -2.44916e-06      20.9045 
         350      27.4821  0.000102195 -2.42158e-06      20.9045 
         350       27.643   0.00010221 -2.40172e-06      20.9045 
         350      27.8044  0.000102225 -2.38821e-06      20.9045 
         350      27.9663  0.000102243 -2.37738e-06      20.9045 
         350      28.1287  0.000102269 -2.36324e-06      20.9045 
         350      28.2914  0.000102304  -2.3376e-06      20.9045 
         350      28.4548  0.000102353 -2.29007e-06      20.9045 
         350      28.6185   0.00010242 -2.21979e-06      20.9045 
         350      28.7828  0.000102528 -2.25724e-06      20.9045 
         350      28.9475  0.000102602 -2.27859e-06      20.9045 
         350      29.1126  0.000102649 -2.28589e-06      20.9045 
         350      29.2784  0.000102677 -2.28147e-06      20.9045 
         350      29.4444  0.000102694 -2.26766e-06      20.9045 
         350       29.611  0.000102706 -2.24658e-06      20.9045 
         350       29.778  0.000102719 -2.22001e-06      20.9045 
         350      29.9456  0.000102738 -2.18926e-06      20.9045 
         350      30.1137  0.000102767  -2.1552e-06      20.9045 
         350      30.2821  0.000102806 -2.11828e-06      20.9045 
         350      30.4511  0.000102854  -2.0785e-06      20.9045 
         350      30.6204  0.000102911 -2.03583e-06      20.9045 
         350      30.7903  0.000102972  -1.9902e-06      20.9045 
         350      30.9606  0.000103032 -1.94206e-06      20.9045 
         350      31.1315  0.000103086 -1.89256e-06      20.9045 
         350      31.3028  0.000103126 -1.84429e-06      20.9045 
         350      31.4745  0.000103147 -1.80176e-06      20.9045 
         350      31.6468  0.000103143   -1.772e-06      20.9045 
         350      31.8194   0.00010311 -1.76558e-06      20.9045 
         350      31.9926  0.000103049 -1.79734e-06      20.9045 
         350      32.1662   0.00010296 -1.88741e-06      20.9045 
         350      32.3404  0.000102922 -1.77559e-06      20.9045 
         350      32.5149  0.000102927 -1.62524e-06      20.9045 
         350        32.69   0.00010296 -1.49859e-06      20.9045 
         350      32.8655  0.000103018 -1.39713e-06      20.9045 
         350      33.0414  0.000103097 -1.32179e-06      20.9045 
         350       33.218  0.000103191 -1.27289e-06      20.9045 
         350      33.3948  0.000103292 -1.25065e-06      20.9045 
         350      33.5723  0.000103389 -1.25488e-06      20.9045 
         350        33.75  0.000103471 -1.28523e-06      20.9045 
         350      33.9284  0.000103523 -1.34132e-06      20.9045 
         350      34.1073  0.000103528  -1.4227e-06      20.9045 
         350      34.2865  0.000103469 -1.52897e-06      20.9045 
         350      34.4663  0.000103477 -1.48543e-06      20.9045 
         350      34.6465  0.000103525 -1.39357e-06      20.9045 
         350      34.8272   0.00010356 -1.32781e-06      20.9045 
         350      35.0083  0.000103584 -1.28233e-06      20.9045 
         350        35.19  0.000103601   -1.252e-06      20.9045 
         350      35.3721  0.000103613 -1.23264e-06      20.9045 
         350      35.5546  0.000103621 -1.22075e-06      20.9045 
         350      35.7377  0.000103628 -1.21351e-06      20.9045 
         350      35.9211  0.000103633  -1.2087e-06      20.9045 
         350      36.1052   0.00010364 -1.20464e-06      20.9045 
         350      36.2895  0.000103648  -1.2001e-06      20.9045 
         350      36.4745  0.000103657 -1.19425e-06      20.9045 
         350      36.6598  0.000103669 -1.18664e-06      20.9045 
         350      36.8457  0.000103683 -1.17704e-06      20.9045 
         350      37.0321    0.0001037  -1.1655e-06      20.9045 
         350      37.2188  0.000103718 -1.15222e-06      20.9045 
         350      37.4062  0.000103739 -1.13751e-06      20.9045 
         350      37.5938  0.000103761 -1.12179e-06      20.9045 
         350      37.7821  0.000103785 -1.10548e-06      20.9045 
         350      37.9707  0.000103809 -1.08905e-06      20.9045 
         350      38.1599  0.000103833 -1.07287e-06      20.9045 
         350      38.3496  0.000103857 -1.05729e-06      20.9045 
         350      38.5396   0.00010388 -1.04259e-06      20.9045 
         350      38.7302  0.000103902  -1.0289e-06      20.9045 
         350      38.9211  0.000103922 -1.01626e-06      20.9045 
         350      39.1127   0.00010394 -1.00458e-06      20.9045 
         350      39.3046  0.000103955 -9.93666e-07      20.9045 
         350      39.4971  0.000103968 -9.83166e-07      20.9045 
         350      39.6899  0.000103979 -9.72672e-07      20.9045 
         350      39.8833  0.000103987 -9.61654e-07      20.9045 
         350      40.0772  0.000103993 -9.49556e-07      20.9045 
         350      40.2714  0.000103997 -9.35804e-07      20.9045 
         350      40.4663  0.000104001  -9.1982e-07      20.9045 
         350      40.6615  0.000104004 -9.01153e-07      20.9045 
         350      40.8573  0.000104009 -8.79441e-07      20.9045 
         350      41.0534  0.000104017 -8.54601e-07      20.9045 
         350      41.2501  0.000104029 -8.26774e-07      20.9045 
         350      41.4473  0.000104047 -7.96549e-07      20.9045 
         350      41.6448  0.000104075 -7.65015e-07      20.9045 
         350      41.8429  0.000104113 -7.33794e-07      20.9045 
         350      42.0414  0.000104166 -7.05341e-07      20.9045 
         350      42.2405  0.000104236  -6.8289e-07      20.9045 
         350      42.4399  0.000104221 -7.13608e-07      20.9045 
         350      42.6399  0.000104157 -7.85243e-07      20.9045 
         350      42.8404  0.000104095 -8.70959e-07      20.9045 
         350      43.0412   0.00010404 -9.60498e-07      20.9045 
         350      43.2426     0.000104 -1.04281e-06      20.9045 
         350      43.4444  0.000103979 -1.10587e-06      20.9045 
         350      43.6467  0.000103985 -1.13744e-06      20.9045 
         350      43.8494  0.000104023 -1.12503e-06      20.9045 
         350      44.0527  0.000104099 -1.05647e-06      20.9045 
         350      44.2563  0.000104217 -9.20349e-07      20.9045 
         350      44.4606  0.000104381 -7.06005e-07      20.9045 
         350      44.6653  0.000104484 -7.50094e-07      20.9045 
         350      44.8704  0.000104493  -9.6685e-07      20.9045 
         350       45.076  0.000104478 -1.12485e-06      20.9045 
         350       45.282  0.000104447 -1.22893e-06      20.9045 
         350      45.4886  0.000104407 -1.28488e-06      20.9045 
         350      45.6955  0.000104366 -1.29873e-06      20.9045 
         350       45.903  0.000104327 -1.27702e-06      20.9045 
         350      46.1111  0.000104295 -1.22665e-06      20.9045 
         350      46.3194  0.000104273 -1.15491e-06      20.9045 
         350      46.5283  0.000104262 -1.06917e-06      20.9045 
         350      46.7376  0.000104264 -9.77249e-07      20.9045 
         350      46.9475  0.000104278 -8.86839e-07      20.9045 
         350      47.1577  0.000104305 -8.05982e-07      20.9045 
         350      47.3685  0.000104343 -7.42474e-07      20.9045 
         350      47.5798  0.000104371 -7.39456e-07      20.9045 
         350      47.7914  0.000104363 -8.22696e-07      20.9045 
         350      48.0037  0.000104367  -8.8887e-07      20.9045 