Variables = x, y, u, v, p

Zone, I=800, F=POINT
         700            0           -0           -0     0.775271 
         700     0.000234 -8.17131e-06   3.4831e-12     0.775271 
         700     0.000939 -3.09842e-05  6.40601e-11     0.775271 
         700     0.002113 -6.34253e-05  3.30715e-10     0.775271 
         700     0.003759 -9.87663e-05  1.04955e-09     0.775271 
         700     0.005872 -0.000130049  2.55356e-09     0.775271 
         700     0.008457  -0.00015226  5.26479e-09     0.775271 
         700      0.01151 -0.000163364  9.67235e-09     0.775271 
         700     0.015036  -0.00016491  1.63421e-08     0.775271 
         700     0.019031 -0.000161266  2.58796e-08     0.775271 
         700     0.023493 -0.000157939  3.89304e-08     0.775271 
         700     0.028429  -0.00015929  5.61996e-08     0.775271 
         700     0.033831 -0.000166553   7.8361e-08     0.775271 
         700     0.039706 -0.000177116  1.06151e-07     0.775271 
         700     0.046047 -0.000185885  1.40239e-07     0.775271 
         700     0.052863 -0.000188984  1.81365e-07     0.775271 
         700      0.06015 -0.000188248  2.30176e-07     0.775271 
         700       0.0679 -0.000192568  2.87247e-07     0.775271 
         700     0.076126 -0.000207552  3.53274e-07     0.775271 
         700     0.084816  -0.00020791  4.28727e-07     0.775271 
         700     0.093982  -0.00021703  5.14204e-07     0.775271 
         700     0.103611  -0.00022498   6.1005e-07     0.775271 
         700     0.113718 -0.000232497  7.16845e-07     0.775271 
         700     0.124286 -0.000240076   8.3478e-07     0.775271 
         700     0.135333 -0.000248007  9.64369e-07     0.775271 
         700      0.14685 -0.000256338  1.10578e-06     0.775271 
         700     0.158827 -0.000264955  1.25908e-06     0.775271 
         700     0.171284 -0.000273691  1.42471e-06     0.775271 
         700     0.184201 -0.000282391  1.60252e-06     0.775271 
         700     0.197599  -0.00029105  1.79288e-06     0.775271 
         700     0.211455 -0.000299789  1.99551e-06     0.775271 
         700     0.225792 -0.000308792   2.2107e-06     0.775271 
         700       0.2406 -0.000317892  2.43816e-06     0.775271 
         700     0.255865 -0.000326515  2.67742e-06     0.775271 
         700     0.271613  -0.00033539  2.92903e-06     0.775271 
         700     0.287818 -0.000344138  3.19225e-06     0.775271 
         700     0.304506 -0.000352763    3.467e-06     0.775271 
         700      0.32165 -0.000361238  3.75233e-06     0.775271 
         700     0.339278  -0.00036956  4.04821e-06     0.775271 
         700     0.357377 -0.000377706  4.35392e-06     0.775271 
         700      0.37593 -0.000385649  4.66862e-06     0.775271 
         700     0.394968 -0.000393383  4.99224e-06     0.775271 
         700     0.414461 -0.000400879  5.32355e-06     0.775271 
         700      0.43444 -0.000408132   5.6623e-06     0.775271 
         700     0.454872 -0.000415117    6.007e-06     0.775271 
         700     0.475791 -0.000421838  6.35718e-06     0.775271 
         700     0.497163 -0.000428279  6.71114e-06     0.775271 
         700     0.519021 -0.000434452  7.06829e-06     0.775271 
         700      0.54135 -0.000440355  7.42728e-06     0.775271 
         700     0.564131 -0.000445988  7.78702e-06     0.775271 
         700       0.5874 -0.000451359  8.14779e-06     0.775271 
         700     0.611121 -0.000456454  8.50919e-06     0.775271 
         700      0.63533 -0.000461331  8.86708e-06     0.775272 
         700      0.65999 -0.000465945   9.2226e-06     0.775272 
         700     0.685139 -0.000470326  9.57532e-06     0.775272 
         700     0.710759 -0.000474488  9.92421e-06     0.775272 
         700     0.736828 -0.000478443  1.02684e-05     0.775272 
         700     0.763387 -0.000482209  1.06082e-05     0.775272 
         700     0.790396 -0.000485786   1.0943e-05     0.775272 
         700     0.817896 -0.000489179  1.12736e-05     0.775272 
         700     0.845843 -0.000492381  1.15998e-05     0.775272 
         700     0.874283 -0.000495386  1.19231e-05     0.775272 
         700      0.90317 -0.000498176   1.2244e-05     0.775272 
         700     0.932551 -0.000500734  1.25642e-05     0.775272 
         700     0.962401 -0.000503034  1.28851e-05     0.775272 
         700     0.992697 -0.000505045  1.32082e-05     0.775272 
         700      1.02349 -0.000506736  1.35361e-05     0.775272 
         700      1.05472 -0.000508069  1.38703e-05     0.775272 
         700      1.08645 -0.000509006  1.42139e-05     0.775272 
         700      1.11863 -0.000509506  1.45685e-05     0.775272 
         700       1.1513  -0.00050953  1.49374e-05     0.775272 
         700      1.18444 -0.000509037  1.53226e-05     0.775272 
         700      1.21802 -0.000507993  1.57263e-05     0.775272 
         700      1.25211 -0.000506364  1.61515e-05     0.775272 
         700      1.28663 -0.000504129  1.65994e-05     0.775272 
         700      1.32165 -0.000501268  1.70728e-05     0.775272 
         700      1.35712  -0.00049778  1.75723e-05     0.775272 
         700      1.39308 -0.000493669  1.80999e-05     0.775272 
         700      1.42951 -0.000488962  1.86559e-05     0.775272 
         700      1.46638 -0.000483707  1.92398e-05     0.775272 
         700      1.50375 -0.000477958   1.9852e-05     0.775272 
         700      1.54156 -0.000471552  2.04924e-05     0.775272 
         700      1.57987 -0.000464902  2.11457e-05     0.775273 
         700      1.61863  -0.00045807  2.18105e-05     0.775273 
         700      1.65788 -0.000451075  2.24877e-05     0.775273 
         700      1.69757 -0.000443952  2.31759e-05     0.775273 
         700      1.73776 -0.000436711  2.38756e-05     0.775273 
         700      1.77842 -0.000429379  2.45855e-05     0.775273 
         700      1.81952 -0.000421979   2.5304e-05     0.775273 
         700      1.86113 -0.000414513  2.60311e-05     0.775274 
         700      1.90316 -0.000407005  2.67643e-05     0.775274 
         700      1.94571 -0.000399453  2.75033e-05     0.775274 
         700      1.98869 -0.000391878  2.82452e-05     0.775274 
         700      2.03217 -0.000384271  2.89896e-05     0.775274 
         700      2.07612 -0.000376643  2.97341e-05     0.775275 
         700      2.12051 -0.000369001  3.04762e-05     0.775275 
         700       2.1654 -0.000361333  3.12152e-05     0.775275 
         700      2.21073 -0.000353651  3.19483e-05     0.775275 
         700      2.25656  -0.00034594  3.26748e-05     0.775276 
         700      2.30283 -0.000338211  3.33919e-05     0.775276 
         700       2.3496 -0.000330448  3.40991e-05     0.775276 
         700      2.39685 -0.000322654  3.47945e-05     0.775276 
         700      2.44452 -0.000314834  3.54763e-05     0.775277 
         700      2.49271 -0.000306973  3.61446e-05     0.775277 
         700      2.54132 -0.000299085  3.67975e-05     0.775277 
         700      2.59044 -0.000291156  3.74355e-05     0.775278 
         700         2.64 -0.000283203  3.80572e-05     0.775278 
         700      2.69006 -0.000275218  3.86636e-05     0.775279 
         700      2.74056 -0.000267219  3.92539e-05     0.775279 
         700      2.79156 -0.000259205  3.98294e-05     0.775279 
         700      2.84304 -0.000251192  4.03902e-05      0.77528 
         700      2.89494 -0.000243202  4.09366e-05      0.77528 
         700      2.94735 -0.000235237  4.14702e-05     0.775281 
         700       3.0002 -0.000227329  4.19911e-05     0.775281 
         700      3.05355 -0.000219486  4.25007e-05     0.775282 
         700      3.10733 -0.000211742  4.29987e-05     0.775282 
         700      3.16163 -0.000204105  4.34859e-05     0.775283 
         700      3.21639 -0.000196605  4.39614e-05     0.775284 
         700      3.27158 -0.000189266  4.44236e-05     0.775284 
         700      3.32729 -0.000182093  4.48708e-05     0.775285 
         700      3.38342 -0.000175109  4.52987e-05     0.775285 
         700      3.44007  -0.00016831  4.57027e-05     0.775286 
         700      3.49714 -0.000161701  4.60746e-05     0.775287 
         700      3.55472 -0.000155256  4.64052e-05     0.775287 
         700      3.61273 -0.000148953  4.66811e-05     0.775288 
         700      3.67125 -0.000142733  4.68863e-05     0.775289 
         700      3.73025 -0.000136527      4.7e-05     0.775289 
         700      3.78967 -0.000130548   4.7224e-05      0.77529 
         700      3.84961 -0.000124885  4.75115e-05     0.775291 
         700      3.90996 -0.000119461  4.77646e-05     0.775292 
         700      3.97084 -0.000114274  4.79843e-05     0.775293 
         700      4.03214 -0.000109338   4.8171e-05     0.775293 
         700      4.09395  -0.00010465  4.83254e-05     0.775294 
         700      4.15624 -0.000100218   4.8448e-05     0.775295 
         700      4.21895 -9.60483e-05  4.85396e-05     0.775296 
         700      4.28217 -9.21366e-05  4.86008e-05     0.775297 
         700      4.34582 -8.84896e-05  4.86323e-05     0.775297 
         700      4.40998 -8.51012e-05  4.86348e-05     0.775298 
         700      4.47457 -8.19755e-05   4.8609e-05     0.775299 
         700      4.53968 -7.91049e-05  4.85556e-05       0.7753 
         700      4.60525 -7.64883e-05  4.84752e-05     0.775301 
         700      4.67125 -7.40721e-05   4.8423e-05     0.775302 
         700      4.73777 -7.18974e-05  4.83545e-05     0.775303 
         700       4.8047 -6.99658e-05  4.82637e-05     0.775304 
         700      4.87216 -6.82631e-05   4.8153e-05     0.775304 
         700      4.94003 -6.67806e-05  4.80249e-05     0.775305 
         700      5.00843 -6.55037e-05  4.78813e-05     0.775306 
         700      5.07724  -6.4422e-05  4.77248e-05     0.775307 
         700      5.14658  -6.3521e-05  4.75574e-05     0.775308 
         700      5.21639 -6.27889e-05  4.73812e-05     0.775309 
         700      5.28661 -6.22131e-05  4.71987e-05      0.77531 
         700      5.35736   -6.178e-05  4.70113e-05     0.775311 
         700      5.42852 -6.14778e-05  4.68212e-05     0.775312 
         700      5.50021 -6.12938e-05  4.66298e-05     0.775313 
         700      5.57231 -6.12168e-05   4.6439e-05     0.775314 
         700      5.64493 -6.12353e-05  4.62498e-05     0.775315 
         700      5.71803 -6.13391e-05  4.60636e-05     0.775316 
         700      5.79154 -6.15183e-05  4.58816e-05     0.775317 
         700      5.86558 -6.17642e-05  4.57044e-05     0.775318 
         700      5.94003 -6.20685e-05  4.55329e-05     0.775319 
         700      6.01501 -6.24244e-05  4.53673e-05      0.77532 
         700       6.0904 -6.28252e-05  4.52082e-05     0.775321 
         700      6.16632 -6.32661e-05  4.50554e-05     0.775322 
         700      6.24271 -6.37425e-05  4.49091e-05     0.775323 
         700       6.3195 -6.42503e-05  4.47692e-05     0.775324 
         700      6.39683 -6.47874e-05  4.46352e-05     0.775326 
         700      6.47457 -6.53505e-05   4.4507e-05     0.775327 
         700      6.55284 -6.59387e-05  4.43839e-05     0.775328 
         700      6.63152 -6.65494e-05  4.42658e-05     0.775329 
         700      6.71073 -6.71819e-05   4.4152e-05      0.77533 
         700      6.79034  -6.7833e-05  4.40426e-05     0.775331 
         700      6.87049  -6.8501e-05  4.39372e-05     0.775332 
         700      6.95111 -6.91815e-05  4.38361e-05     0.775333 
         700      7.03214 -6.98684e-05  4.37399e-05     0.775334 
         700       7.1137 -7.05552e-05  4.36495e-05     0.775336 
         700      7.19566 -7.12305e-05  4.35665e-05     0.775337 
         700      7.27816 -7.18812e-05   4.3493e-05     0.775338 
         700      7.36106 -7.24882e-05  4.34322e-05     0.775339 
         700      7.44451 -7.30292e-05   4.3388e-05      0.77534 
         700      7.52842 -7.35696e-05  4.32867e-05     0.775341 
         700      7.61273 -7.42931e-05  4.30425e-05     0.775342 
         700      7.69758 -7.50197e-05  4.28357e-05     0.775344 
         700      7.78283 -7.57478e-05  4.26541e-05     0.775345 
         700      7.86862 -7.64782e-05   4.2487e-05     0.775346 
         700      7.95481 -7.72095e-05  4.23263e-05     0.775347 
         700      8.04155 -7.79425e-05  4.21652e-05     0.775348 
         700      8.12868 -7.86755e-05  4.19993e-05      0.77535 
         700      8.21635 -7.94093e-05  4.18251e-05     0.775351 
         700      8.30449  -8.0143e-05  4.16406e-05     0.775352 
         700      8.39303 -8.08756e-05  4.14453e-05     0.775353 
         700      8.48211 -8.16079e-05   4.1239e-05     0.775355 
         700      8.57159 -8.23382e-05   4.1023e-05     0.775356 
         700      8.66161 -8.30676e-05  4.07983e-05     0.775357 
         700      8.75203 -8.37945e-05  4.05672e-05     0.775359 
         700      8.84299   -8.452e-05  4.03315e-05      0.77536 
         700      8.93443 -8.52432e-05  4.00934e-05     0.775361 
         700      9.02626 -8.59637e-05  3.98552e-05     0.775362 
         700      9.11863 -8.66827e-05  3.96182e-05     0.775364 
         700      9.21139 -8.73994e-05  3.93843e-05     0.775365 
         700      9.30471 -8.81153e-05   3.9154e-05     0.775366 
         700      9.39841 -8.88299e-05  3.89278e-05     0.775368 
         700      9.49267 -8.95454e-05   3.8705e-05     0.775369 
         700      9.58739 -9.02624e-05  3.84846e-05     0.775371 
         700      9.68251 -9.09818e-05  3.82647e-05     0.775372 
         700      9.77817 -9.17066e-05  3.80422e-05     0.775373 
         700      9.87422  -9.2438e-05   3.7814e-05     0.775375 
         700      9.97083   -9.318e-05  3.75754e-05     0.775376 
         700      10.0678 -9.39346e-05   3.7322e-05     0.775378 
         700      10.1654 -9.47069e-05   3.7048e-05     0.775379 
         700      10.2633 -9.53776e-05  3.67104e-05      0.77538 
         700      10.3618 -9.60222e-05  3.63556e-05     0.775382 
         700      10.4607 -9.66839e-05  3.60082e-05     0.775383 
         700      10.5601 -9.73524e-05  3.56742e-05     0.775385 
         700        10.66 -9.80156e-05  3.53599e-05     0.775386 
         700      10.7603 -9.86546e-05  3.50742e-05     0.775388 
         700      10.8611 -9.92467e-05  3.48269e-05     0.775389 
         700      10.9623 -9.97604e-05  3.46314e-05     0.775391 
         700      11.0641 -0.000100351   3.4421e-05     0.775392 
         700      11.1663 -0.000101103  3.41258e-05     0.775394 
         700       11.269 -0.000101817  3.38227e-05     0.775395 
         700      11.3721 -0.000102499  3.35142e-05     0.775397 
         700      11.4757 -0.000103152   3.3203e-05     0.775399 
         700      11.5798 -0.000103781  3.28904e-05       0.7754 
         700      11.6844  -0.00010439  3.25784e-05     0.775402 
         700      11.7894 -0.000104982  3.22675e-05     0.775403 
         700       11.895 -0.000105561  3.19588e-05     0.775405 
         700      12.0009 -0.000106128  3.16528e-05     0.775407 
         700      12.1073 -0.000106688  3.13494e-05     0.775408 
         700      12.2142 -0.000107241   3.1049e-05      0.77541 
         700      12.3216 -0.000107791   3.0751e-05     0.775412 
         700      12.4294 -0.000108338  3.04555e-05     0.775413 
         700      12.5378 -0.000108883  3.01618e-05     0.775415 
         700      12.6465 -0.000109428  2.98698e-05     0.775417 
         700      12.7558 -0.000109974  2.95787e-05     0.775418 
         700      12.8656 -0.000110519  2.92883e-05      0.77542 
         700      12.9757 -0.000111065  2.89984e-05     0.775422 
         700      13.0864 -0.000111611  2.87083e-05     0.775424 
         700      13.1975 -0.000112156  2.84182e-05     0.775425 
         700      13.3092 -0.000112699  2.81277e-05     0.775427 
         700      13.4212  -0.00011324  2.78372e-05     0.775429 
         700      13.5338 -0.000113777  2.75464e-05     0.775431 
         700      13.6468 -0.000114308   2.7256e-05     0.775433 
         700      13.7603 -0.000114842  2.69247e-05     0.775435 
         700      13.8743 -0.000115372  2.65763e-05     0.775437 
         700      13.9886 -0.000115891  2.62379e-05     0.775438 
         700      14.1036   -0.0001164  2.59114e-05      0.77544 
         700      14.2189 -0.000116897  2.55993e-05     0.775442 
         700      14.3348 -0.000117383  2.53015e-05     0.775444 
         700       14.451 -0.000117856   2.5018e-05     0.775446 
         700      14.5678 -0.000118317  2.47463e-05     0.775448 
         700      14.6851 -0.000118766  2.44833e-05      0.77545 
         700      14.8028 -0.000119204  2.42246e-05     0.775452 
         700       14.921 -0.000119633  2.39637e-05     0.775454 
         700      15.0396 -0.000120053  2.36936e-05     0.775456 
         700      15.1588 -0.000120466  2.34052e-05     0.775458 
         700      15.2783 -0.000120876  2.30892e-05     0.775461 
         700      15.3984 -0.000121284  2.27345e-05     0.775463 
         700       15.519 -0.000121671  2.24279e-05     0.775465 
         700        15.64 -0.000122011  2.21955e-05     0.775467 
         700      15.7615 -0.000122309  2.19393e-05     0.775469 
         700      15.8834 -0.000122819  2.16654e-05     0.775471 
         700      16.0058 -0.000123415  2.13786e-05     0.775473 
         700      16.1286 -0.000123953  2.10809e-05     0.775476 
         700       16.252 -0.000124439  2.07752e-05     0.775478 
         700      16.3759 -0.000124877  2.04656e-05      0.77548 
         700      16.5002 -0.000125269  2.01562e-05     0.775482 
         700       16.625 -0.000125623  1.98509e-05     0.775485 
         700      16.7501 -0.000125923   1.9589e-05     0.775487 
         700      16.8759 -0.000126202  1.93571e-05     0.775489 
         700       17.002 -0.000126482  1.91265e-05     0.775492 
         700      17.1287 -0.000126766  1.88968e-05     0.775494 
         700      17.2557 -0.000127055  1.86682e-05     0.775497 
         700      17.3834  -0.00012735  1.84405e-05     0.775499 
         700      17.5115  -0.00012765  1.82137e-05     0.775501 
         700      17.6399 -0.000127956   1.7988e-05     0.775504 
         700       17.769 -0.000128267  1.77631e-05     0.775506 
         700      17.8984 -0.000128582  1.75394e-05     0.775509 
         700      18.0284 -0.000128901  1.73166e-05     0.775512 
         700      18.1587 -0.000129222  1.70951e-05     0.775514 
         700      18.2896 -0.000129544  1.68748e-05     0.775517 
         700       18.421 -0.000129866  1.66558e-05     0.775519 
         700      18.5528 -0.000130186  1.64385e-05     0.775522 
         700      18.6851 -0.000130503  1.62226e-05     0.775525 
         700      18.8178 -0.000130816  1.60087e-05     0.775527 
         700      18.9511 -0.000131123  1.57965e-05      0.77553 
         700      19.0847 -0.000131423  1.55864e-05     0.775533 
         700      19.2189 -0.000131715  1.53783e-05     0.775535 
         700      19.3535 -0.000131998  1.51725e-05     0.775538 
         700      19.4886 -0.000132273   1.4969e-05     0.775541 
         700      19.6242 -0.000132538  1.47678e-05     0.775544 
         700      19.7602 -0.000132793  1.45692e-05     0.775547 
         700      19.8968 -0.000133039  1.43731e-05      0.77555 
         700      20.0337 -0.000133276  1.41796e-05     0.775552 
         700      20.1712 -0.000133504  1.39885e-05     0.775555 
         700      20.3091 -0.000133724  1.38002e-05     0.775558 
         700      20.4475 -0.000133938  1.36141e-05     0.775561 
         700      20.5864 -0.000134146  1.34305e-05     0.775564 
         700      20.7257  -0.00013435  1.32493e-05     0.775567 
         700      20.8655 -0.000134552    1.307e-05      0.77557 
         700      21.0058 -0.000134752  1.28929e-05     0.775574 
         700      21.1465 -0.000134952  1.27173e-05     0.775577 
         700      21.2877 -0.000135154  1.25433e-05      0.77558 
         700      21.4294 -0.000135359  1.23702e-05     0.775583 
         700      21.5716 -0.000135568  1.21978e-05     0.775586 
         700      21.7142  -0.00013578  1.20259e-05     0.775589 
         700      21.8573 -0.000135997  1.18538e-05     0.775593 
         700      22.0008 -0.000136218  1.16811e-05     0.775596 
         700      22.1449  -0.00013644   1.1507e-05     0.775599 
         700      22.2893 -0.000136662  1.13312e-05     0.775603 
         700      22.4344 -0.000136879  1.11527e-05     0.775606 
         700      22.5797 -0.000137088  1.09711e-05     0.775609 
         700      22.7257 -0.000137281  1.07852e-05     0.775613 
         700      22.8721  -0.00013745  1.05946e-05     0.775616 
         700      23.0189 -0.000137584  1.03982e-05      0.77562 
         700      23.1663 -0.000137694  1.02155e-05     0.775623 
         700       23.314 -0.000137823  1.00539e-05     0.775627 
         700      23.4623 -0.000137958  9.88784e-06     0.775631 
         700       23.611 -0.000138098  9.72267e-06     0.775634 
         700      23.7602 -0.000138245  9.56179e-06     0.775638 
         700        23.91 -0.000138397  9.40765e-06     0.775642 
         700        24.06 -0.000138553  9.26158e-06     0.775645 
         700      24.2107 -0.000138712  9.12359e-06     0.775649 
         700      24.3617 -0.000138873  8.99341e-06     0.775653 
         700      24.5133 -0.000139033  8.86972e-06     0.775657 
         700      24.6653 -0.000139192  8.75122e-06      0.77566 
         700      24.8178 -0.000139349  8.63593e-06     0.775664 
         700      24.9708 -0.000139501  8.52206e-06     0.775668 
         700      25.1242 -0.000139647  8.40783e-06     0.775672 
         700      25.2781 -0.000139788  8.29133e-06     0.775676 
         700      25.4324 -0.000139922  8.17133e-06      0.77568 
         700      25.5873 -0.000140051  8.04656e-06     0.775684 
         700      25.7426 -0.000140174  7.91665e-06     0.775689 
         700      25.8984 -0.000140294  7.78134e-06     0.775693 
         700      26.0546  -0.00014041  7.64143e-06     0.775697 
         700      26.2114 -0.000140525  7.49793e-06     0.775701 
         700      26.3686 -0.000140642  7.35287e-06     0.775705 
         700      26.5262 -0.000140761  7.20899e-06      0.77571 
         700      26.6844 -0.000140887  7.06937e-06     0.775714 
         700      26.8429  -0.00014102  6.93817e-06     0.775718 
         700       27.002 -0.000141164  6.81974e-06     0.775723 
         700      27.1615 -0.000141319  6.71935e-06     0.775727 
         700      27.3216 -0.000141354  6.69873e-06     0.775732 
         700      27.4821 -0.000141382  6.67282e-06     0.775736 
         700       27.643 -0.000141422  6.62987e-06     0.775741 
         700      27.8044 -0.000141472  6.56943e-06     0.775745 
         700      27.9663 -0.000141531  6.49164e-06      0.77575 
         700      28.1287 -0.000141598  6.39692e-06     0.775755 
         700      28.2914 -0.000141672   6.2865e-06     0.775759 
         700      28.4548 -0.000141753    6.162e-06     0.775764 
         700      28.6185  -0.00014184  6.02617e-06     0.775769 
         700      28.7828 -0.000141932  5.88225e-06     0.775774 
         700      28.9475 -0.000142029  5.73479e-06     0.775779 
         700      29.1126 -0.000142129  5.58948e-06     0.775784 
         700      29.2784 -0.000142232  5.45292e-06     0.775788 
         700      29.4444 -0.000142335  5.33351e-06     0.775793 
         700       29.611 -0.000142437  5.24079e-06     0.775799 
         700       29.778 -0.000142536  5.18628e-06     0.775804 
         700      29.9456 -0.000142627  5.18311e-06     0.775809 
         700      30.1137 -0.000142706  5.24654e-06     0.775814 
         700      30.2821 -0.000142767  5.39376e-06     0.775819 
         700      30.4511 -0.000142821  5.43954e-06     0.775824 
         700      30.6204  -0.00014288  5.23038e-06      0.77583 
         700      30.7903 -0.000142925  5.05154e-06     0.775835 
         700      30.9606  -0.00014296  4.90025e-06      0.77584 
         700      31.1315 -0.000142991  4.77321e-06     0.775846 
         700      31.3028  -0.00014302  4.66747e-06     0.775851 
         700      31.4745  -0.00014305  4.58007e-06     0.775857 
         700      31.6468 -0.000143083  4.50794e-06     0.775862 
         700      31.8194  -0.00014312  4.44835e-06     0.775868 
         700      31.9926 -0.000143161  4.39852e-06     0.775874 
         700      32.1662 -0.000143207  4.35602e-06     0.775879 
         700      32.3404 -0.000143258  4.31846e-06     0.775885 
         700      32.5149 -0.000143313  4.28379e-06     0.775891 
         700        32.69 -0.000143371  4.25011e-06     0.775897 
         700      32.8655 -0.000143432  4.21584e-06     0.775903 
         700      33.0414 -0.000143494  4.17967e-06     0.775909 
         700       33.218 -0.000143557  4.14049e-06     0.775915 
         700      33.3948 -0.000143619  4.09757e-06     0.775921 
         700      33.5723  -0.00014368  4.05036e-06     0.775927 
         700        33.75 -0.000143738  3.99871e-06     0.775933 
         700      33.9284 -0.000143794  3.94261e-06     0.775939 
         700      34.1073 -0.000143846  3.88239e-06     0.775945 
         700      34.2865 -0.000143893  3.81866e-06     0.775952 
         700      34.4663 -0.000143937  3.75209e-06     0.775958 
         700      34.6465 -0.000143976  3.68371e-06     0.775964 
         700      34.8272  -0.00014401  3.61451e-06     0.775971 
         700      35.0083 -0.000144041  3.54579e-06     0.775977 
         700        35.19 -0.000144069  3.47871e-06     0.775984 
         700      35.3721 -0.000144094  3.41455e-06     0.775991 
         700      35.5546 -0.000144116  3.35456e-06     0.775997 
         700      35.7377 -0.000144137  3.29968e-06     0.776004 
         700      35.9211 -0.000144157  3.25083e-06     0.776011 
         700      36.1052 -0.000144177  3.20849e-06     0.776018 
         700      36.2895 -0.000144196  3.17283e-06     0.776024 
         700      36.4745 -0.000144214  3.14346e-06     0.776031 
         700      36.6598 -0.000144232  3.11943e-06     0.776038 
         700      36.8457 -0.000144246    3.099e-06     0.776045 
         700      37.0321 -0.000144256  3.07958e-06     0.776052 
         700      37.2188 -0.000144259  3.05761e-06      0.77606 
         700      37.4062  -0.00014425  3.02826e-06     0.776067 
         700      37.5938 -0.000144224   2.9855e-06     0.776074 
         700      37.7821 -0.000144173  2.92163e-06     0.776081 
         700      37.9707  -0.00014409  2.82745e-06     0.776088 
         700      38.1599 -0.000144144   2.7908e-06     0.776096 
         700      38.3496 -0.000144252  2.75962e-06     0.776103 
         700      38.5396 -0.000144362  2.70883e-06     0.776111 
         700      38.7302 -0.000144475  2.64197e-06     0.776119 
         700      38.9211 -0.000144585  2.56313e-06     0.776126 
         700      39.1127 -0.000144689  2.47663e-06     0.776134 
         700      39.3046  -0.00014478  2.38752e-06     0.776142 
         700      39.4971 -0.000144852  2.30111e-06      0.77615 
         700      39.6899 -0.000144895  2.22358e-06     0.776157 
         700      39.8833 -0.000144898  2.16152e-06     0.776165 
         700      40.0772 -0.000144852  2.12241e-06     0.776173 
         700      40.2714 -0.000144743  2.11444e-06     0.776181 
         700      40.4663 -0.000144557  2.14664e-06      0.77619 
         700      40.6615 -0.000144668  2.06304e-06     0.776198 
         700      40.8573  -0.00014484  1.94724e-06     0.776206 
         700      41.0534 -0.000144967  1.84686e-06     0.776214 
         700      41.2501 -0.000145056  1.76238e-06     0.776223 
         700      41.4473 -0.000145114  1.69398e-06     0.776231 
         700      41.6448 -0.000145145  1.64127e-06      0.77624 
         700      41.8429 -0.000145154  1.60331e-06     0.776248 
         700      42.0414 -0.000145146   1.5789e-06     0.776257 
         700      42.2405 -0.000145124  1.56637e-06     0.776266 
         700      42.4399 -0.000145091  1.56381e-06     0.776274 
         700      42.6399 -0.000145048  1.56899e-06     0.776283 
         700      42.8404 -0.000144999  1.57949e-06     0.776292 
         700      43.0412 -0.000144944  1.59266e-06     0.776301 
         700      43.2426 -0.000144885  1.60574e-06      0.77631 
         700      43.4444 -0.000144822  1.61583e-06     0.776319 
         700      43.6467 -0.000144754  1.61998e-06     0.776328 
         700      43.8494 -0.000144683   1.6152e-06     0.776337 
         700      44.0527 -0.000144608  1.59846e-06     0.776347 
         700      44.2563 -0.000144527  1.56683e-06     0.776356 
         700      44.4606 -0.000144495  1.51274e-06     0.776365 
         700      44.6653 -0.000144628   1.4405e-06     0.776375 
         700      44.8704 -0.000144744  1.37465e-06     0.776384 
         700       45.076 -0.000144842  1.31527e-06     0.776394 
         700       45.282 -0.000144926  1.26248e-06     0.776404 
         700      45.4886 -0.000144994  1.21609e-06     0.776414 
         700      45.6955  -0.00014505  1.17595e-06     0.776423 
         700       45.903 -0.000145093  1.14165e-06     0.776433 
         700      46.1111 -0.000145125  1.11278e-06     0.776443 
         700      46.3194 -0.000145148   1.0888e-06     0.776453 
         700      46.5283 -0.000145162  1.06907e-06     0.776463 
         700      46.7376 -0.000145169  1.05291e-06     0.776474 
         700      46.9475 -0.000145171  1.03958e-06     0.776484 
         700      47.1577 -0.000145167   1.0283e-06     0.776494 
         700      47.3685 -0.000145161  1.01826e-06     0.776505 
         700      47.5798 -0.000145152  1.00866e-06     0.776515 
         700      47.7914 -0.000145142  9.98715e-07     0.776526 
         700      48.0037 -0.000145132   9.8764e-07     0.776536 