Variables = x, y, u, v, p

Zone, I=800, F=POINT
         100            0 -4.04085e-21  1.47239e-25      24.0331 
         100     0.000234 -2.11505e-07  3.95759e-11      24.0331 
         100     0.000939 -9.32013e-07  5.45713e-10      24.0331 
         100     0.002113 -2.39079e-06  2.66646e-09      24.0331 
         100     0.003759  -4.9196e-06   8.2891e-09      24.0331 
         100     0.005872 -8.85977e-06  1.99462e-08      24.0331 
         100     0.008457 -1.45109e-05  4.08117e-08      24.0331 
         100      0.01151 -2.20285e-05  7.45036e-08      24.0331 
         100     0.015036 -3.14236e-05  1.25123e-07      24.0331 
         100     0.019031 -4.25214e-05  1.96925e-07      24.0331 
         100     0.023493 -5.50355e-05  2.94281e-07      24.0331 
         100     0.028429 -6.86713e-05  4.21761e-07      24.0331 
         100     0.033831 -8.31553e-05    5.834e-07      24.0331 
         100     0.039706 -9.83981e-05  7.83335e-07      24.0331 
         100     0.046047 -0.000114441   1.0248e-06      24.0331 
         100     0.052863 -0.000131475  1.31104e-06      24.0331 
         100      0.06015 -0.000149619  1.64412e-06      24.0331 
         100       0.0679 -0.000168736  2.02501e-06      24.0331 
         100     0.076126 -0.000188367  2.45482e-06      24.0331 
         100     0.084816 -0.000208035  2.93241e-06      24.0331 
         100     0.093982 -0.000228698  3.45735e-06      24.0331 
         100     0.103611 -0.000249329  4.02657e-06      24.0331 
         100     0.113718 -0.000269871   4.6376e-06      24.0331 
         100     0.124286 -0.000290168  5.28536e-06      24.0331 
         100     0.135333 -0.000310109  5.96621e-06      24.0331 
         100      0.14685  -0.00032951   6.6743e-06      24.0331 
         100     0.158827 -0.000348182  7.40323e-06      24.0331 
         100     0.171284 -0.000365987  8.14799e-06      24.0331 
         100     0.184201 -0.000382754  8.90093e-06      24.0331 
         100     0.197599 -0.000398401  9.65664e-06      24.0331 
         100     0.211455 -0.000412838  1.04073e-05      24.0331 
         100     0.225792 -0.000426048  1.11482e-05      24.0331 
         100       0.2406 -0.000437961  1.18737e-05      24.0331 
         100     0.255865 -0.000448484  1.25794e-05      24.0331 
         100     0.271613 -0.000457749   1.3258e-05      24.0331 
         100     0.287818 -0.000465715  1.39055e-05      24.0331 
         100     0.304506 -0.000472451  1.45218e-05      24.0331 
         100      0.32165 -0.000478008  1.51049e-05      24.0331 
         100     0.339278 -0.000482471  1.56547e-05      24.0331 
         100     0.357377 -0.000485913  1.61703e-05      24.0331 
         100      0.37593 -0.000488413   1.6651e-05      24.0331 
         100     0.394968 -0.000490055  1.70984e-05      24.0331 
         100     0.414461 -0.000490913  1.75138e-05      24.0331 
         100      0.43444 -0.000491056  1.79008e-05      24.0331 
         100     0.454872 -0.000490542  1.82634e-05      24.0331 
         100     0.475791 -0.000489416  1.86081e-05      24.0331 
         100     0.497163 -0.000487709  1.89412e-05      24.0331 
         100     0.519021 -0.000485431  1.92703e-05      24.0331 
         100      0.54135 -0.000482579  1.96018e-05      24.0331 
         100     0.564131  -0.00047914  1.99395e-05      24.0331 
         100       0.5874 -0.000475076  2.02833e-05      24.0331 
         100     0.611121 -0.000470354  2.06245e-05      24.0331 
         100      0.63533 -0.000464937   2.1001e-05      24.0331 
         100      0.65999 -0.000458823  2.14312e-05      24.0331 
         100     0.685139 -0.000451918  2.19104e-05      24.0331 
         100     0.710759 -0.000444171  2.24342e-05      24.0331 
         100     0.736828 -0.000435565  2.29989e-05      24.0331 
         100     0.763387 -0.000426091  2.36028e-05      24.0331 
         100     0.790396 -0.000415794  2.42432e-05      24.0331 
         100     0.817896 -0.000404716  2.49197e-05      24.0331 
         100     0.845843 -0.000392958  2.56298e-05      24.0331 
         100     0.874283 -0.000380599  2.63735e-05      24.0331 
         100      0.90317 -0.000367776  2.71479e-05      24.0331 
         100     0.932551 -0.000354595  2.79517e-05      24.0331 
         100     0.962401 -0.000341199  2.87811e-05      24.0331 
         100     0.992697 -0.000327729   2.9631e-05      24.0331 
         100      1.02349 -0.000314288  3.04968e-05      24.0331 
         100      1.05472 -0.000301009  3.13699e-05      24.0331 
         100      1.08645 -0.000287964   3.2243e-05      24.0331 
         100      1.11863 -0.000275244  3.31047e-05      24.0331 
         100       1.1513 -0.000262868  3.39455e-05      24.0331 
         100      1.18444 -0.000250859  3.47535e-05      24.0331 
         100      1.21802 -0.000239205  3.55177e-05      24.0331 
         100      1.25211 -0.000227836  3.62306e-05      24.0331 
         100      1.28663 -0.000216696   3.6886e-05      24.0331 
         100      1.32165 -0.000205674   3.7486e-05      24.0331 
         100      1.35712 -0.000194694   3.8039e-05      24.0331 
         100      1.39308 -0.000183662  3.85677e-05      24.0331 
         100      1.42951 -0.000172551  3.91102e-05      24.0331 
         100      1.46638 -0.000161413  3.97261e-05      24.0331 
         100      1.50375 -0.000150395  4.05051e-05      24.0331 
         100      1.54156 -0.000139164  4.08774e-05      24.0331 
         100      1.57987 -0.000127797  4.12046e-05      24.0331 
         100      1.61863 -0.000116382  4.15229e-05      24.0331 
         100      1.65788 -0.000104946  4.18291e-05      24.0331 
         100      1.69757 -9.35505e-05  4.21191e-05      24.0331 
         100      1.73776 -8.22188e-05  4.23898e-05      24.0331 
         100      1.77842 -7.10001e-05  4.26375e-05      24.0331 
         100      1.81952 -5.99419e-05   4.2859e-05      24.0331 
         100      1.86113 -4.90623e-05  4.30515e-05      24.0331 
         100      1.90316 -3.84132e-05   4.3212e-05      24.0331 
         100      1.94571 -2.80093e-05  4.33382e-05      24.0331 
         100      1.98869 -1.78971e-05  4.34276e-05      24.0331 
         100      2.03217 -8.08716e-06  4.34785e-05      24.0331 
         100      2.07612  1.38741e-06  4.34892e-05      24.0331 
         100      2.12051  1.04976e-05  4.34586e-05      24.0331 
         100       2.1654  1.92386e-05  4.33858e-05      24.0331 
         100      2.21073  2.75798e-05  4.32704e-05      24.0331 
         100      2.25656  3.55205e-05  4.31125e-05      24.0331 
         100      2.30283  4.30371e-05  4.29127e-05      24.0331 
         100       2.3496  5.01325e-05  4.26716e-05      24.0331 
         100      2.39685   5.6795e-05  4.23907e-05      24.0331 
         100      2.44452  6.30161e-05  4.20724e-05      24.0331 
         100      2.49271  6.88047e-05  4.17183e-05      24.0331 
         100      2.54132  7.41533e-05  4.13319e-05      24.0331 
         100      2.59044  7.90738e-05  4.09158e-05      24.0331 
         100         2.64  8.35645e-05  4.04744e-05      24.0331 
         100      2.69006  8.76402e-05  4.00111e-05      24.0331 
         100      2.74056  9.13042e-05  3.95311e-05      24.0331 
         100      2.79156  9.45737e-05  3.90384e-05      24.0331 
         100      2.84304  9.74588e-05  3.85384e-05      24.0331 
         100      2.89494   9.9972e-05  3.80366e-05      24.0331 
         100      2.94735  0.000102133  3.75376e-05      24.0331 
         100       3.0002  0.000103955  3.70475e-05      24.0331 
         100      3.05355  0.000105459  3.65705e-05      24.0331 
         100      3.10733  0.000106662  3.61123e-05      24.0331 
         100      3.16163  0.000107583  3.56768e-05      24.0331 
         100      3.21639  0.000108244   3.5268e-05      24.0331 
         100      3.27158  0.000108663  3.48895e-05      24.0331 
         100      3.32729  0.000108865  3.45427e-05      24.0331 
         100      3.38342  0.000108869  3.42289e-05      24.0331 
         100      3.44007  0.000108701  3.39472e-05      24.0331 
         100      3.49714  0.000108384  3.36954e-05      24.0331 
         100      3.55472  0.000107943  3.34685e-05      24.0331 
         100      3.61273  0.000107407  3.32598e-05      24.0331 
         100      3.67125  0.000106806  3.30589e-05      24.0331 
         100      3.73025  0.000106171  3.28526e-05      24.0331 
         100      3.78967  0.000105391  3.29228e-05      24.0331 
         100      3.84961  0.000104419   3.2933e-05      24.0331 
         100      3.90996   0.00010332  3.28216e-05      24.0331 
         100      3.97084   0.00010211  3.26777e-05      24.0331 
         100      4.03214  0.000100803  3.25467e-05      24.0331 
         100      4.09395  9.94091e-05  3.24408e-05      24.0331 
         100      4.15624  9.79363e-05  3.23499e-05       24.033 
         100      4.21895  9.63942e-05  3.22505e-05       24.033 
         100      4.28217  9.47882e-05  3.21141e-05       24.033 
         100      4.34582  9.31294e-05  3.19145e-05       24.033 
         100      4.40998  9.14343e-05  3.16873e-05       24.033 
         100      4.47457  8.97186e-05  3.14453e-05       24.033 
         100      4.53968  8.79848e-05  3.11669e-05       24.033 
         100      4.60525  8.62455e-05    3.087e-05       24.033 
         100      4.67125  8.45121e-05  3.05698e-05       24.033 
         100      4.73777  8.27893e-05  3.02705e-05       24.033 
         100       4.8047   8.1083e-05  2.99546e-05       24.033 
         100      4.87216  7.93861e-05  2.95664e-05       24.033 
         100      4.94003  7.77124e-05  2.92063e-05       24.033 
         100      5.00843   7.6073e-05  2.88761e-05       24.033 
         100      5.07724   7.4459e-05  2.84706e-05       24.033 
         100      5.14658  7.28714e-05  2.80449e-05       24.033 
         100      5.21639   7.1313e-05  2.76258e-05       24.033 
         100      5.28661  6.97849e-05  2.72209e-05       24.033 
         100      5.35736  6.82833e-05   2.6826e-05       24.033 
         100      5.42852  6.68081e-05  2.64353e-05       24.033 
         100      5.50021  6.53972e-05  2.60106e-05       24.033 
         100      5.57231  6.40255e-05  2.55788e-05      24.0329 
         100      5.64493  6.26814e-05  2.51533e-05      24.0329 
         100      5.71803  6.13618e-05  2.47415e-05      24.0329 
         100      5.79154  6.00633e-05  2.43474e-05      24.0329 
         100      5.86558  5.87815e-05  2.39678e-05      24.0329 
         100      5.94003  5.75217e-05  2.35905e-05      24.0329 
         100      6.01501  5.62948e-05  2.31867e-05      24.0329 
         100       6.0904  5.51299e-05  2.27739e-05      24.0329 
         100      6.16632  5.39871e-05  2.24567e-05      24.0329 
         100      6.24271  5.28511e-05  2.21028e-05      24.0329 
         100       6.3195  5.17378e-05  2.17327e-05      24.0329 
         100      6.39683  5.06514e-05  2.13638e-05      24.0329 
         100      6.47457  4.95944e-05  2.10102e-05      24.0329 
         100      6.55284  4.85621e-05  2.06787e-05      24.0329 
         100      6.63152  4.75516e-05  2.03701e-05      24.0328 
         100      6.71073   4.6557e-05   2.0078e-05      24.0328 
         100      6.79034  4.55766e-05  1.97928e-05      24.0328 
         100      6.87049  4.46076e-05  1.95032e-05      24.0328 
         100      6.95111  4.36515e-05  1.92037e-05      24.0328 
         100      7.03214  4.27113e-05  1.89008e-05      24.0328 
         100       7.1137  4.17878e-05   1.8622e-05      24.0328 
         100      7.19566  4.08831e-05  1.84289e-05      24.0328 
         100      7.27816  4.00236e-05  1.81798e-05      24.0328 
         100      7.36106  3.91853e-05  1.78923e-05      24.0328 
         100      7.44451  3.83619e-05  1.76033e-05      24.0327 
         100      7.52842  3.75547e-05  1.73424e-05      24.0327 
         100      7.61273  3.67521e-05  1.71445e-05      24.0327 
         100      7.69758  3.59235e-05  1.69194e-05      24.0327 
         100      7.78283  3.51104e-05  1.67217e-05      24.0327 
         100      7.86862  3.43162e-05  1.65377e-05      24.0327 
         100      7.95481  3.35447e-05  1.63584e-05      24.0327 
         100      8.04155  3.27956e-05  1.61775e-05      24.0327 
         100      8.12868  3.20699e-05  1.59919e-05      24.0327 
         100      8.21635  3.13652e-05  1.58002e-05      24.0326 
         100      8.30449  3.06804e-05  1.56034e-05      24.0326 
         100      8.39303  3.00142e-05  1.54039e-05      24.0326 
         100      8.48211  2.93638e-05  1.52041e-05      24.0326 
         100      8.57159  2.87287e-05  1.50077e-05      24.0326 
         100      8.66161  2.81072e-05  1.48179e-05      24.0326 
         100      8.75203  2.74998e-05  1.46376e-05      24.0326 
         100      8.84299  2.69059e-05  1.44689e-05      24.0326 
         100      8.93443   2.6327e-05  1.43129e-05      24.0325 
         100      9.02626  2.57648e-05  1.41694e-05      24.0325 
         100      9.11863  2.52198e-05  1.40363e-05      24.0325 
         100      9.21139  2.46942e-05  1.39103e-05      24.0325 
         100      9.30471  2.41878e-05   1.3786e-05      24.0325 
         100      9.39841  2.37007e-05  1.36564e-05      24.0325 
         100      9.49267  2.32291e-05  1.35128e-05      24.0324 
         100      9.58739  2.27677e-05  1.33449e-05      24.0324 
         100      9.68251  2.23068e-05  1.31419e-05      24.0324 
         100      9.77817   2.1844e-05  1.29916e-05      24.0324 
         100      9.87422  2.13971e-05   1.2916e-05      24.0324 
         100      9.97083   2.0945e-05  1.28547e-05      24.0324 
         100      10.0678  2.04511e-05  1.27487e-05      24.0323 
         100      10.1654   1.9908e-05  1.25734e-05      24.0323 
         100      10.2633  1.95474e-05  1.25282e-05      24.0323 
         100      10.3618  1.91712e-05  1.24097e-05      24.0323 
         100      10.4607  1.87858e-05  1.22527e-05      24.0323 
         100      10.5601  1.83968e-05  1.20837e-05      24.0323 
         100        10.66  1.80081e-05  1.19215e-05      24.0322 
         100      10.7603  1.76236e-05  1.17789e-05      24.0322 
         100      10.8611  1.72448e-05  1.16626e-05      24.0322 
         100      10.9623  1.68736e-05   1.1575e-05      24.0322 
         100      11.0641  1.65097e-05  1.15143e-05      24.0322 
         100      11.1663  1.61524e-05  1.14754e-05      24.0321 
         100       11.269  1.58129e-05  1.13359e-05      24.0321 
         100      11.3721  1.54866e-05  1.11996e-05      24.0321 
         100      11.4757  1.51751e-05  1.10648e-05      24.0321 
         100      11.5798  1.48782e-05    1.093e-05      24.0321 
         100      11.6844  1.45965e-05  1.07943e-05       24.032 
         100      11.7894  1.43286e-05   1.0657e-05       24.032 
         100       11.895  1.40737e-05  1.05184e-05       24.032 
         100      12.0009  1.38299e-05  1.03789e-05       24.032 
         100      12.1073  1.35943e-05  1.02392e-05      24.0319 
         100      12.2142  1.33643e-05  1.01004e-05      24.0319 
         100      12.3216  1.31361e-05  9.96351e-06      24.0319 
         100      12.4294  1.29063e-05  9.82976e-06      24.0319 
         100      12.5378  1.26706e-05  9.69964e-06      24.0319 
         100      12.6465  1.24259e-05  9.57349e-06      24.0318 
         100      12.7558  1.21682e-05  9.45031e-06      24.0318 
         100      12.8656  1.18951e-05  9.32813e-06      24.0318 
         100      12.9757  1.16052e-05  9.20328e-06      24.0318 
         100      13.0864  1.12979e-05  9.06958e-06      24.0317 
         100      13.1975  1.09754e-05  8.91854e-06      24.0317 
         100      13.3092  1.06808e-05  8.71922e-06      24.0317 
         100      13.4212  1.04095e-05  8.51281e-06      24.0317 
         100      13.5338  1.01259e-05  8.32471e-06      24.0316 
         100      13.6468  9.85072e-06  8.14038e-06      24.0316 
         100      13.7603  9.59616e-06  7.95415e-06      24.0316 
         100      13.8743  9.36709e-06  7.76666e-06      24.0315 
         100      13.9886  9.16415e-06  7.58384e-06      24.0315 
         100      14.1036  8.98391e-06  7.41362e-06      24.0315 
         100      14.2189  8.82188e-06  7.26489e-06      24.0315 
         100      14.3348  8.67295e-06   7.1443e-06      24.0314 
         100       14.451   8.4742e-06  7.01793e-06      24.0314 
         100      14.5678  8.30059e-06  6.93073e-06      24.0314 
         100      14.6851  8.17549e-06  6.88161e-06      24.0313 
         100      14.8028  8.08449e-06  6.84922e-06      24.0313 
         100       14.921   8.0144e-06  6.81752e-06      24.0313 
         100      15.0396  7.95414e-06  6.77576e-06      24.0312 
         100      15.1588   7.8946e-06  6.71775e-06      24.0312 
         100      15.2783  7.82927e-06  6.64173e-06      24.0312 
         100      15.3984  7.75383e-06   6.5493e-06      24.0311 
         100       15.519  7.66644e-06  6.44505e-06      24.0311 
         100        15.64  7.56729e-06  6.33552e-06      24.0311 
         100      15.7615  7.45785e-06  6.22786e-06       24.031 
         100      15.8834  7.34074e-06  6.12916e-06       24.031 
         100      16.0058  7.21817e-06  6.04443e-06       24.031 
         100      16.1286  7.09148e-06  5.97563e-06      24.0309 
         100       16.252  6.95901e-06  5.91941e-06      24.0309 
         100      16.3759  6.81511e-06  5.86548e-06      24.0309 
         100      16.5002  6.64796e-06  5.79437e-06      24.0308 
         100       16.625  6.43685e-06  5.67478e-06      24.0308 
         100      16.7501  6.28175e-06  5.49916e-06      24.0308 
         100      16.8759  6.26434e-06  5.34705e-06      24.0307 
         100       17.002  6.20219e-06  5.19985e-06      24.0307 
         100      17.1287  6.10945e-06  5.05968e-06      24.0307 
         100      17.2557  5.99836e-06  4.92898e-06      24.0306 
         100      17.3834  5.87879e-06   4.8094e-06      24.0306 
         100      17.5115   5.7589e-06  4.70244e-06      24.0305 
         100      17.6399  5.64496e-06  4.60895e-06      24.0305 
         100       17.769  5.54125e-06  4.52888e-06      24.0305 
         100      17.8984  5.45075e-06  4.46175e-06      24.0304 
         100      18.0284   5.3747e-06  4.40615e-06      24.0304 
         100      18.1587  5.31328e-06  4.36021e-06      24.0303 
         100      18.2896  5.26539e-06  4.32137e-06      24.0303 
         100       18.421  5.22914e-06  4.28679e-06      24.0303 
         100      18.5528  5.20197e-06   4.2535e-06      24.0302 
         100      18.6851  5.18084e-06  4.21857e-06      24.0302 
         100      18.8178   5.1626e-06  4.17968e-06      24.0301 
         100      18.9511  5.14424e-06  4.13534e-06      24.0301 
         100      19.0847  5.12323e-06  4.08558e-06        24.03 
         100      19.2189   5.0978e-06  4.03231e-06        24.03 
         100      19.3535   5.0674e-06   3.9803e-06      24.0299 
         100      19.4886  5.03298e-06  3.93756e-06      24.0299 
         100      19.6242  4.99755e-06  3.91657e-06      24.0298 
         100      19.7602  4.96654e-06  3.93496e-06      24.0298 
         100      19.8968   4.9131e-06  3.88724e-06      24.0298 
         100      20.0337  4.78886e-06  3.71977e-06      24.0297 
         100      20.1712  4.63942e-06  3.59013e-06      24.0297 
         100      20.3091  4.48017e-06  3.48924e-06      24.0296 
         100      20.4475  4.31926e-06  3.40468e-06      24.0296 
         100      20.5864  4.15714e-06  3.32596e-06      24.0295 
         100      20.7257  3.98481e-06  3.24951e-06      24.0295 
         100      20.8655  3.78208e-06  3.18436e-06      24.0294 
         100      21.0058     3.89e-06  3.14535e-06      24.0294 
         100      21.1465  4.00245e-06  3.11892e-06      24.0293 
         100      21.2877  4.00864e-06  3.10236e-06      24.0293 
         100      21.4294  3.94232e-06   3.0912e-06      24.0292 
         100      21.5716  3.83099e-06  3.07899e-06      24.0292 
         100      21.7142  3.69641e-06  3.05821e-06      24.0291 
         100      21.8573  3.55457e-06  3.02104e-06       24.029 
         100      22.0008  3.41688e-06  2.96036e-06       24.029 
         100      22.1449  3.28985e-06   2.8702e-06      24.0289 
         100      22.2893  3.17639e-06   2.7468e-06      24.0289 
         100      22.4344  3.07569e-06  2.58864e-06      24.0288 
         100      22.5797  2.98448e-06  2.39771e-06      24.0288 
         100      22.7257   2.8971e-06  2.17892e-06      24.0287 
         100      22.8721  3.08543e-06  2.19807e-06      24.0287 
         100      23.0189  3.24311e-06  2.20397e-06      24.0286 
         100      23.1663  3.34633e-06  2.18586e-06      24.0285 
         100       23.314  3.39591e-06  2.15268e-06      24.0285 
         100      23.4623   3.3962e-06  2.11298e-06      24.0284 
         100       23.611  3.35438e-06   2.0745e-06      24.0284 
         100      23.7602  3.28012e-06  2.04344e-06      24.0283 
         100        23.91  3.18513e-06  2.02427e-06      24.0282 
         100        24.06  3.08249e-06  2.01921e-06      24.0282 
         100      24.2107  2.98543e-06  2.02805e-06      24.0281 
         100      24.3617  2.90693e-06  2.04799e-06       24.028 
         100      24.5133  2.85799e-06  2.07366e-06       24.028 
         100      24.6653   2.8467e-06  2.09704e-06      24.0279 
         100      24.8178  2.87649e-06  2.10787e-06      24.0279 
         100      24.9708  2.94453e-06  2.09377e-06      24.0278 
         100      25.1242  3.03961e-06  2.04089e-06      24.0277 
         100      25.2781  3.14046e-06  1.93425e-06      24.0277 
         100      25.4324  3.21278e-06  1.75901e-06      24.0276 
         100      25.5873  3.20727e-06  1.50054e-06      24.0275 
         100      25.7426   3.0776e-06  1.33362e-06      24.0275 
         100      25.8984  2.96012e-06  1.60113e-06      24.0274 
         100      26.0546  2.87146e-06  1.72952e-06      24.0273 
         100      26.2114  2.80816e-06  1.75828e-06      24.0272 
         100      26.3686  2.76739e-06  1.72003e-06      24.0272 
         100      26.5262   2.7465e-06   1.6416e-06      24.0271 
         100      26.6844   2.7429e-06  1.54406e-06       24.027 
         100      26.8429  2.75403e-06  1.44373e-06       24.027 
         100       27.002  2.77718e-06  1.35213e-06      24.0269 
         100      27.1615  2.80937e-06  1.27709e-06      24.0268 
         100      27.3216  2.84736e-06  1.22267e-06      24.0267 
         100      27.4821   2.8874e-06  1.19013e-06      24.0267 
         100       27.643  2.92527e-06  1.17819e-06      24.0266 
         100      27.8044  2.95629e-06  1.18355e-06      24.0265 
         100      27.9663   2.9751e-06  1.20141e-06      24.0264 
         100      28.1287  2.97586e-06  1.22599e-06      24.0264 
         100      28.2914  2.95207e-06  1.25089e-06      24.0263 
         100      28.4548  2.89666e-06  1.26968e-06      24.0262 
         100      28.6185  2.80217e-06  1.27623e-06      24.0261 
         100      28.7828   2.6604e-06  1.26523e-06      24.0261 
         100      28.9475  2.64384e-06  1.15442e-06       24.026 
         100      29.1126  2.64197e-06  1.06895e-06      24.0259 
         100      29.2784  2.62794e-06  1.03009e-06      24.0258 
         100      29.4444  2.61088e-06  1.03185e-06      24.0257 
         100       29.611  2.59737e-06  1.06578e-06      24.0256 
         100       29.778  2.59139e-06  1.12162e-06      24.0256 
         100      29.9456  2.59429e-06  1.18834e-06      24.0255 
         100      30.1137  2.60512e-06  1.25488e-06      24.0254 
         100      30.2821  2.62099e-06  1.31135e-06      24.0253 
         100      30.4511  2.63777e-06  1.35046e-06      24.0252 
         100      30.6204  2.65089e-06   1.3686e-06      24.0251 
         100      30.7903  2.65652e-06  1.36767e-06      24.0251 
         100      30.9606  2.65278e-06  1.35667e-06       24.025 
         100      31.1315  2.64141e-06  1.35361e-06      24.0249 
         100      31.3028   2.6296e-06  1.38765e-06      24.0248 
         100      31.4745   2.6321e-06  1.50118e-06      24.0247 
         100      31.6468  2.50374e-06  1.38404e-06      24.0246 
         100      31.8194  2.31015e-06  1.16598e-06      24.0245 
         100      31.9926  2.17605e-06  1.08855e-06      24.0244 
         100      32.1662  2.10425e-06  1.14009e-06      24.0243 
         100      32.3404  2.07799e-06  1.29388e-06      24.0242 
         100      32.5149  2.05483e-06   1.5086e-06      24.0242 
         100        32.69  1.95887e-06  1.72984e-06      24.0241 
         100      32.8655  2.08203e-06  1.76993e-06       24.024 
         100      33.0414  2.32559e-06  1.74532e-06      24.0239 
         100       33.218  2.48509e-06   1.7435e-06      24.0238 
         100      33.3948  2.57532e-06   1.7552e-06      24.0237 
         100      33.5723  2.60988e-06  1.77308e-06      24.0236 
         100        33.75  2.60066e-06  1.79146e-06      24.0235 
         100      33.9284  2.55814e-06  1.80627e-06      24.0234 
         100      34.1073  2.49145e-06  1.81467e-06      24.0233 
         100      34.2865  2.40855e-06    1.815e-06      24.0232 
         100      34.4663  2.31598e-06  1.80656e-06      24.0231 
         100      34.6465  2.21945e-06  1.78942e-06       24.023 
         100      34.8272  2.12335e-06  1.76425e-06      24.0229 
         100      35.0083  2.03144e-06  1.73221e-06      24.0228 
         100        35.19  1.94631e-06   1.6947e-06      24.0227 
         100      35.3721  1.87001e-06  1.65339e-06      24.0226 
         100      35.5546  1.80383e-06     1.61e-06      24.0225 
         100      35.7377  1.74833e-06   1.5661e-06      24.0224 
         100      35.9211  1.70369e-06  1.52322e-06      24.0223 
         100      36.1052  1.66946e-06  1.48257e-06      24.0221 
         100      36.2895  1.64496e-06  1.44516e-06       24.022 
         100      36.4745  1.62904e-06  1.41153e-06      24.0219 
         100      36.6598  1.62042e-06  1.38196e-06      24.0218 
         100      36.8457  1.61757e-06  1.35623e-06      24.0217 
         100      37.0321  1.61886e-06   1.3338e-06      24.0216 
         100      37.2188   1.6226e-06  1.31377e-06      24.0215 
         100      37.4062  1.62714e-06  1.29483e-06      24.0214 
         100      37.5938  1.63083e-06  1.27552e-06      24.0213 
         100      37.7821  1.63219e-06  1.25415e-06      24.0212 
         100      37.9707  1.62987e-06  1.22904e-06       24.021 
         100      38.1599  1.62274e-06  1.19854e-06      24.0209 
         100      38.3496   1.6099e-06  1.16132e-06      24.0208 
         100      38.5396  1.59078e-06  1.11656e-06      24.0207 
         100      38.7302  1.56503e-06  1.06399e-06      24.0206 
         100      38.9211  1.53276e-06  1.00448e-06      24.0205 
         100      39.1127  1.49431e-06  9.39936e-07      24.0203 
         100      39.3046  1.45051e-06  8.74049e-07      24.0202 
         100      39.4971  1.40246e-06  8.12218e-07      24.0201 
         100      39.6899  1.35174e-06  7.62361e-07        24.02 
         100      39.8833  1.30018e-06  7.34982e-07      24.0199 
         100      40.0772   1.2501e-06  7.43944e-07      24.0197 
         100      40.2714  1.20413e-06  8.06732e-07      24.0196 
         100      40.4663   1.1651e-06  9.45291e-07      24.0195 
         100      40.6615  1.64325e-06  1.13575e-06      24.0194 
         100      40.8573  1.61468e-06   9.2263e-07      24.0192 
         100      41.0534  1.47041e-06  6.78504e-07      24.0191 
         100      41.2501  1.24528e-06  4.43137e-07       24.019 
         100      41.4473  1.27497e-06  3.89428e-07      24.0189 
         100      41.6448  1.34368e-06  4.06394e-07      24.0187 
         100      41.8429  1.40211e-06  4.56134e-07      24.0186 
         100      42.0414  1.45545e-06  5.29038e-07      24.0185 
         100      42.2405  1.50742e-06  6.17079e-07      24.0184 
         100      42.4399  1.56019e-06  7.13281e-07      24.0182 
         100      42.6399   1.6149e-06  8.12144e-07      24.0181 
         100      42.8404  1.67161e-06  9.09026e-07       24.018 
         100      43.0412  1.72964e-06  1.00028e-06      24.0178 
         100      43.2426  1.78789e-06  1.08336e-06      24.0177 
         100      43.4444  1.84468e-06  1.15625e-06      24.0176 
         100      43.6467  1.89834e-06  1.21786e-06      24.0174 
         100      43.8494  1.94694e-06  1.26751e-06      24.0173 
         100      44.0527  1.98881e-06  1.30522e-06      24.0172 
         100      44.2563   2.0223e-06   1.3313e-06       24.017 
         100      44.4606   2.0462e-06  1.34652e-06      24.0169 
         100      44.6653  2.05956e-06  1.35187e-06      24.0167 
         100      44.8704  2.06192e-06  1.34859e-06      24.0166 
         100       45.076  2.05326e-06  1.33804e-06      24.0165 
         100       45.282  2.03407e-06  1.32169e-06      24.0163 
         100      45.4886  2.00525e-06  1.30099e-06      24.0162 
         100      45.6955  1.96823e-06  1.27742e-06       24.016 
         100       45.903  1.92468e-06  1.25234e-06      24.0159 
         100      46.1111  1.87669e-06  1.22705e-06      24.0158 
         100      46.3194  1.82649e-06   1.2027e-06      24.0156 
         100      46.5283  1.77624e-06  1.18022e-06      24.0155 
         100      46.7376  1.72811e-06  1.16047e-06      24.0153 
         100      46.9475  1.68373e-06    1.144e-06      24.0152 
         100      47.1577   1.6443e-06  1.13125e-06       24.015 
         100      47.3685  1.60999e-06  1.12245e-06      24.0149 
         100      47.5798  1.57988e-06  1.11766e-06      24.0147 
         100      47.7914  1.55146e-06  1.11679e-06      24.0146 
         100      48.0037  1.52026e-06  1.11968e-06      24.0144 