Variables = x, y, u, v, p

Zone, I=300, F=POINT
         550            0            0            0     -13.2588 
         550     0.000559  4.49942e-06  9.53027e-11     -13.2588 
         550     0.002236  1.66113e-05  1.51899e-09     -13.2588 
         550     0.005033  3.30483e-05  7.70104e-09     -13.2588 
         550     0.008947  5.06329e-05  2.43774e-08     -13.2588 
         550     0.013981  6.82767e-05  5.96559e-08     -13.2588 
         550     0.020132  8.73005e-05  1.23988e-07     -13.2588 
         550     0.027403  0.000109782  2.30253e-07     -13.2588 
         550     0.035791   0.00013579  3.93582e-07     -13.2588 
         550       0.0453  0.000162257  6.31435e-07     -13.2588 
         550     0.055925   0.00018583  9.63054e-07     -13.2588 
         550     0.067671  0.000208314  1.40964e-06     -13.2588 
         550     0.080532  0.000231267  1.99328e-06     -13.2588 
         550     0.094516  0.000248691  2.73739e-06     -13.2588 
         550     0.109614  0.000263696   3.6647e-06     -13.2588 
         550     0.125836   0.00027448  4.79853e-06     -13.2588 
         550     0.143171  0.000280989  6.15956e-06     -13.2588 
         550      0.16163  0.000283047  7.76824e-06     -13.2588 
         550     0.181202  0.000280491  9.64061e-06     -13.2588 
         550     0.201898  0.000273397  1.17917e-05     -13.2588 
         550     0.223706  0.000262175  1.42305e-05     -13.2588 
         550      0.24664  0.000247185  1.69654e-05     -13.2588 
         550     0.270686  0.000228854  1.99973e-05     -13.2588 
         550     0.295857  0.000207841  2.33267e-05     -13.2588 
         550     0.322139  0.000184756   2.6947e-05     -13.2588 
         550     0.349548  0.000160255  3.08522e-05     -13.2588 
         550     0.378067   0.00013501  3.50293e-05     -13.2588 
         550     0.407713  0.000109632  3.94677e-05     -13.2588 
         550     0.438469  8.47067e-05  4.41505e-05     -13.2588 
         550     0.470343  6.07338e-05  4.90632e-05     -13.2588 
         550     0.503345   3.8139e-05  5.41914e-05     -13.2588 
         550     0.537456  1.72896e-05  5.95164e-05     -13.2588 
         550     0.572696 -1.55486e-06  6.50258e-05     -13.2588 
         550     0.609043 -1.82032e-05  7.07018e-05     -13.2588 
         550      0.64652 -3.25507e-05  7.65328e-05     -13.2588 
         550     0.685105 -4.45346e-05  8.25016e-05     -13.2588 
         550      0.72482 -5.41947e-05     8.86e-05     -13.2588 
         550     0.765641 -6.16027e-05  9.48125e-05     -13.2588 
         550     0.807593 -6.68827e-05  0.000101131     -13.2588 
         550     0.850651 -7.01909e-05  0.000107539     -13.2588 
         550     0.894841 -7.17235e-05  0.000114028     -13.2588 
         550     0.940135  -7.1703e-05  0.000120583     -13.2588 
         550     0.986562 -7.03746e-05  0.000127193     -13.2588 
         550      1.03409  -6.7997e-05  0.000133841     -13.2588 
         550      1.08276 -6.48303e-05  0.000140518     -13.2588 
         550      1.13253 -6.11309e-05  0.000147206     -13.2588 
         550      1.18343 -5.71336e-05  0.000153893     -13.2588 
         550      1.23543 -5.30513e-05  0.000160562     -13.2588 
         550      1.28857 -4.90577e-05  0.000167199     -13.2588 
         550      1.34282 -4.52917e-05  0.000173785     -13.2588 
         550      1.39819 -4.18479e-05   0.00018031     -13.2588 
         550      1.45467 -3.87904e-05  0.000186756     -13.2588 
         550      1.51229 -3.61483e-05  0.000193108     -13.2588 
         550        1.571 -3.38722e-05  0.000199312     -13.2588 
         550      1.63085 -3.19951e-05  0.000205422     -13.2588 
         550      1.69181  -3.0427e-05   0.00021141     -13.2588 
         550      1.75388 -2.90852e-05  0.000217256     -13.2588 
         550      1.81709 -2.78969e-05  0.000222937     -13.2588 
         550      1.88139 -2.68009e-05  0.000228433     -13.2588 
         550      1.94684 -2.57451e-05  0.000233726     -13.2588 
         550      2.01338 -2.46898e-05  0.000238797     -13.2588 
         550      2.08107 -2.36045e-05  0.000243634     -13.2588 
         550      2.14985 -2.24707e-05   0.00024822     -13.2588 
         550      2.21977  -2.1278e-05  0.000252545     -13.2588 
         550      2.29078 -2.00264e-05  0.000256593     -13.2588 
         550      2.36294 -1.87219e-05  0.000260355     -13.2588 
         550       2.4362 -1.73784e-05  0.000263819     -13.2588 
         550      2.51059 -1.60128e-05  0.000266975     -13.2588 
         550      2.58608  -1.4647e-05   0.00026981     -13.2588 
         550      2.66272 -1.33022e-05  0.000272315     -13.2588 
         550      2.74044 -1.20015e-05  0.000274479     -13.2588 
         550      2.81932 -1.07644e-05  0.000276291     -13.2588 
         550      2.89928 -9.60882e-06  0.000277741     -13.2588 
         550      2.98039 -8.54752e-06  0.000278822     -13.2588 
         550      3.06259 -7.59032e-06  0.000279527     -13.2588 
         550      3.14593 -6.74213e-06  0.000279853     -13.2588 
         550      3.23037 -6.00651e-06  0.000279803     -13.2588 
         550      3.31596 -5.38636e-06  0.000279387     -13.2588 
         550      3.40263 -4.88967e-06  0.000278625     -13.2588 
         550      3.49045 -4.53386e-06  0.000277552     -13.2588 
         550      3.57936 -4.35501e-06  0.000276219     -13.2588 
         550      3.66942 -4.41741e-06  0.000274703     -13.2588 
         550      3.76057 -4.76538e-06  0.000273024     -13.2588 
         550      3.85284 -4.79689e-06  0.000270616     -13.2588 
         550      3.94625  -4.7516e-06  0.000268063     -13.2588 
         550      4.04075  -4.6144e-06  0.000265333     -13.2588 
         550      4.13641 -4.39951e-06  0.000262456     -13.2588 
         550      4.23315 -4.10167e-06  0.000259428     -13.2588 
         550      4.33104 -3.72117e-06  0.000256248     -13.2588 
         550      4.43001 -3.26371e-06  0.000252917     -13.2588 
         550      4.53014 -2.73867e-06  0.000249439     -13.2588 
         550      4.63135 -2.15919e-06  0.000245822     -13.2588 
         550      4.73372  -1.5399e-06  0.000242072     -13.2588 
         550      4.83717 -8.97336e-07  0.000238204     -13.2588 
         550      4.94177 -2.47323e-07  0.000234227     -13.2588 
         550      5.04746  3.94448e-07  0.000230158     -13.2588 
         550       5.1543  1.01496e-06  0.000226011     -13.2588 
         550      5.26222  1.60322e-06  0.000221805     -13.2588 
         550       5.3713  2.15248e-06  0.000217554     -13.2588 
         550      5.48146  2.65937e-06  0.000213278     -13.2588 
         550      5.59277   3.1256e-06  0.000208993     -13.2588 
         550      5.70517  3.55676e-06  0.000204716     -13.2588 
         550      5.81872  3.96317e-06   0.00020046     -13.2588 
         550      5.93336  4.35805e-06  0.000196241     -13.2588 
         550      6.04915  4.75742e-06  0.000192068     -13.2588 
         550      6.16602  5.17721e-06  0.000187951     -13.2588 
         550      6.28404  5.63191e-06  0.000183893     -13.2588 
         550      6.40315   6.1302e-06  0.000179897     -13.2588 
         550      6.52342  6.67208e-06  0.000175958     -13.2588 
         550      6.64476  7.24249e-06   0.00017207     -13.2588 
         550      6.76723  7.80639e-06  0.000168219     -13.2588 
         550      6.89084   8.3534e-06  0.000164519     -13.2588 
         550      7.01555  8.88446e-06  0.000160849     -13.2588 
         550       7.1414  9.39504e-06  0.000157221     -13.2588 
         550      7.26834  9.88175e-06  0.000153645     -13.2588 
         550      7.39643  1.03433e-05  0.000150123     -13.2588 
         550      7.52561  1.07788e-05  0.000146659     -13.2588 
         550      7.65594   1.1189e-05   0.00014325     -13.2588 
         550      7.78735  1.15744e-05  0.000139894     -13.2588 
         550      7.91992  1.19367e-05  0.000136589     -13.2588 
         550      8.05357  1.22776e-05  0.000133336     -13.2588 
         550      8.18838  1.25995e-05  0.000130133     -13.2588 
         550      8.32426  1.29053e-05  0.000126986     -13.2588 
         550       8.4613  1.31994e-05  0.000123899     -13.2588 
         550      8.59943  1.34874e-05  0.000120882     -13.2588 
         550      8.73871  1.37776e-05  0.000117944     -13.2588 
         550      8.87907  1.40817e-05  0.000115097     -13.2588 
         550      9.02059  1.44163e-05  0.000112351     -13.2588 
         550      9.16318   1.4804e-05  0.000109715     -13.2588 
         550      9.30694  1.50492e-05  0.000107014     -13.2588 
         550      9.45177  1.50224e-05  0.000104171     -13.2588 
         550      9.59776  1.48181e-05  0.000101221     -13.2588 
         550      9.74483   1.5064e-05  9.87419e-05     -13.2588 
         550      9.89306  1.54213e-05  9.63343e-05     -13.2588 
         550      10.0424  1.57036e-05  9.38801e-05     -13.2588 
         550      10.1928  1.59131e-05  9.14292e-05     -13.2588 
         550      10.3444   1.6061e-05  8.90149e-05     -13.2588 
         550       10.497  1.61645e-05   8.6653e-05     -13.2588 
         550      10.6509  1.62428e-05   8.4349e-05     -13.2588 
         550      10.8058  1.63142e-05  8.21029e-05     -13.2588 
         550      10.9618  1.63937e-05  7.99083e-05     -13.2588 
         550       11.119  1.64908e-05  7.77605e-05     -13.2588 
         550      11.2773  1.66084e-05  7.56534e-05     -13.2588 
         550      11.4366   1.6742e-05   7.3586e-05     -13.2588 
         550      11.5972  1.68808e-05  7.15582e-05     -13.2588 
         550      11.7588  1.70088e-05  6.95746e-05     -13.2588 
         550      11.9216  1.71078e-05  6.76384e-05     -13.2588 
         550      12.0854  1.71621e-05  6.57524e-05     -13.2588 
         550      12.2504  1.71641e-05  6.39101e-05     -13.2588 
         550      12.4165   1.7122e-05  6.20935e-05     -13.2588 
         550      12.5837    1.707e-05  6.02597e-05     -13.2588 
         550      12.7521  1.70801e-05  5.83349e-05     -13.2588 
         550      12.9215  1.71198e-05  5.66087e-05     -13.2589 
         550      13.0921  1.71335e-05  5.50606e-05     -13.2589 
         550      13.2638  1.71495e-05  5.35256e-05     -13.2589 
         550      13.4366  1.71538e-05  5.19871e-05     -13.2589 
         550      13.6106  1.71266e-05  5.04057e-05     -13.2589 
         550      13.7856  1.71049e-05   4.8772e-05     -13.2589 
         550      13.9618  1.71992e-05  4.72194e-05     -13.2589 
         550      14.1391  1.72952e-05  4.57223e-05     -13.2589 
         550      14.3175  1.73694e-05  4.42825e-05     -13.2589 
         550       14.497  1.74094e-05  4.28975e-05     -13.2589 
         550      14.6777  1.74124e-05  4.15596e-05     -13.2589 
         550      14.8594   1.7382e-05   4.0261e-05     -13.2589 
         550      15.0423  1.73265e-05   3.8993e-05     -13.2589 
         550      15.2263  1.72567e-05  3.77487e-05     -13.2589 
         550      15.4114   1.7184e-05  3.65248e-05     -13.2589 
         550      15.5977  1.71191e-05  3.53202e-05     -13.2589 
         550       15.785  1.70703e-05  3.41386e-05     -13.2589 
         550      15.9735  1.70423e-05  3.29856e-05     -13.2589 
         550      16.1631  1.70362e-05  3.18704e-05     -13.2589 
         550      16.3538  1.70487e-05  3.08012e-05     -13.2589 
         550      16.5456  1.70727e-05  2.97857e-05     -13.2589 
         550      16.7386  1.70977e-05  2.88249e-05     -13.2589 
         550      16.9326  1.71118e-05  2.79111e-05     -13.2589 
         550      17.1279  1.71033e-05  2.70208e-05     -13.2589 
         550      17.3241  1.70636e-05  2.61098e-05     -13.2589 
         550      17.5216  1.69912e-05  2.51036e-05     -13.2589 
         550      17.7201  1.68816e-05  2.40093e-05     -13.2589 
         550      17.9198  1.67513e-05   2.3319e-05     -13.2589 
         550      18.1206   1.6684e-05  2.26067e-05     -13.2589 
         550      18.3225  1.66579e-05  2.18811e-05     -13.2589 
         550      18.5255  1.66566e-05    2.115e-05     -13.2589 
         550      18.7296  1.66672e-05  2.04193e-05     -13.2589 
         550      18.9349  1.66805e-05  1.96948e-05     -13.2589 
         550      19.1413  1.66901e-05  1.89807e-05     -13.2589 
         550      19.3487  1.66913e-05  1.82815e-05     -13.2589 
         550      19.5574  1.66814e-05  1.76005e-05     -13.2589 
         550      19.7671  1.66585e-05  1.69416e-05     -13.2589 
         550       19.978  1.66215e-05  1.63077e-05     -13.2589 
         550      20.1899  1.65696e-05  1.57026e-05     -13.2589 
         550       20.403  1.65025e-05  1.51292e-05     -13.2589 
         550      20.6172  1.64196e-05  1.45906e-05     -13.2589 
         550      20.8325   1.6321e-05    1.409e-05     -13.2589 
         550       21.049   1.6207e-05  1.36295e-05     -13.2589 
         550      21.2665   1.6134e-05  1.31698e-05     -13.2589 
         550      21.4852   1.6186e-05  1.26292e-05     -13.2589 
         550       21.705  1.62004e-05  1.21223e-05     -13.2589 
         550      21.9259  1.61845e-05  1.16469e-05     -13.2589 
         550      22.1479  1.61461e-05  1.12008e-05     -13.2589 
         550      22.3711  1.60932e-05  1.07796e-05     -13.2589 
         550      22.5953  1.60337e-05   1.0378e-05     -13.2589 
         550      22.8208  1.59759e-05  9.98849e-06     -13.2589 
         550      23.0472  1.59281e-05  9.60206e-06     -13.2589 
         550      23.2749  1.58993e-05  9.20791e-06     -13.2589 
         550      23.5036  1.58991e-05  8.79471e-06     -13.2589 
         550      23.7335  1.59378e-05  8.35055e-06     -13.2589 
         550      23.9644  1.60738e-05  8.09316e-06     -13.2589 
         550      24.1966  1.61267e-05  7.86143e-06     -13.2589 
         550      24.4298  1.60996e-05  7.60362e-06     -13.2589 
         550      24.6641  1.60239e-05  7.33105e-06     -13.2589 
         550      24.8996  1.59239e-05  7.05276e-06     -13.2589 
         550      25.1362  1.58173e-05  6.77525e-06     -13.2589 
         550      25.3738  1.57167e-05  6.50345e-06     -13.2589 
         550      25.6127  1.56296e-05  6.24038e-06     -13.2589 
         550      25.8526  1.55597e-05  5.98809e-06     -13.2589 
         550      26.0937  1.55073e-05  5.74732e-06     -13.2589 
         550      26.3358  1.54703e-05  5.51834e-06     -13.2589 
         550       26.579   1.5445e-05  5.30062e-06     -13.2589 
         550      26.8235  1.54266e-05  5.09333e-06     -13.2589 
         550       27.069  1.54101e-05  4.89555e-06     -13.2589 
         550      27.3157  1.53911e-05  4.70601e-06     -13.2589 
         550      27.5634  1.53661e-05   4.5236e-06     -13.2589 
         550      27.8123  1.53336e-05  4.34689e-06     -13.2589 
         550      28.0623  1.52944e-05  4.17453e-06      -13.259 
         550      28.3134  1.52519e-05  4.00466e-06      -13.259 
         550      28.5656  1.52132e-05  3.83517e-06      -13.259 
         550       28.819  1.51891e-05  3.66299e-06      -13.259 
         550      29.0734  1.51943e-05  3.48412e-06      -13.259 
         550      29.3291  1.51963e-05  3.36424e-06      -13.259 
         550      29.5857  1.51714e-05  3.26662e-06      -13.259 
         550      29.8436    1.514e-05  3.14227e-06      -13.259 
         550      30.1025  1.51018e-05  2.99926e-06      -13.259 
         550      30.3626   1.5061e-05  2.85375e-06      -13.259 
         550      30.6238  1.50262e-05  2.73295e-06      -13.259 
         550      30.8861  1.50126e-05  2.67774e-06      -13.259 
         550      31.1495   1.5043e-05  2.74625e-06      -13.259 
         550      31.4141  1.50034e-05  2.63382e-06      -13.259 
         550      31.6797  1.48411e-05  2.27325e-06      -13.259 
         550      31.9465  1.46988e-05   2.0432e-06      -13.259 
         550      32.2144  1.45757e-05  1.92105e-06      -13.259 
         550      32.4834  1.44694e-05  1.88718e-06      -13.259 
         550      32.7535  1.44006e-05  1.91932e-06      -13.259 
         550      33.0248  1.45689e-05  1.89852e-06      -13.259 
         550      33.2971  1.46942e-05  1.84803e-06      -13.259 
         550      33.5706  1.47731e-05  1.78026e-06      -13.259 
         550      33.8452  1.48091e-05  1.70539e-06      -13.259 
         550      34.1209  1.48097e-05  1.63141e-06      -13.259 
         550      34.3978  1.47854e-05  1.56395e-06      -13.259 
         550      34.6757   1.4747e-05  1.50654e-06      -13.259 
         550      34.9548  1.47048e-05  1.46055e-06      -13.259 
         550       35.235  1.46672e-05  1.42552e-06      -13.259 
         550      35.5164  1.46397e-05  1.39937e-06      -13.259 
         550      35.7987  1.46246e-05  1.37881e-06      -13.259 
         550      36.0823  1.46208e-05  1.35972e-06      -13.259 
         550       36.367  1.46241e-05  1.33775e-06      -13.259 
         550      36.6528  1.46278e-05  1.30893e-06      -13.259 
         550      36.9397  1.46242e-05  1.27046e-06      -13.259 
         550      37.2277  1.46062e-05  1.22147e-06      -13.259 
         550      37.5169  1.45697e-05  1.16417e-06     -13.2591 
         550      37.8072  1.45164e-05  1.10476e-06     -13.2591 
         550      38.0985  1.44575e-05  1.05487e-06     -13.2591 
         550      38.3911   1.4418e-05   1.0328e-06     -13.2591 
         550      38.6846  1.44417e-05  1.06515e-06     -13.2591 
         550      38.9794   1.4597e-05  1.18852e-06     -13.2591 
         550      39.2752  1.47646e-05  1.30675e-06     -13.2591 
         550      39.5723  1.45821e-05  1.19282e-06     -13.2591 
         550      39.8703   1.4456e-05  1.13232e-06     -13.2591 
         550      40.1696  1.43715e-05  1.11537e-06     -13.2591 
         550      40.4699  1.43176e-05  1.13032e-06     -13.2591 
         550      40.7714  1.42863e-05  1.16466e-06     -13.2591 
         550      41.0739  1.42722e-05  1.20601e-06     -13.2591 
         550      41.3775  1.42716e-05  1.24309e-06     -13.2591 
         550      41.6824  1.42819e-05  1.26663e-06     -13.2591 
         550      41.9883  1.43007e-05  1.27021e-06     -13.2591 
         550      42.2953  1.43249e-05  1.25116e-06     -13.2591 
         550      42.6035  1.43497e-05   1.2113e-06     -13.2591 
         550      42.9128  1.43673e-05  1.15768e-06     -13.2591 
         550      43.2231  1.43659e-05  1.10333e-06     -13.2591 
         550      43.5347  1.43286e-05  1.06775e-06     -13.2591 
         550      43.8473  1.42826e-05  1.06389e-06     -13.2591 
         550      44.1611   1.4321e-05  1.05181e-06     -13.2591 
         550      44.4759  1.43442e-05  1.04144e-06     -13.2591 
         550       44.792  1.43491e-05  1.03212e-06     -13.2591 
         550       45.109  1.43342e-05  1.02272e-06     -13.2592 
         550      45.4273  1.43004e-05  1.01175e-06     -13.2592 
         550      45.7466  1.42502e-05  9.97526e-07     -13.2592 
         550      46.0671  1.41879e-05  9.78363e-07     -13.2592 
         550      46.3887  1.41194e-05  9.52862e-07     -13.2592 
         550      46.7114  1.40516e-05   9.2017e-07     -13.2592 
         550      47.0352  1.39924e-05  8.80406e-07     -13.2592 
         550      47.3602  1.39499e-05  8.35004e-07     -13.2592 
         550      47.6862  1.39322e-05  7.87297e-07     -13.2592 
         550      48.0134  1.39465e-05   7.4296e-07     -13.2592 
         550      48.3417  1.39983e-05  7.10742e-07     -13.2592 
         550      48.6711  1.40909e-05  7.03065e-07     -13.2592 
         550      49.0016  1.42243e-05  7.36856e-07     -13.2592 
         550      49.3333  1.43051e-05  6.92183e-07     -13.2592 
         550      49.6661  1.43164e-05  6.51208e-07     -13.2592 
         550           50  1.43013e-05  6.66158e-07     -13.2592 
