Variables = x, y, u, v, p

Zone, I=800, F=POINT
         -50            0            0            0      -107.69 
         -50     0.000234  -2.5933e-05 -2.48454e-09      -107.69 
         -50     0.000939 -9.78645e-05 -9.79277e-09      -107.69 
         -50     0.002113 -0.000198652 -2.14205e-08      -107.69 
         -50     0.003759  -0.00030541 -3.67397e-08      -107.69 
         -50     0.005872 -0.000394881   -5.506e-08      -107.69 
         -50     0.008457 -0.000450844 -7.59824e-08      -107.69 
         -50      0.01151 -0.000467793 -9.93734e-08      -107.69 
         -50     0.015036 -0.000452655 -1.25564e-07      -107.69 
         -50     0.019031 -0.000421887 -1.55146e-07      -107.69 
         -50     0.023493 -0.000395141 -1.88893e-07      -107.69 
         -50     0.028429 -0.000387025 -2.27589e-07      -107.69 
         -50     0.033831 -0.000400265 -2.71648e-07      -107.69 
         -50     0.039706 -0.000423584  -3.2128e-07      -107.69 
         -50     0.046047 -0.000437488 -3.76393e-07      -107.69 
         -50     0.052863 -0.000428299 -4.37203e-07      -107.69 
         -50      0.06015 -0.000404687 -5.04401e-07      -107.69 
         -50       0.0679 -0.000401101 -5.79287e-07      -107.69 
         -50     0.076126 -0.000435749 -6.62833e-07      -107.69 
         -50     0.084816  -0.00040615 -7.52419e-07      -107.69 
         -50     0.093982 -0.000417072 -8.52126e-07      -107.69 
         -50     0.103611 -0.000420174 -9.60827e-07      -107.69 
         -50     0.113718 -0.000419451 -1.07901e-06      -107.69 
         -50     0.124286 -0.000417752 -1.20688e-06      -107.69 
         -50     0.135333 -0.000416664 -1.34507e-06      -107.69 
         -50      0.14685   -0.0004166 -1.49386e-06      -107.69 
         -50     0.158827 -0.000417109 -1.65334e-06      -107.69 
         -50     0.171284 -0.000417372 -1.82381e-06      -107.69 
         -50     0.184201 -0.000416777 -2.00474e-06      -107.69 
         -50     0.197599 -0.000415416 -2.19589e-06      -107.69 
         -50     0.211455   -0.0004142 -2.39631e-06      -107.69 
         -50     0.225792  -0.00041421 -2.60597e-06      -107.69 
         -50       0.2406 -0.000414696 -2.82539e-06      -107.69 
         -50     0.255865 -0.000412725 -3.06163e-06      -107.69 
         -50     0.271613 -0.000412461 -3.30749e-06      -107.69 
         -50     0.287818 -0.000411997  -3.5533e-06      -107.69 
         -50     0.304506 -0.000411433 -3.80507e-06      -107.69 
         -50      0.32165 -0.000410848 -4.06846e-06      -107.69 
         -50     0.339278 -0.000410294  -4.3499e-06      -107.69 
         -50     0.357377 -0.000409803  -4.6544e-06      -107.69 
         -50      0.37593 -0.000409387 -4.98533e-06      -107.69 
         -50     0.394968 -0.000409042 -5.34469e-06      -107.69 
         -50     0.414461  -0.00040876 -5.73049e-06      -107.69 
         -50      0.43444 -0.000408524 -6.13857e-06      -107.69 
         -50     0.454872 -0.000408327 -6.56005e-06      -107.69 
         -50     0.475791 -0.000408164 -6.98427e-06      -107.69 
         -50     0.497163 -0.000408045 -7.39719e-06     -107.689 
         -50     0.519021 -0.000407988 -7.78599e-06     -107.689 
         -50      0.54135  -0.00040801  -8.1401e-06     -107.689 
         -50     0.564131  -0.00040811 -8.45702e-06     -107.689 
         -50       0.5874 -0.000408241 -8.74985e-06     -107.689 
         -50     0.611121 -0.000408292 -9.03101e-06     -107.689 
         -50      0.63533 -0.000408524 -9.10881e-06     -107.689 
         -50      0.65999 -0.000408738 -9.22664e-06     -107.689 
         -50     0.685139  -0.00040893 -9.39568e-06     -107.689 
         -50     0.710759 -0.000409094 -9.62202e-06     -107.689 
         -50     0.736828 -0.000409232 -9.90687e-06     -107.689 
         -50     0.763387 -0.000409342 -1.02478e-05     -107.689 
         -50     0.790396 -0.000409429 -1.06376e-05     -107.689 
         -50     0.817896 -0.000409497  -1.1067e-05     -107.689 
         -50     0.845843 -0.000409554  -1.1523e-05     -107.689 
         -50     0.874283 -0.000409607 -1.19924e-05     -107.689 
         -50      0.90317 -0.000409666   -1.246e-05     -107.688 
         -50     0.932551 -0.000409742 -1.29127e-05     -107.688 
         -50     0.962401 -0.000409846 -1.33378e-05     -107.688 
         -50     0.992697 -0.000409989 -1.37252e-05     -107.688 
         -50      1.02349 -0.000410183 -1.40697e-05     -107.688 
         -50      1.05472 -0.000410437  -1.4369e-05     -107.688 
         -50      1.08645 -0.000410761 -1.46271e-05     -107.688 
         -50      1.11863 -0.000411163 -1.48526e-05     -107.688 
         -50       1.1513 -0.000411649 -1.50598e-05     -107.688 
         -50      1.18444 -0.000412223  -1.5267e-05     -107.687 
         -50      1.21802 -0.000412887 -1.54954e-05     -107.687 
         -50      1.25211 -0.000413641 -1.57676e-05     -107.687 
         -50      1.28663 -0.000414484 -1.61021e-05     -107.687 
         -50      1.32165 -0.000415414 -1.65112e-05     -107.687 
         -50      1.35712 -0.000416426 -1.69917e-05     -107.687 
         -50      1.39308 -0.000417522 -1.75202e-05     -107.687 
         -50      1.42951 -0.000418702 -1.80399e-05     -107.686 
         -50      1.46638 -0.000419973 -1.84491e-05     -107.686 
         -50      1.50375 -0.000421353 -1.85871e-05     -107.686 
         -50      1.54156   -0.0004231 -1.88195e-05     -107.686 
         -50      1.57987 -0.000424702 -1.90839e-05     -107.686 
         -50      1.61863 -0.000426124 -1.93484e-05     -107.685 
         -50      1.65788  -0.00042737 -1.96072e-05     -107.685 
         -50      1.69757 -0.000428438 -1.98553e-05     -107.685 
         -50      1.73776 -0.000429337 -2.00903e-05     -107.685 
         -50      1.77842 -0.000430071 -2.03103e-05     -107.684 
         -50      1.81952 -0.000430651 -2.05153e-05     -107.684 
         -50      1.86113 -0.000431086  -2.0707e-05     -107.684 
         -50      1.90316 -0.000431391 -2.08877e-05     -107.684 
         -50      1.94571 -0.000431579 -2.10613e-05     -107.683 
         -50      1.98869 -0.000431666 -2.12322e-05     -107.683 
         -50      2.03217 -0.000431667 -2.14061e-05     -107.683 
         -50      2.07612   -0.0004316 -2.15888e-05     -107.682 
         -50      2.12051 -0.000431482 -2.17867e-05     -107.682 
         -50       2.1654  -0.00043133 -2.20064e-05     -107.682 
         -50      2.21073  -0.00043116 -2.22541e-05     -107.681 
         -50      2.25656 -0.000430988 -2.25364e-05     -107.681 
         -50      2.30283 -0.000430828 -2.28583e-05     -107.681 
         -50       2.3496 -0.000430693 -2.32251e-05      -107.68 
         -50      2.39685 -0.000430594 -2.36403e-05      -107.68 
         -50      2.44452 -0.000430539 -2.41062e-05     -107.679 
         -50      2.49271 -0.000430534 -2.46243e-05     -107.679 
         -50      2.54132 -0.000430583 -2.51934e-05     -107.679 
         -50      2.59044 -0.000430684 -2.58119e-05     -107.678 
         -50         2.64 -0.000430835 -2.64746e-05     -107.678 
         -50      2.69006 -0.000431029 -2.71762e-05     -107.677 
         -50      2.74056 -0.000431256 -2.79074e-05     -107.677 
         -50      2.79156 -0.000431504 -2.86593e-05     -107.676 
         -50      2.84304 -0.000431755 -2.94193e-05     -107.676 
         -50      2.89494 -0.000431993 -3.01735e-05     -107.675 
         -50      2.94735 -0.000432196 -3.09084e-05     -107.675 
         -50       3.0002 -0.000432343 -3.16076e-05     -107.674 
         -50      3.05355 -0.000432412  -3.2257e-05     -107.674 
         -50      3.10733 -0.000432384 -3.28409e-05     -107.673 
         -50      3.16163 -0.000432241 -3.33472e-05     -107.672 
         -50      3.21639 -0.000431968 -3.37654e-05     -107.672 
         -50      3.27158  -0.00043156 -3.40891e-05     -107.671 
         -50      3.32729 -0.000431019 -3.43188e-05     -107.671 
         -50      3.38342  -0.00043036 -3.44616e-05      -107.67 
         -50      3.44007 -0.000429611 -3.45352e-05     -107.669 
         -50      3.49714 -0.000428822 -3.45692e-05     -107.669 
         -50      3.55472 -0.000428066 -3.46088e-05     -107.668 
         -50      3.61273 -0.000427445 -3.47174e-05     -107.667 
         -50      3.67125 -0.000427094 -3.49809e-05     -107.666 
         -50      3.73025 -0.000427189 -3.55116e-05     -107.666 
         -50      3.78967 -0.000425993 -3.66465e-05     -107.665 
         -50      3.84961 -0.000424588 -3.70076e-05     -107.664 
         -50      3.90996 -0.000423853 -3.65849e-05     -107.663 
         -50      3.97084 -0.000423121 -3.72646e-05     -107.662 
         -50      4.03214 -0.000422589 -3.80515e-05     -107.662 
         -50      4.09395 -0.000422208 -3.88011e-05     -107.661 
         -50      4.15624 -0.000421894 -3.95568e-05      -107.66 
         -50      4.21895 -0.000421588 -4.03372e-05     -107.659 
         -50      4.28217 -0.000421251 -4.11431e-05     -107.658 
         -50      4.34582 -0.000420867 -4.19593e-05     -107.657 
         -50      4.40998 -0.000420432 -4.27636e-05     -107.656 
         -50      4.47457 -0.000419954 -4.35276e-05     -107.655 
         -50      4.53968 -0.000419449 -4.42254e-05     -107.654 
         -50      4.60525 -0.000418934 -4.48337e-05     -107.653 
         -50      4.67125 -0.000418432 -4.53369e-05     -107.652 
         -50      4.73777 -0.000417958 -4.57306e-05     -107.651 
         -50       4.8047 -0.000417526 -4.60204e-05      -107.65 
         -50      4.87216 -0.000417143 -4.62248e-05     -107.649 
         -50      4.94003 -0.000416808 -4.63726e-05     -107.647 
         -50      5.00843 -0.000416513 -4.65019e-05     -107.646 
         -50      5.07724 -0.000416242 -4.66548e-05     -107.645 
         -50      5.14658 -0.000415974 -4.68723e-05     -107.644 
         -50      5.21639 -0.000415685 -4.71859e-05     -107.642 
         -50      5.28661 -0.000415354 -4.76067e-05     -107.641 
         -50      5.35736 -0.000414965 -4.81136e-05      -107.64 
         -50      5.42852 -0.000414517  -4.8635e-05     -107.639 
         -50      5.50021 -0.000414035 -4.90327e-05     -107.637 
         -50      5.57231 -0.000413576 -4.90756e-05     -107.636 
         -50      5.64493 -0.000413248 -4.84161e-05     -107.634 
         -50      5.71803 -0.000413941 -4.96422e-05     -107.633 
         -50      5.79154 -0.000413872 -5.00668e-05     -107.632 
         -50      5.86558 -0.000413344 -5.01528e-05      -107.63 
         -50      5.94003 -0.000412588   -5.019e-05     -107.629 
         -50      6.01501 -0.000411772 -5.03365e-05     -107.627 
         -50       6.0904 -0.000411013 -5.06531e-05     -107.625 
         -50      6.16632  -0.00041038 -5.11362e-05     -107.624 
         -50      6.24271 -0.000409905 -5.17419e-05     -107.622 
         -50       6.3195 -0.000409589 -5.24058e-05     -107.621 
         -50      6.39683 -0.000409398 -5.30568e-05     -107.619 
         -50      6.47457  -0.00040927 -5.36171e-05     -107.617 
         -50      6.55284  -0.00040911 -5.39988e-05     -107.615 
         -50      6.63152 -0.000408782 -5.40837e-05     -107.614 
         -50      6.71073 -0.000408106 -5.36945e-05     -107.612 
         -50      6.79034 -0.000407403 -5.40212e-05      -107.61 
         -50      6.87049  -0.00040691  -5.4726e-05     -107.608 
         -50      6.95111 -0.000406488 -5.53208e-05     -107.606 
         -50      7.03214 -0.000406121 -5.58364e-05     -107.604 
         -50       7.1137 -0.000405795 -5.62906e-05     -107.602 
         -50      7.19566 -0.000405495 -5.66891e-05       -107.6 
         -50      7.27816 -0.000405209 -5.70333e-05     -107.598 
         -50      7.36106 -0.000404927  -5.7321e-05     -107.596 
         -50      7.44451  -0.00040464 -5.75547e-05     -107.594 
         -50      7.52842 -0.000404343 -5.77442e-05     -107.592 
         -50      7.61273 -0.000404038  -5.7914e-05      -107.59 
         -50      7.69758  -0.00040373 -5.81091e-05     -107.587 
         -50      7.78283 -0.000403436  -5.8401e-05     -107.585 
         -50      7.86862 -0.000403183 -5.88965e-05     -107.583 
         -50      7.95481 -0.000403012 -5.97428e-05     -107.581 
         -50      8.04155 -0.000402981 -6.11394e-05     -107.578 
         -50      8.12868  -0.00040215 -6.13604e-05     -107.576 
         -50      8.21635 -0.000401256 -6.15042e-05     -107.573 
         -50      8.30449 -0.000400569 -6.19232e-05     -107.571 
         -50      8.39303 -0.000400066 -6.24792e-05     -107.568 
         -50      8.48211 -0.000399717 -6.30753e-05     -107.566 
         -50      8.57159 -0.000399491 -6.36547e-05     -107.563 
         -50      8.66161 -0.000399355 -6.42018e-05     -107.561 
         -50      8.75203 -0.000399275 -6.47338e-05     -107.558 
         -50      8.84299 -0.000399212 -6.52942e-05     -107.555 
         -50      8.93443 -0.000399127 -6.59369e-05     -107.552 
         -50      9.02626 -0.000398976 -6.67084e-05      -107.55 
         -50      9.11863 -0.000398708 -6.76265e-05     -107.547 
         -50      9.21139 -0.000398261 -6.86469e-05     -107.544 
         -50      9.30471  -0.00039756 -6.96334e-05     -107.541 
         -50      9.39841  -0.00039702 -7.02002e-05     -107.538 
         -50      9.49267 -0.000396809 -7.04893e-05     -107.535 
         -50      9.58739 -0.000396517 -7.07681e-05     -107.532 
         -50      9.68251 -0.000396152  -7.1085e-05     -107.529 
         -50      9.77817 -0.000395726 -7.14713e-05     -107.526 
         -50      9.87422 -0.000395253 -7.19419e-05     -107.523 
         -50      9.97083 -0.000394752 -7.25005e-05      -107.52 
         -50      10.0678 -0.000394239 -7.31397e-05     -107.516 
         -50      10.1654 -0.000393733 -7.38465e-05     -107.513 
         -50      10.2633 -0.000393248 -7.46012e-05      -107.51 
         -50      10.3618   -0.0003928 -7.53836e-05     -107.506 
         -50      10.4607 -0.000392397 -7.61715e-05     -107.503 
         -50      10.5601 -0.000392047 -7.69441e-05     -107.499 
         -50        10.66 -0.000391752 -7.76856e-05     -107.496 
         -50      10.7603 -0.000391509 -7.83821e-05     -107.492 
         -50      10.8611 -0.000391313 -7.90277e-05     -107.489 
         -50      10.9623 -0.000391151 -7.96204e-05     -107.485 
         -50      11.0641 -0.000391008  -8.0167e-05     -107.481 
         -50      11.1663 -0.000390867 -8.06792e-05     -107.477 
         -50       11.269 -0.000390705 -8.11747e-05     -107.474 
         -50      11.3721 -0.000390501 -8.16773e-05      -107.47 
         -50      11.4757 -0.000390235 -8.22123e-05     -107.466 
         -50      11.5798 -0.000389887 -8.28077e-05     -107.462 
         -50      11.6844 -0.000389444 -8.34879e-05     -107.458 
         -50      11.7894 -0.000388901 -8.42735e-05     -107.454 
         -50       11.895 -0.000388265  -8.5174e-05      -107.45 
         -50      12.0009 -0.000387558 -8.61833e-05     -107.446 
         -50      12.1073 -0.000386819 -8.72765e-05     -107.441 
         -50      12.2142 -0.000386118 -8.83974e-05     -107.437 
         -50      12.3216 -0.000385549 -8.94572e-05     -107.433 
         -50      12.4294 -0.000385247 -9.03184e-05     -107.428 
         -50      12.5378 -0.000385388 -9.07909e-05     -107.424 
         -50      12.6465 -0.000385477 -9.00116e-05     -107.419 
         -50      12.7558  -0.00038447 -8.82421e-05     -107.415 
         -50      12.8656 -0.000385344 -8.99874e-05      -107.41 
         -50      12.9757 -0.000385203 -9.13713e-05     -107.406 
         -50      13.0864 -0.000384181 -9.21405e-05     -107.401 
         -50      13.1975 -0.000383217 -9.26386e-05     -107.396 
         -50      13.3092 -0.000382342 -9.29835e-05     -107.392 
         -50      13.4212 -0.000381573 -9.32617e-05     -107.387 
         -50      13.5338 -0.000380917 -9.35355e-05     -107.382 
         -50      13.6468  -0.00038037 -9.38446e-05     -107.377 
         -50      13.7603 -0.000379923  -9.4211e-05     -107.372 
         -50      13.8743 -0.000379559 -9.46433e-05     -107.367 
         -50      13.9886 -0.000379258  -9.5138e-05     -107.362 
         -50      14.1036 -0.000378998 -9.56855e-05     -107.356 
         -50      14.2189 -0.000378757 -9.62702e-05     -107.351 
         -50      14.3348 -0.000378511 -9.68761e-05     -107.346 
         -50       14.451  -0.00037824 -9.74859e-05     -107.341 
         -50      14.5678 -0.000377927 -9.80865e-05     -107.335 
         -50      14.6851 -0.000377559 -9.86673e-05      -107.33 
         -50      14.8028 -0.000377127 -9.92232e-05     -107.324 
         -50       14.921 -0.000376627 -9.97558e-05     -107.319 
         -50      15.0396 -0.000376062 -0.000100271     -107.313 
         -50      15.1588  -0.00037544 -0.000100782     -107.307 
         -50      15.2783 -0.000374775 -0.000101304     -107.302 
         -50      15.3984 -0.000374084 -0.000101856     -107.296 
         -50       15.519 -0.000373392 -0.000102458      -107.29 
         -50        15.64 -0.000372723 -0.000103125     -107.284 
         -50      15.7615 -0.000372105 -0.000103865     -107.278 
         -50      15.8834 -0.000371565 -0.000104674     -107.272 
         -50      16.0058 -0.000371127  -0.00010553     -107.266 
         -50      16.1286 -0.000370811 -0.000106384      -107.26 
         -50       16.252 -0.000370626 -0.000107154     -107.253 
         -50      16.3759  -0.00037057 -0.000107717     -107.247 
         -50      16.5002 -0.000370625 -0.000107894     -107.241 
         -50       16.625  -0.00037075 -0.000107443     -107.234 
         -50      16.7501 -0.000370434 -0.000107518     -107.228 
         -50      16.8759 -0.000369532 -0.000108822     -107.221 
         -50       17.002 -0.000368567 -0.000109868     -107.215 
         -50      17.1287 -0.000367548 -0.000110707     -107.208 
         -50      17.2557 -0.000366493 -0.000111382     -107.201 
         -50      17.3834  -0.00036542 -0.000111932     -107.195 
         -50      17.5115 -0.000364354 -0.000112391     -107.188 
         -50      17.6399 -0.000363321 -0.000112788     -107.181 
         -50       17.769 -0.000362345 -0.000113148     -107.174 
         -50      17.8984 -0.000361449 -0.000113489     -107.167 
         -50      18.0284 -0.000360651 -0.000113829      -107.16 
         -50      18.1587 -0.000359967 -0.000114179     -107.153 
         -50      18.2896 -0.000359403  -0.00011455     -107.145 
         -50       18.421 -0.000358962 -0.000114947     -107.138 
         -50      18.5528 -0.000358637 -0.000115372     -107.131 
         -50      18.6851 -0.000358415 -0.000115828     -107.123 
         -50      18.8178 -0.000358273 -0.000116312     -107.116 
         -50      18.9511 -0.000358181  -0.00011682     -107.108 
         -50      19.0847 -0.000358102 -0.000117345     -107.101 
         -50      19.2189 -0.000357991 -0.000117881     -107.093 
         -50      19.3535 -0.000357797 -0.000118418     -107.085 
         -50      19.4886 -0.000357465 -0.000118944     -107.077 
         -50      19.6242 -0.000356938 -0.000119448     -107.069 
         -50      19.7602 -0.000356156 -0.000119914     -107.062 
         -50      19.8968 -0.000355062 -0.000120327     -107.054 
         -50      20.0337 -0.000353608  -0.00012067     -107.045 
         -50      20.1712 -0.000351747 -0.000120924     -107.037 
         -50      20.3091 -0.000350011 -0.000121015     -107.029 
         -50      20.4475 -0.000350051 -0.000120847     -107.021 
         -50      20.5864  -0.00035016  -0.00012065     -107.013 
         -50      20.7257 -0.000350267 -0.000120492     -107.004 
         -50      20.8655 -0.000350281 -0.000120488     -106.996 
         -50      21.0058 -0.000350092 -0.000120812     -106.987 
         -50      21.1465 -0.000349563 -0.000121709     -106.979 
         -50      21.2877  -0.00034931 -0.000123277      -106.97 
         -50      21.4294 -0.000349212 -0.000124719     -106.961 
         -50      21.5716   -0.0003483 -0.000125929     -106.952 
         -50      21.7142 -0.000346681 -0.000126797     -106.944 
         -50      21.8573   -0.0003444  -0.00012717     -106.935 
         -50      22.0008 -0.000342221 -0.000126989     -106.926 
         -50      22.1449 -0.000341576 -0.000126971     -106.917 
         -50      22.2893 -0.000341145 -0.000127186     -106.908 
         -50      22.4344 -0.000340874 -0.000127562     -106.898 
         -50      22.5797 -0.000340704 -0.000128044     -106.889 
         -50      22.7257 -0.000340572  -0.00012859      -106.88 
         -50      22.8721 -0.000340417 -0.000129169      -106.87 
         -50      23.0189 -0.000340186 -0.000129759     -106.861 
         -50      23.1663 -0.000339835 -0.000130349     -106.851 
         -50       23.314 -0.000339335 -0.000130933     -106.842 
         -50      23.4623 -0.000338673  -0.00013151     -106.832 
         -50       23.611 -0.000337852 -0.000132082     -106.822 
         -50      23.7602  -0.00033689 -0.000132652     -106.813 
         -50        23.91 -0.000335825 -0.000133224     -106.803 
         -50        24.06 -0.000334705 -0.000133798     -106.793 
         -50      24.2107 -0.000333587 -0.000134372     -106.783 
         -50      24.3617 -0.000332535 -0.000134936     -106.773 
         -50      24.5133 -0.000331609 -0.000135475     -106.763 
         -50      24.6653  -0.00033086 -0.000135963     -106.753 
         -50      24.8178 -0.000330321 -0.000136364     -106.742 
         -50      24.9708 -0.000329993  -0.00013663     -106.732 
         -50      25.1242 -0.000329834 -0.000136699     -106.722 
         -50      25.2781 -0.000329743 -0.000136492     -106.711 
         -50      25.4324 -0.000329546 -0.000135915     -106.701 
         -50      25.5873 -0.000328059 -0.000137785      -106.69 
         -50      25.7426 -0.000326887 -0.000139335      -106.68 
         -50      25.8984 -0.000326039 -0.000140393     -106.669 
         -50      26.0546 -0.000325404 -0.000141038     -106.658 
         -50      26.2114 -0.000324879 -0.000141354     -106.647 
         -50      26.3686 -0.000324378 -0.000141437     -106.636 
         -50      26.5262 -0.000323841 -0.000141398     -106.626 
         -50      26.6844  -0.00032323  -0.00014136     -106.614 
         -50      26.8429 -0.000322534 -0.000141447     -106.603 
         -50       27.002 -0.000321755 -0.000141768     -106.592 
         -50      27.1615 -0.000320903 -0.000142393     -106.581 
         -50      27.3216 -0.000319978 -0.000143319      -106.57 
         -50      27.4821 -0.000318949 -0.000144425     -106.558 
         -50       27.643 -0.000318028 -0.000144818     -106.547 
         -50      27.8044 -0.000317192 -0.000144908     -106.536 
         -50      27.9663 -0.000316326 -0.000145097     -106.524 
         -50      28.1287 -0.000315438 -0.000145364     -106.512 
         -50      28.2914  -0.00031454  -0.00014569     -106.501 
         -50      28.4548 -0.000313638 -0.000146058     -106.489 
         -50      28.6185 -0.000312741 -0.000146454     -106.477 
         -50      28.7828 -0.000311852 -0.000146866     -106.465 
         -50      28.9475 -0.000310975 -0.000147283     -106.454 
         -50      29.1126 -0.000310116 -0.000147697     -106.442 
         -50      29.2784 -0.000309274 -0.000148101      -106.43 
         -50      29.4444 -0.000308451 -0.000148489     -106.417 
         -50       29.611 -0.000307647 -0.000148859     -106.405 
         -50       29.778 -0.000306861 -0.000149207     -106.393 
         -50      29.9456  -0.00030609 -0.000149533     -106.381 
         -50      30.1137 -0.000305334 -0.000149836     -106.369 
         -50      30.2821  -0.00030459 -0.000150117     -106.356 
         -50      30.4511 -0.000303853 -0.000150379     -106.344 
         -50      30.6204 -0.000303122 -0.000150622     -106.331 
         -50      30.7903 -0.000302391 -0.000150851     -106.319 
         -50      30.9606 -0.000301657 -0.000151068     -106.306 
         -50      31.1315 -0.000300915 -0.000151278     -106.293 
         -50      31.3028 -0.000300163 -0.000151485     -106.281 
         -50      31.4745 -0.000299396 -0.000151691     -106.268 
         -50      31.6468  -0.00029861 -0.000151902     -106.255 
         -50      31.8194 -0.000297804  -0.00015212     -106.242 
         -50      31.9926 -0.000296973 -0.000152351     -106.229 
         -50      32.1662 -0.000296116 -0.000152595     -106.216 
         -50      32.3404 -0.000295231 -0.000152855     -106.203 
         -50      32.5149 -0.000294319 -0.000153134      -106.19 
         -50        32.69 -0.000293377 -0.000153432     -106.176 
         -50      32.8655  -0.00029241 -0.000153749     -106.163 
         -50      33.0414 -0.000291418 -0.000154084      -106.15 
         -50       33.218 -0.000290406 -0.000154434     -106.137 
         -50      33.3948 -0.000289378 -0.000154795     -106.123 
         -50      33.5723  -0.00028834 -0.000155164      -106.11 
         -50        33.75 -0.000287302 -0.000155533     -106.096 
         -50      33.9284 -0.000286271 -0.000155894     -106.082 
         -50      34.1073 -0.000285259 -0.000156238     -106.069 
         -50      34.2865  -0.00028428 -0.000156553     -106.055 
         -50      34.4663 -0.000283348 -0.000156825     -106.041 
         -50      34.6465 -0.000282481 -0.000157041     -106.028 
         -50      34.8272 -0.000281697 -0.000157182     -106.014 
         -50      35.0083 -0.000281347  -0.00015694         -106 
         -50        35.19 -0.000281192 -0.000156812     -105.986 
         -50      35.3721 -0.000280957 -0.000157074     -105.972 
         -50      35.5546 -0.000280581 -0.000157403     -105.958 
         -50      35.7377 -0.000279756 -0.000156508     -105.944 
         -50      35.9211 -0.000278866 -0.000155628     -105.929 
         -50      36.1052 -0.000277936 -0.000154755     -105.915 
         -50      36.2895  -0.00027699 -0.000153888     -105.901 
         -50      36.4745 -0.000276048 -0.000153024     -105.887 
         -50      36.6598 -0.000275127 -0.000152165     -105.872 
         -50      36.8457 -0.000274228 -0.000151402     -105.858 
         -50      37.0321  -0.00027317 -0.000152202     -105.843 
         -50      37.2188 -0.000272154 -0.000153009     -105.829 
         -50      37.4062 -0.000271179 -0.000153802     -105.814 
         -50      37.5938 -0.000270246 -0.000154561       -105.8 
         -50      37.7821 -0.000269351 -0.000155276     -105.785 
         -50      37.9707 -0.000268491 -0.000155934      -105.77 
         -50      38.1599 -0.000267661 -0.000156531     -105.756 
         -50      38.3496 -0.000266855 -0.000157062     -105.741 
         -50      38.5396  -0.00026607 -0.000157525     -105.726 
         -50      38.7302 -0.000265298 -0.000157924     -105.711 
         -50      38.9211 -0.000264534 -0.000158258     -105.696 
         -50      39.1127 -0.000263772 -0.000158532     -105.681 
         -50      39.3046 -0.000263009 -0.000158751     -105.666 
         -50      39.4971 -0.000262238  -0.00015892     -105.651 
         -50      39.6899 -0.000261457 -0.000159044     -105.636 
         -50      39.8833 -0.000260662 -0.000159129     -105.621 
         -50      40.0772 -0.000259853 -0.000159181     -105.606 
         -50      40.2714 -0.000259027 -0.000159204      -105.59 
         -50      40.4663 -0.000258185 -0.000159203     -105.575 
         -50      40.6615 -0.000257329 -0.000159183      -105.56 
         -50      40.8573 -0.000256458 -0.000159145     -105.544 
         -50      41.0534 -0.000255577 -0.000159094     -105.529 
         -50      41.2501 -0.000254688  -0.00015903     -105.514 
         -50      41.4473 -0.000253793 -0.000158955     -105.498 
         -50      41.6448 -0.000252899  -0.00015887     -105.483 
         -50      41.8429 -0.000252007 -0.000158774     -105.467 
         -50      42.0414 -0.000251122 -0.000158669     -105.452 
         -50      42.2405 -0.000250244 -0.000158553     -105.436 
         -50      42.4399 -0.000249377 -0.000158429      -105.42 
         -50      42.6399 -0.000248518 -0.000158296     -105.405 
         -50      42.8404 -0.000247666 -0.000158158     -105.389 
         -50      43.0412 -0.000246817 -0.000158019     -105.373 
         -50      43.2426 -0.000245959 -0.000157887     -105.357 
         -50      43.4444 -0.000245082  -0.00015777     -105.341 
         -50      43.6467 -0.000244166 -0.000157683     -105.326 
         -50      43.8494  -0.00024319 -0.000157644      -105.31 
         -50      44.0527 -0.000242122 -0.000157676     -105.294 
         -50      44.2563 -0.000240945 -0.000157796     -105.278 
         -50      44.4606 -0.000240509 -0.000157443     -105.262 
         -50      44.6653 -0.000239945 -0.000157175     -105.246 
         -50      44.8704 -0.000239276 -0.000156974      -105.23 
         -50       45.076 -0.000238523 -0.000156825     -105.214 
         -50       45.282 -0.000237709  -0.00015671     -105.197 
         -50      45.4886 -0.000236854 -0.000156617     -105.181 
         -50      45.6955 -0.000235981 -0.000156531     -105.165 
         -50       45.903 -0.000235108  -0.00015644     -105.149 
         -50      46.1111 -0.000234257 -0.000156334     -105.133 
         -50      46.3194 -0.000233447 -0.000156203     -105.116 
         -50      46.5283 -0.000232696  -0.00015604       -105.1 
         -50      46.7376 -0.000232024 -0.000155838     -105.084 
         -50      46.9475 -0.000231447 -0.000155593     -105.067 
         -50      47.1577 -0.000230983 -0.000155303     -105.051 
         -50      47.3685 -0.000230289 -0.000155174     -105.035 
         -50      47.5798 -0.000229113 -0.000155328     -105.018 
         -50      47.7914 -0.000228039 -0.000155415     -105.002 
         -50      48.0037 -0.000227048 -0.000155445     -104.985 