Variables = x, y, u, v, p

Zone, I=800, F=POINT
          50            0 -4.20032e-20 -3.66398e-25     -10.0254 
          50     0.000234  -2.0891e-06 -2.18001e-11     -10.0254 
          50     0.000939 -7.96855e-06 -1.27537e-10     -10.0254 
          50     0.002113 -1.64919e-05 -4.41313e-10     -10.0254 
          50     0.003759 -2.61466e-05 -1.18546e-09     -10.0254 
          50     0.005872 -3.54003e-05 -2.69479e-09     -10.0254 
          50     0.008457 -4.32255e-05  -5.4513e-09     -10.0254 
          50      0.01151 -4.93056e-05 -1.00994e-08     -10.0254 
          50     0.015036  -5.4154e-05 -1.74967e-08     -10.0254 
          50     0.019031 -5.88564e-05 -2.87156e-08     -10.0254 
          50     0.023493 -6.46276e-05 -4.50797e-08     -10.0254 
          50     0.028429 -7.22504e-05 -6.82268e-08     -10.0254 
          50     0.033831  -8.1588e-05  -1.0002e-07     -10.0254 
          50     0.039706 -9.15508e-05 -1.42696e-07     -10.0254 
          50     0.046047  -0.00010055 -1.98695e-07     -10.0254 
          50     0.052863 -0.000107613 -2.70875e-07     -10.0254 
          50      0.06015 -0.000113522 -3.62255e-07     -10.0254 
          50       0.0679 -0.000120898 -4.75994e-07     -10.0254 
          50     0.076126 -0.000130696 -6.15752e-07     -10.0254 
          50     0.084816 -0.000134209 -7.84928e-07     -10.0254 
          50     0.093982 -0.000141077 -9.87274e-07     -10.0254 
          50     0.103611 -0.000146432 -1.22614e-06     -10.0254 
          50     0.113718 -0.000150637 -1.50552e-06     -10.0254 
          50     0.124286 -0.000153937 -1.82837e-06     -10.0254 
          50     0.135333 -0.000156474 -2.19836e-06     -10.0254 
          50      0.14685 -0.000158277 -2.61805e-06     -10.0254 
          50     0.158827 -0.000159306 -3.08949e-06     -10.0254 
          50     0.171284 -0.000159497 -3.61557e-06     -10.0254 
          50     0.184201 -0.000158824 -4.19717e-06     -10.0254 
          50     0.197599 -0.000157345 -4.83657e-06     -10.0254 
          50     0.211455 -0.000155217 -5.53357e-06     -10.0254 
          50     0.225792 -0.000152619 -6.28964e-06     -10.0254 
          50       0.2406 -0.000149553  -7.1038e-06     -10.0254 
          50     0.255865 -0.000145803 -7.97391e-06     -10.0254 
          50     0.271613 -0.000141882 -8.90312e-06     -10.0254 
          50     0.287818 -0.000137689  -9.8882e-06     -10.0254 
          50     0.304506 -0.000133314 -1.09281e-05     -10.0254 
          50      0.32165 -0.000128859  -1.2019e-05     -10.0254 
          50     0.339278 -0.000124405 -1.31607e-05     -10.0254 
          50     0.357377 -0.000120038 -1.43506e-05     -10.0254 
          50      0.37593 -0.000115837 -1.55861e-05     -10.0254 
          50     0.394968  -0.00011186 -1.68675e-05     -10.0254 
          50     0.414461 -0.000108172 -1.81911e-05     -10.0254 
          50      0.43444 -0.000104816 -1.95567e-05     -10.0254 
          50     0.454872 -0.000101837 -2.09594e-05     -10.0254 
          50     0.475791 -9.92621e-05 -2.23986e-05     -10.0254 
          50     0.497163 -9.71179e-05 -2.38684e-05     -10.0254 
          50     0.519021 -9.54147e-05 -2.53675e-05     -10.0254 
          50      0.54135 -9.41575e-05 -2.68916e-05     -10.0254 
          50     0.564131 -9.33367e-05 -2.84378e-05     -10.0254 
          50       0.5874 -9.29234e-05 -3.00095e-05     -10.0254 
          50     0.611121 -9.28574e-05 -3.16087e-05     -10.0254 
          50      0.63533  -9.3082e-05 -3.32116e-05     -10.0254 
          50      0.65999 -9.36537e-05 -3.48107e-05     -10.0254 
          50     0.685139 -9.44526e-05 -3.64076e-05     -10.0254 
          50     0.710759 -9.53641e-05 -3.79994e-05     -10.0254 
          50     0.736828  -9.6281e-05 -3.95817e-05     -10.0254 
          50     0.763387 -9.71079e-05 -4.11531e-05     -10.0254 
          50     0.790396 -9.77575e-05 -4.27063e-05     -10.0254 
          50     0.817896 -9.81562e-05 -4.42382e-05     -10.0254 
          50     0.845843 -9.82414e-05 -4.57406e-05     -10.0254 
          50     0.874283 -9.79646e-05 -4.72098e-05     -10.0254 
          50      0.90317  -9.7291e-05 -4.86376e-05     -10.0254 
          50     0.932551 -9.61982e-05 -5.00211e-05     -10.0254 
          50     0.962401 -9.46787e-05 -5.13542e-05     -10.0254 
          50     0.992697 -9.27394e-05 -5.26323e-05     -10.0254 
          50      1.02349 -9.03951e-05 -5.38553e-05     -10.0254 
          50      1.05472 -8.76786e-05 -5.50202e-05     -10.0254 
          50      1.08645 -8.46246e-05 -5.61296e-05     -10.0254 
          50      1.11863 -8.12857e-05  -5.7184e-05     -10.0254 
          50       1.1513 -7.77105e-05 -5.81888e-05     -10.0254 
          50      1.18444   -7.396e-05  -5.9148e-05     -10.0254 
          50      1.21802  -7.0098e-05 -6.00662e-05     -10.0254 
          50      1.25211 -6.61776e-05 -6.09502e-05     -10.0254 
          50      1.28663 -6.22619e-05 -6.18021e-05     -10.0254 
          50      1.32165 -5.83944e-05 -6.26242e-05     -10.0254 
          50      1.35712 -5.46228e-05 -6.34108e-05     -10.0253 
          50      1.39308 -5.09707e-05 -6.41515e-05     -10.0253 
          50      1.42951 -4.74563e-05  -6.4823e-05     -10.0253 
          50      1.46638 -4.40817e-05 -6.53878e-05     -10.0253 
          50      1.50375 -4.08224e-05 -6.57901e-05     -10.0253 
          50      1.54156 -3.77114e-05 -6.63991e-05     -10.0253 
          50      1.57987 -3.46776e-05  -6.6953e-05     -10.0253 
          50      1.61863 -3.17316e-05 -6.74284e-05     -10.0253 
          50      1.65788 -2.88783e-05 -6.78306e-05     -10.0253 
          50      1.69757 -2.61308e-05 -6.81631e-05     -10.0253 
          50      1.73776  -2.3492e-05 -6.84304e-05     -10.0253 
          50      1.77842 -2.09704e-05 -6.86354e-05     -10.0253 
          50      1.81952 -1.85729e-05 -6.87809e-05     -10.0253 
          50      1.86113 -1.62994e-05 -6.88695e-05     -10.0253 
          50      1.90316 -1.41561e-05 -6.89033e-05     -10.0253 
          50      1.94571 -1.21408e-05 -6.88837e-05     -10.0253 
          50      1.98869 -1.02571e-05 -6.88121e-05     -10.0253 
          50      2.03217 -8.50072e-06 -6.86891e-05     -10.0253 
          50      2.07612 -6.87127e-06 -6.85155e-05     -10.0253 
          50      2.12051 -5.36665e-06 -6.82915e-05     -10.0253 
          50       2.1654  -3.9803e-06  -6.8017e-05     -10.0253 
          50      2.21073 -2.70933e-06 -6.76922e-05     -10.0253 
          50      2.25656 -1.54582e-06 -6.73164e-05     -10.0253 
          50      2.30283 -4.84982e-07 -6.68899e-05     -10.0253 
          50       2.3496  4.82033e-07 -6.64118e-05     -10.0253 
          50      2.39685  1.36205e-06 -6.58822e-05     -10.0253 
          50      2.44452  2.16244e-06 -6.53016e-05     -10.0253 
          50      2.49271  2.89263e-06 -6.46693e-05     -10.0253 
          50      2.54132  3.55964e-06 -6.39869e-05     -10.0253 
          50      2.59044  4.17253e-06 -6.32543e-05     -10.0253 
          50         2.64  4.73801e-06  -6.2474e-05     -10.0253 
          50      2.69006  5.26414e-06 -6.16467e-05     -10.0253 
          50      2.74056  5.75656e-06 -6.07763e-05     -10.0253 
          50      2.79156  6.22167e-06 -5.98643e-05     -10.0253 
          50      2.84304  6.66361e-06 -5.89152e-05     -10.0253 
          50      2.89494  7.08538e-06 -5.79343e-05     -10.0253 
          50      2.94735  7.48956e-06  -5.6925e-05     -10.0253 
          50       3.0002  7.87587e-06 -5.58945e-05     -10.0252 
          50      3.05355  8.24353e-06 -5.48477e-05     -10.0252 
          50      3.10733  8.58878e-06 -5.37928e-05     -10.0252 
          50      3.16163  8.90702e-06 -5.27354e-05     -10.0252 
          50      3.21639  9.19075e-06 -5.16837e-05     -10.0252 
          50      3.27158  9.43054e-06 -5.06462e-05     -10.0252 
          50      3.32729  9.61541e-06 -4.96283e-05     -10.0252 
          50      3.38342  9.73165e-06 -4.86387e-05     -10.0252 
          50      3.44007  9.76403e-06 -4.76816e-05     -10.0252 
          50      3.49714  9.69525e-06 -4.67633e-05     -10.0252 
          50      3.55472  9.50628e-06 -4.58855e-05     -10.0252 
          50      3.61273  9.17713e-06 -4.50501e-05     -10.0252 
          50      3.67125  8.68596e-06 -4.42536e-05     -10.0252 
          50      3.73025  8.01101e-06 -4.34905e-05     -10.0252 
          50      3.78967  7.32439e-06   -4.263e-05     -10.0252 
          50      3.84961  6.70209e-06 -4.18192e-05     -10.0252 
          50      3.90996  6.06849e-06  -4.1057e-05     -10.0252 
          50      3.97084  5.41218e-06 -4.02945e-05     -10.0252 
          50      4.03214  4.73066e-06 -3.95196e-05     -10.0252 
          50      4.09395  4.02383e-06 -3.87376e-05     -10.0251 
          50      4.15624  3.29569e-06 -3.79636e-05     -10.0251 
          50      4.21895  2.55117e-06 -3.72113e-05     -10.0251 
          50      4.28217  1.79313e-06 -3.64849e-05     -10.0251 
          50      4.34582  1.02581e-06 -3.57809e-05     -10.0251 
          50      4.40998  2.50093e-07 -3.50854e-05     -10.0251 
          50      4.47457 -5.30878e-07 -3.43861e-05     -10.0251 
          50      4.53968 -1.31504e-06 -3.36812e-05     -10.0251 
          50      4.60525 -2.09436e-06 -3.30031e-05     -10.0251 
          50      4.67125  -2.8887e-06 -3.23498e-05     -10.0251 
          50      4.73777  -3.6741e-06 -3.16934e-05     -10.0251 
          50       4.8047 -4.45442e-06 -3.10547e-05     -10.0251 
          50      4.87216 -5.23242e-06 -3.04352e-05     -10.0251 
          50      4.94003 -6.00063e-06 -2.98294e-05     -10.0251 
          50      5.00843 -6.75194e-06   -2.923e-05      -10.025 
          50      5.07724 -7.47868e-06 -2.86368e-05      -10.025 
          50      5.14658  -8.1795e-06 -2.80551e-05      -10.025 
          50      5.21639 -8.85513e-06 -2.74964e-05      -10.025 
          50      5.28661 -9.50749e-06 -2.69681e-05      -10.025 
          50      5.35736 -1.01355e-05 -2.64593e-05      -10.025 
          50      5.42852 -1.07227e-05 -2.59229e-05      -10.025 
          50      5.50021 -1.12867e-05 -2.54436e-05      -10.025 
          50      5.57231 -1.18311e-05 -2.49527e-05      -10.025 
          50      5.64493 -1.23439e-05 -2.44538e-05      -10.025 
          50      5.71803 -1.28244e-05 -2.39563e-05      -10.025 
          50      5.79154 -1.32783e-05 -2.34651e-05     -10.0249 
          50      5.86558 -1.37158e-05 -2.29929e-05     -10.0249 
          50      5.94003  -1.4145e-05 -2.25836e-05     -10.0249 
          50      6.01501 -1.45747e-05 -2.20856e-05     -10.0249 
          50       6.0904 -1.49883e-05 -2.15613e-05     -10.0249 
          50      6.16632 -1.53939e-05 -2.10835e-05     -10.0249 
          50      6.24271 -1.57996e-05 -2.06496e-05     -10.0249 
          50       6.3195 -1.62063e-05 -2.02187e-05     -10.0249 
          50      6.39683 -1.66028e-05 -1.96789e-05     -10.0249 
          50      6.47457 -1.69985e-05 -1.92715e-05     -10.0248 
          50      6.55284 -1.73841e-05 -1.88345e-05     -10.0248 
          50      6.63152 -1.77609e-05 -1.83728e-05     -10.0248 
          50      6.71073 -1.81336e-05 -1.78967e-05     -10.0248 
          50      6.79034 -1.85063e-05 -1.74212e-05     -10.0248 
          50      6.87049 -1.88839e-05 -1.69624e-05     -10.0248 
          50      6.95111 -1.92582e-05 -1.65529e-05     -10.0248 
          50      7.03214 -1.96001e-05 -1.62019e-05     -10.0248 
          50       7.1137 -1.99338e-05 -1.58453e-05     -10.0247 
          50      7.19566 -2.02546e-05 -1.54821e-05     -10.0247 
          50      7.27816 -2.05617e-05 -1.51174e-05     -10.0247 
          50      7.36106 -2.08554e-05 -1.47625e-05     -10.0247 
          50      7.44451  -2.1138e-05 -1.44293e-05     -10.0247 
          50      7.52842 -2.14117e-05 -1.41301e-05     -10.0247 
          50      7.61273 -2.16777e-05 -1.38724e-05     -10.0247 
          50      7.69758 -2.19358e-05 -1.36544e-05     -10.0246 
          50      7.78283 -2.21819e-05 -1.34616e-05     -10.0246 
          50      7.86862 -2.24076e-05   -1.326e-05     -10.0246 
          50      7.95481 -2.25974e-05 -1.29911e-05     -10.0246 
          50      8.04155 -2.27833e-05 -1.27888e-05     -10.0246 
          50      8.12868 -2.29663e-05 -1.26587e-05     -10.0246 
          50      8.21635 -2.31246e-05 -1.24807e-05     -10.0245 
          50      8.30449 -2.32699e-05 -1.22813e-05     -10.0245 
          50      8.39303 -2.34088e-05 -1.20766e-05     -10.0245 
          50      8.48211 -2.35447e-05 -1.18741e-05     -10.0245 
          50      8.57159 -2.36779e-05 -1.16757e-05     -10.0245 
          50      8.66161 -2.38079e-05 -1.14792e-05     -10.0244 
          50      8.75203  -2.3933e-05 -1.12806e-05     -10.0244 
          50      8.84299 -2.40524e-05 -1.10747e-05     -10.0244 
          50      8.93443 -2.41657e-05 -1.08575e-05     -10.0244 
          50      9.02626 -2.42737e-05 -1.06272e-05     -10.0244 
          50      9.11863 -2.43789e-05 -1.03838e-05     -10.0244 
          50      9.21139 -2.44848e-05  -1.0131e-05     -10.0243 
          50      9.30471 -2.45958e-05 -9.87463e-06     -10.0243 
          50      9.39841 -2.47166e-05 -9.62365e-06     -10.0243 
          50      9.49267 -2.48509e-05 -9.38763e-06     -10.0243 
          50      9.58739 -2.50001e-05 -9.17644e-06     -10.0243 
          50      9.68251 -2.51614e-05 -8.99748e-06     -10.0242 
          50      9.77817 -2.53257e-05 -8.85241e-06     -10.0242 
          50      9.87422 -2.53741e-05 -8.68795e-06     -10.0242 
          50      9.97083 -2.52954e-05  -8.4465e-06     -10.0242 
          50      10.0678 -2.55131e-05 -8.28689e-06     -10.0241 
          50      10.1654 -2.55547e-05 -8.17682e-06     -10.0241 
          50      10.2633 -2.55509e-05 -8.02859e-06     -10.0241 
          50      10.3618 -2.55259e-05 -7.86465e-06     -10.0241 
          50      10.4607  -2.5497e-05  -7.6992e-06      -10.024 
          50      10.5601 -2.54758e-05 -7.53972e-06      -10.024 
          50        10.66 -2.54687e-05  -7.3883e-06      -10.024 
          50      10.7603 -2.54788e-05 -7.24406e-06      -10.024 
          50      10.8611 -2.55059e-05 -7.10369e-06     -10.0239 
          50      10.9623  -2.5548e-05 -6.96353e-06     -10.0239 
          50      11.0641 -2.56017e-05 -6.81982e-06     -10.0239 
          50      11.1663 -2.56633e-05 -6.67021e-06     -10.0239 
          50       11.269 -2.57287e-05 -6.51408e-06     -10.0238 
          50      11.3721 -2.57946e-05 -6.35238e-06     -10.0238 
          50      11.4757 -2.58585e-05 -6.18848e-06     -10.0238 
          50      11.5798 -2.59188e-05 -6.02678e-06     -10.0238 
          50      11.6844 -2.59747e-05 -5.87296e-06     -10.0237 
          50      11.7894 -2.60264e-05 -5.73182e-06     -10.0237 
          50       11.895 -2.60745e-05 -5.60648e-06     -10.0237 
          50      12.0009 -2.61194e-05 -5.49588e-06     -10.0236 
          50      12.1073 -2.61604e-05  -5.3919e-06     -10.0236 
          50      12.2142 -2.61948e-05 -5.27681e-06     -10.0236 
          50      12.3216 -2.62164e-05 -5.11867e-06     -10.0236 
          50      12.4294 -2.62583e-05 -4.96583e-06     -10.0235 
          50      12.5378 -2.63683e-05  -4.9684e-06     -10.0235 
          50      12.6465 -2.64462e-05 -4.93522e-06     -10.0235 
          50      12.7558 -2.65003e-05 -4.88047e-06     -10.0234 
          50      12.8656 -2.65368e-05 -4.81631e-06     -10.0234 
          50      12.9757 -2.65606e-05 -4.75245e-06     -10.0234 
          50      13.0864 -2.65753e-05 -4.69557e-06     -10.0233 
          50      13.1975 -2.65831e-05  -4.6493e-06     -10.0233 
          50      13.3092 -2.65853e-05 -4.61359e-06     -10.0233 
          50      13.4212 -2.65825e-05 -4.58482e-06     -10.0232 
          50      13.5338 -2.65747e-05 -4.55532e-06     -10.0232 
          50      13.6468  -2.6562e-05 -4.51352e-06     -10.0232 
          50      13.7603 -2.65447e-05 -4.44387e-06     -10.0231 
          50      13.8743 -2.65084e-05 -4.33351e-06     -10.0231 
          50      13.9886  -2.6435e-05   -4.222e-06     -10.0231 
          50      14.1036 -2.63372e-05 -4.11633e-06      -10.023 
          50      14.2189 -2.62261e-05 -4.01487e-06      -10.023 
          50      14.3348 -2.61117e-05 -3.91465e-06     -10.0229 
          50       14.451 -2.60034e-05 -3.81317e-06     -10.0229 
          50      14.5678 -2.59088e-05 -3.70866e-06     -10.0229 
          50      14.6851 -2.58342e-05 -3.60149e-06     -10.0228 
          50      14.8028 -2.57839e-05 -3.49463e-06     -10.0228 
          50       14.921 -2.57591e-05 -3.39386e-06     -10.0227 
          50      15.0396  -2.5758e-05 -3.30872e-06     -10.0227 
          50      15.1588 -2.57746e-05 -3.25206e-06     -10.0227 
          50      15.2783 -2.57975e-05 -3.24045e-06     -10.0226 
          50      15.3984 -2.58097e-05  -3.2936e-06     -10.0226 
          50       15.519 -2.57865e-05 -3.43397e-06     -10.0225 
          50        15.64 -2.56948e-05 -3.68567e-06     -10.0225 
          50      15.7615 -2.58386e-05 -3.60535e-06     -10.0225 
          50      15.8834 -2.59102e-05 -3.56035e-06     -10.0224 
          50      16.0058  -2.5901e-05  -3.5845e-06     -10.0224 
          50      16.1286 -2.58459e-05 -3.64973e-06     -10.0223 
          50       16.252  -2.5771e-05 -3.73359e-06     -10.0223 
          50      16.3759 -2.56949e-05 -3.81875e-06     -10.0222 
          50      16.5002 -2.56303e-05 -3.89273e-06     -10.0222 
          50       16.625 -2.55838e-05 -3.94768e-06     -10.0221 
          50      16.7501 -2.55584e-05 -3.97957e-06     -10.0221 
          50      16.8759 -2.55531e-05 -3.98799e-06      -10.022 
          50       17.002 -2.55647e-05 -3.97531e-06      -10.022 
          50      17.1287 -2.55884e-05 -3.94618e-06      -10.022 
          50      17.2557  -2.5618e-05 -3.90679e-06     -10.0219 
          50      17.3834 -2.56477e-05 -3.86399e-06     -10.0219 
          50      17.5115 -2.56717e-05 -3.82458e-06     -10.0218 
          50      17.6399 -2.56851e-05 -3.79425e-06     -10.0218 
          50       17.769 -2.56844e-05 -3.77655e-06     -10.0217 
          50      17.8984 -2.56679e-05  -3.7719e-06     -10.0217 
          50      18.0284 -2.56353e-05 -3.77626e-06     -10.0216 
          50      18.1587 -2.55886e-05 -3.77994e-06     -10.0215 
          50      18.2896 -2.55313e-05 -3.76617e-06     -10.0215 
          50       18.421 -2.54686e-05 -3.70958e-06     -10.0214 
          50      18.5528 -2.55253e-05 -3.72502e-06     -10.0214 
          50      18.6851 -2.56328e-05 -3.76453e-06     -10.0213 
          50      18.8178 -2.57265e-05 -3.77645e-06     -10.0213 
          50      18.9511  -2.5796e-05 -3.77316e-06     -10.0212 
          50      19.0847   -2.583e-05 -3.77045e-06     -10.0212 
          50      19.2189 -2.58178e-05 -3.78623e-06     -10.0211 
          50      19.3535 -2.57491e-05 -3.83899e-06      -10.021 
          50      19.4886 -2.56153e-05 -3.94616e-06      -10.021 
          50      19.6242 -2.54102e-05 -4.12181e-06     -10.0209 
          50      19.7602 -2.52941e-05 -4.19895e-06     -10.0209 
          50      19.8968 -2.53618e-05 -3.99916e-06     -10.0208 
          50      20.0337 -2.53543e-05 -3.80135e-06     -10.0208 
          50      20.1712 -2.52997e-05 -3.60958e-06     -10.0207 
          50      20.3091 -2.52196e-05 -3.42153e-06     -10.0206 
          50      20.4475 -2.51292e-05 -3.22783e-06     -10.0206 
          50      20.5864  -2.5037e-05 -3.01355e-06     -10.0205 
          50      20.7257 -2.49446e-05 -2.75852e-06     -10.0204 
          50      20.8655  -2.4982e-05 -2.70763e-06     -10.0204 
          50      21.0058 -2.51037e-05 -2.80233e-06     -10.0203 
          50      21.1465 -2.51855e-05  -2.8247e-06     -10.0203 
          50      21.2877 -2.52298e-05 -2.79381e-06     -10.0202 
          50      21.4294 -2.52408e-05 -2.72487e-06     -10.0201 
          50      21.5716  -2.5224e-05 -2.62973e-06     -10.0201 
          50      21.7142 -2.51855e-05  -2.5174e-06       -10.02 
          50      21.8573 -2.51318e-05 -2.39409e-06     -10.0199 
          50      22.0008 -2.50692e-05 -2.26431e-06     -10.0199 
          50      22.1449 -2.50035e-05 -2.13044e-06     -10.0198 
          50      22.2893 -2.49399e-05 -1.99394e-06     -10.0197 
          50      22.4344 -2.48824e-05 -1.85485e-06     -10.0196 
          50      22.5797 -2.48341e-05 -1.71289e-06     -10.0196 
          50      22.7257 -2.47966e-05 -1.56692e-06     -10.0195 
          50      22.8721 -2.47702e-05 -1.41587e-06     -10.0194 
          50      23.0189 -2.47539e-05 -1.25866e-06     -10.0194 
          50      23.1663 -2.47455e-05 -1.09387e-06     -10.0193 
          50       23.314 -2.47419e-05 -9.20778e-07     -10.0192 
          50      23.4623 -2.47392e-05 -7.38293e-07     -10.0191 
          50       23.611 -2.47332e-05 -5.46044e-07     -10.0191 
          50      23.7602 -2.47197e-05 -3.43127e-07      -10.019 
          50        23.91 -2.46955e-05 -1.28995e-07     -10.0189 
          50        24.06 -2.46586e-05  9.71848e-08     -10.0188 
          50      24.2107 -2.46096e-05  3.37412e-07     -10.0188 
          50      24.3617 -2.43986e-05  4.40552e-07     -10.0187 
          50      24.5133 -2.42376e-05  4.79109e-07     -10.0186 
          50      24.6653 -2.41843e-05  5.23061e-07     -10.0185 
          50      24.8178 -2.41981e-05  5.69067e-07     -10.0184 
          50      24.9708 -2.42479e-05  6.15204e-07     -10.0184 
          50      25.1242 -2.43102e-05  6.60739e-07     -10.0183 
          50      25.2781  -2.4369e-05  7.05949e-07     -10.0182 
          50      25.4324 -2.44138e-05  7.51577e-07     -10.0181 
          50      25.5873 -2.44393e-05  7.98867e-07      -10.018 
          50      25.7426 -2.44438e-05  8.49033e-07      -10.018 
          50      25.8984 -2.44289e-05  9.03364e-07     -10.0179 
          50      26.0546 -2.43984e-05  9.62712e-07     -10.0178 
          50      26.2114 -2.43572e-05  1.02771e-06     -10.0177 
          50      26.3686 -2.43113e-05  1.09831e-06     -10.0176 
          50      26.5262 -2.42666e-05  1.17385e-06     -10.0175 
          50      26.6844 -2.42283e-05  1.25324e-06     -10.0174 
          50      26.8429  -2.4201e-05  1.33446e-06     -10.0173 
          50       27.002 -2.41878e-05  1.41518e-06     -10.0173 
          50      27.1615 -2.41905e-05  1.49231e-06     -10.0172 
          50      27.3216 -2.42089e-05  1.56265e-06     -10.0171 
          50      27.4821 -2.42414e-05  1.62264e-06      -10.017 
          50       27.643 -2.42846e-05  1.66883e-06     -10.0169 
          50      27.8044 -2.43338e-05  1.69829e-06     -10.0168 
          50      27.9663 -2.43835e-05   1.7087e-06     -10.0167 
          50      28.1287 -2.44275e-05    1.699e-06     -10.0166 
          50      28.2914   -2.446e-05   1.6698e-06     -10.0165 
          50      28.4548 -2.44763e-05  1.62393e-06     -10.0164 
          50      28.6185  -2.4474e-05  1.56722e-06     -10.0163 
          50      28.7828 -2.44539e-05  1.50894e-06     -10.0162 
          50      28.9475 -2.44217e-05  1.46298e-06     -10.0161 
          50      29.1126 -2.43896e-05  1.44844e-06      -10.016 
          50      29.2784 -2.42367e-05  1.65862e-06     -10.0159 
          50      29.4444 -2.39991e-05   1.9656e-06     -10.0158 
          50       29.611 -2.37275e-05   2.2691e-06     -10.0157 
          50       29.778 -2.34418e-05  2.46708e-06     -10.0156 
          50      29.9456 -2.35837e-05  1.87558e-06     -10.0155 
          50      30.1137 -2.38508e-05  1.22312e-06     -10.0154 
          50      30.2821 -2.41106e-05  7.99542e-07     -10.0153 
          50      30.4511 -2.41518e-05  8.67249e-07     -10.0152 
          50      30.6204 -2.41435e-05  9.28258e-07     -10.0151 
          50      30.7903   -2.411e-05  9.75703e-07      -10.015 
          50      30.9606 -2.40682e-05  1.00523e-06     -10.0149 
          50      31.1315  -2.4029e-05  1.01493e-06     -10.0148 
          50      31.3028 -2.39985e-05   1.0048e-06     -10.0147 
          50      31.4745 -2.39792e-05  9.76528e-07     -10.0146 
          50      31.6468 -2.39704e-05  9.33044e-07     -10.0145 
          50      31.8194 -2.39699e-05  8.78376e-07     -10.0144 
          50      31.9926 -2.39743e-05  8.17072e-07     -10.0143 
          50      32.1662   -2.398e-05  7.54245e-07     -10.0141 
          50      32.3404 -2.39836e-05  6.94905e-07      -10.014 
          50      32.5149 -2.39827e-05  6.44081e-07     -10.0139 
          50        32.69 -2.39758e-05  6.06198e-07     -10.0138 
          50      32.8655  -2.3963e-05  5.85145e-07     -10.0137 
          50      33.0414 -2.39459e-05   5.8387e-07     -10.0136 
          50       33.218 -2.39275e-05  6.04242e-07     -10.0135 
          50      33.3948 -2.39122e-05  6.46835e-07     -10.0133 
          50      33.5723 -2.39053e-05   7.1091e-07     -10.0132 
          50        33.75 -2.39123e-05  7.94009e-07     -10.0131 
          50      33.9284 -2.39386e-05   8.9226e-07      -10.013 
          50      34.1073 -2.39883e-05  9.99864e-07     -10.0129 
          50      34.2865 -2.40629e-05  1.10922e-06     -10.0128 
          50      34.4663 -2.41607e-05  1.21118e-06     -10.0126 
          50      34.6465 -2.42741e-05  1.29453e-06     -10.0125 
          50      34.8272 -2.43892e-05  1.34658e-06     -10.0124 
          50      35.0083 -2.44826e-05   1.3528e-06     -10.0123 
          50        35.19 -2.45199e-05  1.29723e-06     -10.0121 
          50      35.3721 -2.44525e-05   1.1625e-06      -10.012 
          50      35.5546 -2.43202e-05  1.12342e-06     -10.0119 
          50      35.7377  -2.4239e-05  1.23923e-06     -10.0118 
          50      35.9211  -2.4155e-05  1.31798e-06     -10.0116 
          50      36.1052  -2.4074e-05  1.35748e-06     -10.0115 
          50      36.2895 -2.40007e-05  1.35844e-06     -10.0114 
          50      36.4745 -2.39381e-05  1.32422e-06     -10.0113 
          50      36.6598 -2.38883e-05   1.2602e-06     -10.0111 
          50      36.8457 -2.38523e-05  1.17305e-06      -10.011 
          50      37.0321 -2.38302e-05  1.07048e-06     -10.0109 
          50      37.2188 -2.38216e-05   9.6055e-07     -10.0107 
          50      37.4062 -2.38253e-05   8.5079e-07     -10.0106 
          50      37.5938 -2.38398e-05  7.48253e-07     -10.0105 
          50      37.7821 -2.38634e-05  6.58262e-07     -10.0103 
          50      37.9707 -2.38939e-05  5.84484e-07     -10.0102 
          50      38.1599 -2.39295e-05  5.27793e-07     -10.0101 
          50      38.3496 -2.39679e-05   4.8615e-07     -10.0099 
          50      38.5396 -2.40071e-05  4.53807e-07     -10.0098 
          50      38.7302 -2.40453e-05  4.20726e-07     -10.0096 
          50      38.9211 -2.40806e-05  3.72209e-07     -10.0095 
          50      39.1127 -2.41117e-05  2.88084e-07     -10.0094 
          50      39.3046  -2.4137e-05  1.42547e-07     -10.0092 
          50      39.4971 -2.41556e-05 -9.70124e-08     -10.0091 
          50      39.6899 -2.41665e-05 -4.69491e-07     -10.0089 
          50      39.8833 -2.41447e-05  -4.6873e-07     -10.0088 
          50      40.0772 -2.41124e-05 -3.85969e-07     -10.0086 
          50      40.2714 -2.40827e-05  -3.6659e-07     -10.0085 
          50      40.4663 -2.40596e-05 -3.99863e-07     -10.0084 
          50      40.6615 -2.40452e-05 -4.73529e-07     -10.0082 
          50      40.8573 -2.40401e-05 -5.74272e-07     -10.0081 
          50      41.0534 -2.40428e-05 -6.87576e-07     -10.0079 
          50      41.2501 -2.40495e-05 -7.98566e-07     -10.0078 
          50      41.4473 -2.40543e-05 -8.91622e-07     -10.0076 
          50      41.6448 -2.40488e-05 -9.50901e-07     -10.0075 
          50      41.8429 -2.40221e-05 -9.60565e-07     -10.0073 
          50      42.0414 -2.39605e-05 -9.04666e-07     -10.0072 
          50      42.2405 -2.38479e-05 -7.67224e-07      -10.007 
          50      42.4399 -2.39435e-05 -8.17863e-07     -10.0069 
          50      42.6399 -2.41381e-05 -1.03828e-06     -10.0067 
          50      42.8404 -2.42642e-05 -1.24205e-06     -10.0065 
          50      43.0412 -2.43282e-05 -1.40453e-06     -10.0064 
          50      43.2426 -2.43379e-05 -1.51325e-06     -10.0062 
          50      43.4444 -2.43024e-05 -1.56536e-06     -10.0061 
          50      43.6467 -2.42316e-05 -1.56657e-06     -10.0059 
          50      43.8494 -2.41366e-05 -1.52914e-06     -10.0058 
          50      44.0527 -2.40288e-05 -1.47025e-06     -10.0056 
          50      44.2563 -2.39205e-05 -1.41068e-06     -10.0054 
          50      44.4606 -2.38239e-05   -1.373e-06     -10.0053 
          50      44.6653 -2.37517e-05 -1.38041e-06     -10.0051 
          50      44.8704 -2.37164e-05 -1.45516e-06      -10.005 
          50       45.076 -2.37301e-05 -1.61757e-06     -10.0048 
          50       45.282 -2.38048e-05 -1.88426e-06     -10.0046 
          50      45.4886 -2.37959e-05 -1.88588e-06     -10.0045 
          50      45.6955  -2.3751e-05 -1.79607e-06     -10.0043 
          50       45.903 -2.37101e-05 -1.72587e-06     -10.0041 
          50      46.1111 -2.36719e-05 -1.67568e-06      -10.004 
          50      46.3194 -2.36359e-05 -1.64554e-06     -10.0038 
          50      46.5283 -2.36017e-05 -1.63515e-06     -10.0036 
          50      46.7376 -2.35693e-05 -1.64392e-06     -10.0035 
          50      46.9475 -2.35391e-05 -1.67088e-06     -10.0033 
          50      47.1577 -2.35117e-05 -1.71459e-06     -10.0031 
          50      47.3685 -2.34876e-05 -1.77322e-06     -10.0029 
          50      47.5798 -2.34679e-05 -1.84431e-06     -10.0028 
          50      47.7914 -2.34532e-05 -1.92473e-06     -10.0026 
          50      48.0037 -2.34443e-05 -2.01087e-06     -10.0024 