Variables = x, y, u, v, p

Zone, I=800, F=POINT
         -10            0 -3.15497e-19 -3.88029e-24     -83.1989 
         -10     0.000234 -1.56372e-05 -1.96992e-10     -83.1989 
         -10     0.000939 -5.89977e-05 -7.99667e-10     -83.1989 
         -10     0.002113 -0.000119717 -1.83804e-09     -83.1989 
         -10     0.003759 -0.000183983 -3.38075e-09     -83.1989 
         -10     0.005872 -0.000237811 -5.53909e-09     -83.1989 
         -10     0.008457 -0.000271534 -8.50064e-09     -83.1989 
         -10      0.01151 -0.000282011 -1.25217e-08     -83.1989 
         -10     0.015036  -0.00027362 -1.79521e-08     -83.1989 
         -10     0.019031 -0.000256423 -2.52049e-08     -83.1989 
         -10     0.023493 -0.000242249 -3.47523e-08     -83.1989 
         -10     0.028429 -0.000239662 -4.71247e-08     -83.1989 
         -10     0.033831 -0.000249832 -6.28347e-08     -83.1989 
         -10     0.039706 -0.000265401 -8.24422e-08     -83.1989 
         -10     0.046047 -0.000274227 -1.06479e-07     -83.1989 
         -10     0.052863 -0.000268192 -1.35579e-07     -83.1989 
         -10      0.06015  -0.00025338 -1.70405e-07     -83.1989 
         -10       0.0679 -0.000251785  -2.1167e-07     -83.1989 
         -10     0.076126 -0.000274265 -2.60177e-07     -83.1989 
         -10     0.084816 -0.000254969 -3.16309e-07     -83.1989 
         -10     0.093982 -0.000262758 -3.80976e-07     -83.1989 
         -10     0.103611 -0.000265202 -4.54662e-07     -83.1989 
         -10     0.113718 -0.000264992 -5.38068e-07     -83.1989 
         -10     0.124286 -0.000264041   -6.316e-07     -83.1989 
         -10     0.135333 -0.000263411 -7.35916e-07     -83.1989 
         -10      0.14685  -0.00026337 -8.51384e-07     -83.1989 
         -10     0.158827 -0.000263608 -9.78272e-07     -83.1989 
         -10     0.171284 -0.000263568  -1.1171e-06     -83.1989 
         -10     0.184201 -0.000262841 -1.26789e-06     -83.1989 
         -10     0.197599 -0.000261497 -1.43104e-06     -83.1989 
         -10     0.211455 -0.000260165 -1.60641e-06     -83.1989 
         -10     0.225792 -0.000259585 -1.79436e-06     -83.1989 
         -10       0.2406 -0.000259248 -1.99488e-06     -83.1989 
         -10     0.255865 -0.000257174 -2.20784e-06     -83.1989 
         -10     0.271613 -0.000256215 -2.43296e-06     -83.1989 
         -10     0.287818 -0.000255072 -2.66993e-06     -83.1989 
         -10     0.304506 -0.000253822 -2.91922e-06     -83.1989 
         -10      0.32165  -0.00025253 -3.18037e-06     -83.1989 
         -10     0.339278 -0.000251243 -3.45359e-06     -83.1989 
         -10     0.357377 -0.000249994 -3.73835e-06     -83.1989 
         -10      0.37593 -0.000248803 -4.03399e-06     -83.1989 
         -10     0.394968 -0.000247678 -4.34061e-06     -83.1989 
         -10     0.414461 -0.000246622 -4.65737e-06     -83.1989 
         -10      0.43444 -0.000245635 -4.98453e-06     -83.1988 
         -10     0.454872 -0.000244718 -5.32142e-06     -83.1988 
         -10     0.475791 -0.000243877 -5.66858e-06     -83.1988 
         -10     0.497163 -0.000243126 -6.02554e-06     -83.1988 
         -10     0.519021  -0.00024248  -6.3929e-06     -83.1988 
         -10      0.54135 -0.000241959 -6.77025e-06     -83.1988 
         -10     0.564131 -0.000241568 -7.15655e-06     -83.1988 
         -10       0.5874 -0.000241283 -7.55071e-06     -83.1988 
         -10     0.611121 -0.000241029 -7.95011e-06     -83.1988 
         -10      0.63533 -0.000240909 -8.36452e-06     -83.1988 
         -10      0.65999 -0.000240892 -8.78035e-06     -83.1988 
         -10     0.685139 -0.000240958 -9.19843e-06     -83.1988 
         -10     0.710759 -0.000241091 -9.61839e-06     -83.1988 
         -10     0.736828 -0.000241274 -1.00396e-05     -83.1988 
         -10     0.763387 -0.000241491 -1.04623e-05     -83.1988 
         -10     0.790396  -0.00024173 -1.08852e-05     -83.1988 
         -10     0.817896 -0.000241978 -1.13081e-05     -83.1988 
         -10     0.845843 -0.000242225 -1.17293e-05     -83.1988 
         -10     0.874283 -0.000242461 -1.21486e-05     -83.1988 
         -10      0.90317  -0.00024268 -1.25641e-05     -83.1988 
         -10     0.932551 -0.000242876 -1.29754e-05     -83.1988 
         -10     0.962401 -0.000243046 -1.33812e-05     -83.1988 
         -10     0.992697 -0.000243189 -1.37799e-05     -83.1987 
         -10      1.02349 -0.000243304 -1.41715e-05     -83.1987 
         -10      1.05472 -0.000243392 -1.45546e-05     -83.1987 
         -10      1.08645 -0.000243457 -1.49291e-05     -83.1987 
         -10      1.11863 -0.000243503  -1.5294e-05     -83.1987 
         -10       1.1513 -0.000243533 -1.56498e-05     -83.1987 
         -10      1.18444 -0.000243553  -1.5996e-05     -83.1987 
         -10      1.21802 -0.000243569 -1.63323e-05     -83.1987 
         -10      1.25211 -0.000243585 -1.66592e-05     -83.1987 
         -10      1.28663 -0.000243605  -1.6976e-05     -83.1987 
         -10      1.32165 -0.000243633 -1.72824e-05     -83.1986 
         -10      1.35712 -0.000243671 -1.75768e-05     -83.1986 
         -10      1.39308 -0.000243719 -1.78573e-05     -83.1986 
         -10      1.42951 -0.000243776 -1.81199e-05     -83.1986 
         -10      1.46638 -0.000243837 -1.83587e-05     -83.1986 
         -10      1.50375 -0.000243896 -1.85658e-05     -83.1986 
         -10      1.54156 -0.000243799 -1.87997e-05     -83.1986 
         -10      1.57987 -0.000243798 -1.90205e-05     -83.1985 
         -10      1.61863 -0.000243884 -1.92233e-05     -83.1985 
         -10      1.65788 -0.000244031 -1.94085e-05     -83.1985 
         -10      1.69757 -0.000244218 -1.95759e-05     -83.1985 
         -10      1.73776 -0.000244425  -1.9726e-05     -83.1985 
         -10      1.77842 -0.000244637 -1.98592e-05     -83.1985 
         -10      1.81952 -0.000244841 -1.99758e-05     -83.1984 
         -10      1.86113 -0.000245026 -2.00768e-05     -83.1984 
         -10      1.90316 -0.000245185 -2.01627e-05     -83.1984 
         -10      1.94571 -0.000245313 -2.02343e-05     -83.1984 
         -10      1.98869 -0.000245407 -2.02924e-05     -83.1983 
         -10      2.03217 -0.000245467 -2.03378e-05     -83.1983 
         -10      2.07612 -0.000245495  -2.0371e-05     -83.1983 
         -10      2.12051 -0.000245494 -2.03928e-05     -83.1983 
         -10       2.1654  -0.00024547 -2.04035e-05     -83.1982 
         -10      2.21073 -0.000245428 -2.04035e-05     -83.1982 
         -10      2.25656 -0.000245376 -2.03929e-05     -83.1982 
         -10      2.30283 -0.000245321 -2.03717e-05     -83.1982 
         -10       2.3496 -0.000245272 -2.03394e-05     -83.1981 
         -10      2.39685 -0.000245234 -2.02956e-05     -83.1981 
         -10      2.44452 -0.000245216 -2.02393e-05     -83.1981 
         -10      2.49271 -0.000245224 -2.01694e-05      -83.198 
         -10      2.54132 -0.000245261 -2.00845e-05      -83.198 
         -10      2.59044 -0.000245331 -1.99827e-05      -83.198 
         -10         2.64 -0.000245436 -1.98621e-05     -83.1979 
         -10      2.69006 -0.000245573 -1.97203e-05     -83.1979 
         -10      2.74056  -0.00024574 -1.95551e-05     -83.1978 
         -10      2.79156 -0.000245931 -1.93636e-05     -83.1978 
         -10      2.84304 -0.000246139 -1.91433e-05     -83.1978 
         -10      2.89494 -0.000246352 -1.88919e-05     -83.1977 
         -10      2.94735  -0.00024656 -1.86066e-05     -83.1977 
         -10       3.0002 -0.000246749 -1.82857e-05     -83.1976 
         -10      3.05355 -0.000246904 -1.79273e-05     -83.1976 
         -10      3.10733 -0.000247011 -1.75311e-05     -83.1975 
         -10      3.16163 -0.000247056 -1.70968e-05     -83.1975 
         -10      3.21639 -0.000247029 -1.66261e-05     -83.1974 
         -10      3.27158 -0.000246922 -1.61228e-05     -83.1974 
         -10      3.32729 -0.000246733 -1.55913e-05     -83.1973 
         -10      3.38342 -0.000246469   -1.504e-05     -83.1973 
         -10      3.44007 -0.000246148  -1.4479e-05     -83.1972 
         -10      3.49714   -0.0002458 -1.39234e-05     -83.1971 
         -10      3.55472 -0.000245474 -1.33909e-05     -83.1971 
         -10      3.61273  -0.00024524 -1.29059e-05      -83.197 
         -10      3.67125 -0.000245196 -1.24968e-05     -83.1969 
         -10      3.73025  -0.00024547    -1.22e-05     -83.1969 
         -10      3.78967 -0.000245852 -1.19394e-05     -83.1968 
         -10      3.84961 -0.000246068 -1.16387e-05     -83.1967 
         -10      3.90996 -0.000246222 -1.13486e-05     -83.1967 
         -10      3.97084 -0.000246339 -1.10795e-05     -83.1966 
         -10      4.03214 -0.000246437 -1.08298e-05     -83.1965 
         -10      4.09395 -0.000246525 -1.05856e-05     -83.1964 
         -10      4.15624 -0.000246607 -1.03245e-05     -83.1963 
         -10      4.21895 -0.000246683 -1.00166e-05     -83.1962 
         -10      4.28217 -0.000246776 -9.97214e-06     -83.1962 
         -10      4.34582 -0.000246857 -9.94022e-06     -83.1961 
         -10      4.40998 -0.000246911 -9.84575e-06      -83.196 
         -10      4.47457 -0.000246939 -9.71411e-06     -83.1959 
         -10      4.53968 -0.000246939 -9.56615e-06     -83.1958 
         -10      4.60525 -0.000246917 -9.41849e-06     -83.1957 
         -10      4.67125 -0.000246874 -9.28309e-06     -83.1956 
         -10      4.73777 -0.000246817 -9.16659e-06     -83.1955 
         -10       4.8047 -0.000246752 -9.07094e-06     -83.1954 
         -10      4.87216 -0.000246685  -8.9924e-06     -83.1952 
         -10      4.94003 -0.000246624 -8.92206e-06     -83.1951 
         -10      5.00843 -0.000246578 -8.84512e-06      -83.195 
         -10      5.07724 -0.000246558 -8.74137e-06     -83.1949 
         -10      5.14658 -0.000246576 -8.58446e-06     -83.1948 
         -10      5.21639 -0.000246649 -8.34248e-06     -83.1946 
         -10      5.28661  -0.00024675 -8.06707e-06     -83.1945 
         -10      5.35736 -0.000246646 -8.13208e-06     -83.1944 
         -10      5.42852 -0.000246571 -8.07533e-06     -83.1942 
         -10      5.50021 -0.000246512 -7.97165e-06     -83.1941 
         -10      5.57231  -0.00024646 -7.86977e-06     -83.1939 
         -10      5.64493 -0.000246408  -7.7967e-06     -83.1938 
         -10      5.71803 -0.000246354 -7.76296e-06     -83.1936 
         -10      5.79154 -0.000246294 -7.76681e-06     -83.1935 
         -10      5.86558  -0.00024623 -7.79856e-06     -83.1933 
         -10      5.94003 -0.000246163 -7.84436e-06     -83.1931 
         -10      6.01501 -0.000246094 -7.88978e-06      -83.193 
         -10       6.0904 -0.000246026 -7.92238e-06     -83.1928 
         -10      6.16632 -0.000245962 -7.93412e-06     -83.1926 
         -10      6.24271 -0.000245905 -7.92251e-06     -83.1924 
         -10       6.3195 -0.000245857  -7.8913e-06     -83.1922 
         -10      6.39683  -0.00024582 -7.84975e-06     -83.1921 
         -10      6.47457 -0.000245795 -7.81108e-06     -83.1919 
         -10      6.55284 -0.000245785 -7.78931e-06     -83.1917 
         -10      6.63152 -0.000245791 -7.79491e-06     -83.1914 
         -10      6.71073 -0.000245813 -7.82868e-06     -83.1912 
         -10      6.79034 -0.000245855 -7.87378e-06      -83.191 
         -10      6.87049 -0.000245919 -7.88606e-06     -83.1908 
         -10      6.95111 -0.000245926 -7.70814e-06     -83.1906 
         -10      7.03214 -0.000245506 -7.22814e-06     -83.1903 
         -10       7.1137 -0.000245383 -7.94243e-06     -83.1901 
         -10      7.19566 -0.000245248 -8.35436e-06     -83.1899 
         -10      7.27816 -0.000245188 -7.97378e-06     -83.1896 
         -10      7.36106  -0.00024518 -7.62433e-06     -83.1893 
         -10      7.44451 -0.000245193 -7.37632e-06     -83.1891 
         -10      7.52842 -0.000245203 -7.25465e-06     -83.1888 
         -10      7.61273 -0.000245196 -7.25079e-06     -83.1885 
         -10      7.69758 -0.000245161 -7.33537e-06     -83.1883 
         -10      7.78283 -0.000245094 -7.46899e-06      -83.188 
         -10      7.86862 -0.000244998 -7.61193e-06     -83.1877 
         -10      7.95481 -0.000244878 -7.73104e-06     -83.1874 
         -10      8.04155 -0.000244744 -7.80602e-06     -83.1871 
         -10      8.12868 -0.000244607 -7.83185e-06     -83.1868 
         -10      8.21635 -0.000244478 -7.81984e-06     -83.1865 
         -10      8.30449 -0.000244368 -7.79486e-06     -83.1861 
         -10      8.39303 -0.000244282 -7.78973e-06     -83.1858 
         -10      8.48211  -0.00024422 -7.83572e-06     -83.1855 
         -10      8.57159 -0.000244174 -7.94902e-06     -83.1851 
         -10      8.66161 -0.000244123 -8.11319e-06     -83.1848 
         -10      8.75203 -0.000244031 -8.25582e-06     -83.1844 
         -10      8.84299 -0.000243844 -8.22125e-06      -83.184 
         -10      8.93443 -0.000243646 -8.19665e-06     -83.1836 
         -10      9.02626 -0.000243579 -8.40387e-06     -83.1833 
         -10      9.11863 -0.000243489 -8.47658e-06     -83.1829 
         -10      9.21139 -0.000243392 -8.49402e-06     -83.1825 
         -10      9.30471 -0.000243302 -8.51897e-06     -83.1821 
         -10      9.39841 -0.000243186 -8.64917e-06     -83.1816 
         -10      9.49267  -0.00024292 -9.08449e-06     -83.1812 
         -10      9.58739 -0.000242947 -9.30679e-06     -83.1808 
         -10      9.68251 -0.000243112 -9.36865e-06     -83.1803 
         -10      9.77817 -0.000243164 -9.55959e-06     -83.1799 
         -10      9.87422 -0.000243137 -9.83733e-06     -83.1794 
         -10      9.97083 -0.000243059 -1.01658e-05      -83.179 
         -10      10.0678 -0.000242951 -1.05133e-05     -83.1785 
         -10      10.1654 -0.000242831 -1.08547e-05      -83.178 
         -10      10.2633  -0.00024271 -1.11692e-05     -83.1775 
         -10      10.3618 -0.000242597 -1.14432e-05      -83.177 
         -10      10.4607 -0.000242499 -1.16684e-05     -83.1765 
         -10      10.5601 -0.000242417 -1.18444e-05     -83.1759 
         -10        10.66 -0.000242353 -1.19793e-05     -83.1754 
         -10      10.7603 -0.000242303 -1.20902e-05     -83.1749 
         -10      10.8611 -0.000242259  -1.2206e-05     -83.1743 
         -10      10.9623 -0.000242209 -1.23682e-05     -83.1737 
         -10      11.0641 -0.000242133 -1.26342e-05     -83.1732 
         -10      11.1663 -0.000241999  -1.3067e-05     -83.1726 
         -10       11.269 -0.000241804 -1.32459e-05      -83.172 
         -10      11.3721 -0.000241704 -1.34655e-05     -83.1714 
         -10      11.4757 -0.000241656 -1.37103e-05     -83.1708 
         -10      11.5798 -0.000241624 -1.39671e-05     -83.1701 
         -10      11.6844  -0.00024158 -1.42254e-05     -83.1695 
         -10      11.7894 -0.000241506 -1.44798e-05     -83.1688 
         -10       11.895 -0.000241392 -1.47282e-05     -83.1682 
         -10      12.0009 -0.000241242 -1.49712e-05     -83.1675 
         -10      12.1073 -0.000241069 -1.52103e-05     -83.1668 
         -10      12.2142   -0.0002409 -1.54427e-05     -83.1661 
         -10      12.3216 -0.000240774 -1.56571e-05     -83.1654 
         -10      12.4294 -0.000240741 -1.58264e-05     -83.1647 
         -10      12.5378 -0.000240734 -1.59392e-05      -83.164 
         -10      12.6465 -0.000240665 -1.60968e-05     -83.1632 
         -10      12.7558 -0.000240611 -1.62951e-05     -83.1625 
         -10      12.8656 -0.000240557 -1.65235e-05     -83.1617 
         -10      12.9757 -0.000240493 -1.67717e-05     -83.1609 
         -10      13.0864 -0.000240411 -1.70295e-05     -83.1601 
         -10      13.1975  -0.00024031  -1.7286e-05     -83.1593 
         -10      13.3092 -0.000240189 -1.75316e-05     -83.1585 
         -10      13.4212 -0.000240047 -1.77578e-05     -83.1577 
         -10      13.5338 -0.000239887 -1.79605e-05     -83.1568 
         -10      13.6468 -0.000239712 -1.81413e-05      -83.156 
         -10      13.7603 -0.000239528 -1.83118e-05     -83.1551 
         -10      13.8743 -0.000239343 -1.84978e-05     -83.1542 
         -10      13.9886 -0.000239169 -1.87433e-05     -83.1533 
         -10      14.1036 -0.000239023 -1.91184e-05     -83.1524 
         -10      14.2189 -0.000238933 -1.97235e-05     -83.1515 
         -10      14.3348 -0.000238862 -2.03541e-05     -83.1505 
         -10       14.451 -0.000238633 -2.01504e-05     -83.1496 
         -10      14.5678 -0.000238453 -2.01073e-05     -83.1486 
         -10      14.6851 -0.000238308 -2.01899e-05     -83.1477 
         -10      14.8028 -0.000238188 -2.03672e-05     -83.1467 
         -10       14.921 -0.000238082 -2.06122e-05     -83.1457 
         -10      15.0396 -0.000237982  -2.0901e-05     -83.1446 
         -10      15.1588 -0.000237882 -2.12144e-05     -83.1436 
         -10      15.2783 -0.000237777 -2.15356e-05     -83.1425 
         -10      15.3984 -0.000237664 -2.18524e-05     -83.1415 
         -10       15.519 -0.000237541 -2.21547e-05     -83.1404 
         -10        15.64 -0.000237407  -2.2436e-05     -83.1393 
         -10      15.7615 -0.000237263  -2.2693e-05     -83.1382 
         -10      15.8834 -0.000237111 -2.29242e-05     -83.1371 
         -10      16.0058 -0.000236952 -2.31311e-05     -83.1359 
         -10      16.1286 -0.000236791 -2.33167e-05     -83.1348 
         -10       16.252  -0.00023663 -2.34859e-05     -83.1336 
         -10      16.3759 -0.000236474 -2.36445e-05     -83.1324 
         -10      16.5002 -0.000236325 -2.37992e-05     -83.1312 
         -10       16.625 -0.000236187 -2.39571e-05       -83.13 
         -10      16.7501 -0.000236062 -2.41245e-05     -83.1288 
         -10      16.8759 -0.000235951 -2.43076e-05     -83.1275 
         -10       17.002 -0.000235852 -2.45103e-05     -83.1262 
         -10      17.1287 -0.000235764  -2.4735e-05      -83.125 
         -10      17.2557  -0.00023568 -2.49803e-05     -83.1237 
         -10      17.3834 -0.000235591 -2.52421e-05     -83.1223 
         -10      17.5115 -0.000235486 -2.55108e-05      -83.121 
         -10      17.6399 -0.000235347 -2.57714e-05     -83.1197 
         -10       17.769 -0.000235151  -2.6003e-05     -83.1183 
         -10      17.8984 -0.000234871 -2.61761e-05     -83.1169 
         -10      18.0284 -0.000234471 -2.62534e-05     -83.1155 
         -10      18.1587 -0.000234054 -2.59917e-05     -83.1141 
         -10      18.2896 -0.000234051 -2.65132e-05     -83.1127 
         -10       18.421 -0.000234199 -2.73252e-05     -83.1112 
         -10      18.5528 -0.000234212  -2.7404e-05     -83.1098 
         -10      18.6851 -0.000234213 -2.74476e-05     -83.1083 
         -10      18.8178 -0.000234181 -2.74896e-05     -83.1068 
         -10      18.9511 -0.000234103 -2.75539e-05     -83.1052 
         -10      19.0847  -0.00023398 -2.76554e-05     -83.1037 
         -10      19.2189 -0.000233814 -2.78021e-05     -83.1022 
         -10      19.3535 -0.000233617 -2.79958e-05     -83.1006 
         -10      19.4886 -0.000233398 -2.82341e-05      -83.099 
         -10      19.6242 -0.000233171 -2.85107e-05     -83.0974 
         -10      19.7602 -0.000232948  -2.8817e-05     -83.0958 
         -10      19.8968 -0.000232738 -2.91437e-05     -83.0941 
         -10      20.0337  -0.00023255 -2.94804e-05     -83.0925 
         -10      20.1712 -0.000232386 -2.98178e-05     -83.0908 
         -10      20.3091 -0.000232248 -3.01471e-05     -83.0891 
         -10      20.4475  -0.00023213 -3.04618e-05     -83.0874 
         -10      20.5864 -0.000232025  -3.0757e-05     -83.0856 
         -10      20.7257 -0.000231922 -3.10298e-05     -83.0839 
         -10      20.8655 -0.000231809 -3.12804e-05     -83.0821 
         -10      21.0058 -0.000231672 -3.15106e-05     -83.0803 
         -10      21.1465   -0.0002315 -3.17246e-05     -83.0785 
         -10      21.2877 -0.000231285 -3.19272e-05     -83.0767 
         -10      21.4294 -0.000231026 -3.21246e-05     -83.0748 
         -10      21.5716 -0.000230734 -3.23221e-05      -83.073 
         -10      21.7142 -0.000230432 -3.25233e-05     -83.0711 
         -10      21.8573 -0.000230164  -3.2729e-05     -83.0692 
         -10      22.0008 -0.000229998 -3.29344e-05     -83.0672 
         -10      22.1449 -0.000230034 -3.31283e-05     -83.0653 
         -10      22.2893 -0.000229772 -3.35362e-05     -83.0633 
         -10      22.4344 -0.000229723 -3.37472e-05     -83.0614 
         -10      22.5797  -0.00022982 -3.38231e-05     -83.0593 
         -10      22.7257 -0.000229932 -3.38575e-05     -83.0573 
         -10      22.8721 -0.000229962 -3.39193e-05     -83.0553 
         -10      23.0189 -0.000229849 -3.40519e-05     -83.0532 
         -10      23.1663 -0.000229572 -3.42729e-05     -83.0511 
         -10       23.314 -0.000229152 -3.45739e-05      -83.049 
         -10      23.4623  -0.00022865 -3.49228e-05     -83.0469 
         -10       23.611 -0.000228167 -3.52645e-05     -83.0448 
         -10      23.7602 -0.000227844 -3.55249e-05     -83.0426 
         -10        23.91  -0.00022786 -3.56137e-05     -83.0404 
         -10        24.06 -0.000228136 -3.56374e-05     -83.0382 
         -10      24.2107 -0.000227802 -3.61356e-05      -83.036 
         -10      24.3617 -0.000227574 -3.65317e-05     -83.0338 
         -10      24.5133  -0.00022741 -3.68698e-05     -83.0315 
         -10      24.6653 -0.000227281  -3.7181e-05     -83.0292 
         -10      24.8178 -0.000227166 -3.74863e-05     -83.0269 
         -10      24.9708  -0.00022705 -3.77963e-05     -83.0246 
         -10      25.1242 -0.000226927 -3.81124e-05     -83.0222 
         -10      25.2781 -0.000226793   -3.843e-05     -83.0199 
         -10      25.4324 -0.000226651 -3.87381e-05     -83.0175 
         -10      25.5873 -0.000226503 -3.90239e-05     -83.0151 
         -10      25.7426 -0.000226354 -3.92731e-05     -83.0126 
         -10      25.8984 -0.000226209 -3.94746e-05     -83.0102 
         -10      26.0546 -0.000226071 -3.96224e-05     -83.0077 
         -10      26.2114 -0.000225943 -3.97205e-05     -83.0052 
         -10      26.3686 -0.000225823  -3.9786e-05     -83.0027 
         -10      26.5262 -0.000225707 -3.98542e-05     -83.0002 
         -10      26.6844 -0.000225587 -3.99832e-05     -82.9976 
         -10      26.8429 -0.000225449 -4.02593e-05      -82.995 
         -10       27.002 -0.000225273 -4.07973e-05     -82.9924 
         -10      27.1615 -0.000224964  -4.0776e-05     -82.9898 
         -10      27.3216 -0.000224787 -4.08475e-05     -82.9872 
         -10      27.4821 -0.000224684 -4.09697e-05     -82.9845 
         -10       27.643 -0.000224605 -4.11128e-05     -82.9818 
         -10      27.8044 -0.000224515 -4.12583e-05     -82.9791 
         -10      27.9663 -0.000224389 -4.13953e-05     -82.9764 
         -10      28.1287 -0.000224212 -4.15198e-05     -82.9736 
         -10      28.2914 -0.000223979 -4.16318e-05     -82.9709 
         -10      28.4548 -0.000223691 -4.17344e-05     -82.9681 
         -10      28.6185 -0.000223355 -4.18316e-05     -82.9653 
         -10      28.7828 -0.000222985 -4.19279e-05     -82.9624 
         -10      28.9475   -0.0002226  -4.2026e-05     -82.9596 
         -10      29.1126 -0.000222221 -4.21271e-05     -82.9567 
         -10      29.2784 -0.000221872 -4.22298e-05     -82.9538 
         -10      29.4444 -0.000221582 -4.23296e-05     -82.9509 
         -10       29.611 -0.000221378 -4.24196e-05     -82.9479 
         -10       29.778 -0.000221289 -4.24896e-05     -82.9449 
         -10      29.9456 -0.000221346 -4.25281e-05     -82.9419 
         -10      30.1137 -0.000221579 -4.25219e-05     -82.9389 
         -10      30.2821 -0.000222016 -4.24584e-05     -82.9359 
         -10      30.4511 -0.000221216 -4.27778e-05     -82.9328 
         -10      30.6204 -0.000220602 -4.31738e-05     -82.9298 
         -10      30.7903  -0.00022016 -4.35849e-05     -82.9267 
         -10      30.9606  -0.00021985  -4.3968e-05     -82.9235 
         -10      31.1315  -0.00021964 -4.42927e-05     -82.9204 
         -10      31.3028 -0.000219505 -4.45392e-05     -82.9172 
         -10      31.4745 -0.000219421 -4.46991e-05      -82.914 
         -10      31.6468 -0.000219371  -4.4775e-05     -82.9108 
         -10      31.8194 -0.000219335 -4.47788e-05     -82.9076 
         -10      31.9926 -0.000219294 -4.47321e-05     -82.9043 
         -10      32.1662 -0.000219227 -4.46641e-05      -82.901 
         -10      32.3404 -0.000219104  -4.4611e-05     -82.8977 
         -10      32.5149 -0.000218889 -4.46142e-05     -82.8944 
         -10        32.69  -0.00021853 -4.47188e-05     -82.8911 
         -10      32.8655 -0.000217961 -4.49714e-05     -82.8877 
         -10      33.0414 -0.000217098 -4.54177e-05     -82.8843 
         -10       33.218 -0.000216867 -4.55534e-05     -82.8809 
         -10      33.3948 -0.000217063 -4.55187e-05     -82.8775 
         -10      33.5723 -0.000217243 -4.55145e-05      -82.874 
         -10        33.75 -0.000217378 -4.55226e-05     -82.8705 
         -10      33.9284 -0.000217446 -4.55341e-05      -82.867 
         -10      34.1073 -0.000217435 -4.55471e-05     -82.8635 
         -10      34.2865 -0.000217336 -4.55652e-05     -82.8599 
         -10      34.4663 -0.000217148  -4.5596e-05     -82.8564 
         -10      34.6465 -0.000216876 -4.56487e-05     -82.8528 
         -10      34.8272 -0.000216528 -4.57331e-05     -82.8491 
         -10      35.0083 -0.000216118 -4.58571e-05     -82.8455 
         -10        35.19 -0.000215662 -4.60262e-05     -82.8418 
         -10      35.3721 -0.000215182 -4.62404e-05     -82.8382 
         -10      35.5546 -0.000214699 -4.64938e-05     -82.8345 
         -10      35.7377 -0.000214236 -4.67727e-05     -82.8307 
         -10      35.9211 -0.000213818 -4.70536e-05      -82.827 
         -10      36.1052 -0.000213467 -4.73027e-05     -82.8232 
         -10      36.2895 -0.000213206 -4.74735e-05     -82.8194 
         -10      36.4745 -0.000213054 -4.75064e-05     -82.8156 
         -10      36.6598 -0.000213026 -4.73267e-05     -82.8118 
         -10      36.8457 -0.000213068 -4.71932e-05     -82.8079 
         -10      37.0321 -0.000212969 -4.78213e-05      -82.804 
         -10      37.2188  -0.00021284 -4.83375e-05     -82.8001 
         -10      37.4062 -0.000212669 -4.87564e-05     -82.7962 
         -10      37.5938 -0.000212451 -4.90913e-05     -82.7922 
         -10      37.7821 -0.000212183 -4.93566e-05     -82.7882 
         -10      37.9707 -0.000211871 -4.95655e-05     -82.7842 
         -10      38.1599 -0.000211521 -4.97308e-05     -82.7802 
         -10      38.3496 -0.000211147 -4.98627e-05     -82.7762 
         -10      38.5396 -0.000210764 -4.99695e-05     -82.7721 
         -10      38.7302 -0.000210392  -5.0056e-05      -82.768 
         -10      38.9211 -0.000210056 -5.01227e-05     -82.7639 
         -10      39.1127 -0.000209782 -5.01649e-05     -82.7598 
         -10      39.3046 -0.000209599 -5.01719e-05     -82.7557 
         -10      39.4971 -0.000209538 -5.01253e-05     -82.7515 
         -10      39.6899 -0.000209631 -4.99985e-05     -82.7473 
         -10      39.8833 -0.000209913 -4.97544e-05     -82.7431 
         -10      40.0772 -0.000210258 -4.94885e-05     -82.7388 
         -10      40.2714 -0.000209545 -5.01672e-05     -82.7346 
         -10      40.4663 -0.000208999 -5.06816e-05     -82.7303 
         -10      40.6615  -0.00020858 -5.10632e-05      -82.726 
         -10      40.8573 -0.000208256 -5.13412e-05     -82.7217 
         -10      41.0534 -0.000207999 -5.15401e-05     -82.7173 
         -10      41.2501 -0.000207784 -5.16815e-05     -82.7129 
         -10      41.4473 -0.000207594 -5.17832e-05     -82.7085 
         -10      41.6448 -0.000207412   -5.186e-05     -82.7041 
         -10      41.8429 -0.000207227 -5.19241e-05     -82.6997 
         -10      42.0414  -0.00020703 -5.19848e-05     -82.6953 
         -10      42.2405 -0.000206816 -5.20491e-05     -82.6908 
         -10      42.4399 -0.000206583 -5.21219e-05     -82.6863 
         -10      42.6399 -0.000206328  -5.2206e-05     -82.6818 
         -10      42.8404 -0.000206055 -5.23028e-05     -82.6772 
         -10      43.0412 -0.000205767 -5.24118e-05     -82.6727 
         -10      43.2426 -0.000205466 -5.25318e-05     -82.6681 
         -10      43.4444 -0.000205159 -5.26602e-05     -82.6635 
         -10      43.6467 -0.000204852 -5.27943e-05     -82.6588 
         -10      43.8494 -0.000204549 -5.29302e-05     -82.6542 
         -10      44.0527 -0.000204258 -5.30644e-05     -82.6495 
         -10      44.2563 -0.000203982  -5.3193e-05     -82.6449 
         -10      44.4606 -0.000203726 -5.33129e-05     -82.6401 
         -10      44.6653 -0.000203493 -5.34209e-05     -82.6354 
         -10      44.8704 -0.000203283 -5.35151e-05     -82.6307 
         -10       45.076 -0.000203095 -5.35945e-05     -82.6259 
         -10       45.282 -0.000202925 -5.36593e-05     -82.6211 
         -10      45.4886 -0.000202767 -5.37114e-05     -82.6163 
         -10      45.6955 -0.000202611 -5.37543e-05     -82.6115 
         -10       45.903 -0.000202443 -5.37937e-05     -82.6066 
         -10      46.1111 -0.000202244 -5.38375e-05     -82.6018 
         -10      46.3194 -0.000201993 -5.38961e-05     -82.5969 
         -10      46.5283 -0.000201661 -5.39827e-05      -82.592 
         -10      46.7376 -0.000201217 -5.41133e-05      -82.587 
         -10      46.9475 -0.000200621 -5.43077e-05     -82.5821 
         -10      47.1577  -0.00019983 -5.45881e-05     -82.5771 
         -10      47.3685 -0.000198931 -5.49304e-05     -82.5721 
         -10      47.5798 -0.000199217 -5.48949e-05     -82.5671 
         -10      47.7914 -0.000199433 -5.49433e-05     -82.5621 
         -10      48.0037 -0.000199568 -5.50509e-05      -82.557 