Variables = x, y, u, v, p

Zone, I=800, F=POINT
          20            0           -0           -0     -83.9721 
          20     0.000234 -1.82116e-06 -1.12783e-09     -83.9721 
          20     0.000939 -6.84528e-06 -4.34115e-09     -83.9721 
          20     0.002113 -1.38069e-05 -9.11665e-09     -83.9721 
          20     0.003759 -2.10556e-05 -1.47323e-08     -83.9721 
          20     0.005872 -2.70023e-05 -2.03788e-08     -83.9721 
          20     0.008457 -3.06892e-05 -2.53887e-08     -83.9721 
          20      0.01151 -3.20614e-05 -2.93298e-08     -83.9721 
          20     0.015036 -3.20377e-05 -3.21289e-08     -83.9721 
          20     0.019031  -3.2193e-05 -3.40561e-08     -83.9721 
          20     0.023493 -3.41621e-05 -3.56688e-08     -83.9721 
          20     0.028429 -3.89314e-05 -3.76836e-08     -83.9721 
          20     0.033831 -4.62733e-05 -4.08348e-08     -83.9721 
          20     0.039706 -5.47132e-05  -4.5806e-08     -83.9721 
          20     0.046047  -6.2176e-05  -5.3228e-08     -83.9721 
          20     0.052863 -6.74176e-05 -6.38218e-08     -83.9721 
          20      0.06015 -7.15051e-05 -7.84761e-08     -83.9721 
          20       0.0679 -7.78784e-05 -9.80549e-08     -83.9721 
          20     0.076126  -8.7801e-05 -1.22404e-07     -83.9721 
          20     0.084816  -9.0177e-05 -1.48903e-07     -83.9721 
          20     0.093982 -9.78475e-05  -1.8552e-07     -83.9721 
          20     0.103611 -0.000104256 -2.29906e-07     -83.9721 
          20     0.113718 -0.000109967 -2.82837e-07     -83.9721 
          20     0.124286  -0.00011536 -3.45133e-07     -83.9721 
          20     0.135333 -0.000120648 -4.17973e-07     -83.9721 
          20      0.14685 -0.000125859 -5.02453e-07     -83.9721 
          20     0.158827 -0.000130897 -5.99594e-07     -83.9721 
          20     0.171284  -0.00013563 -7.10497e-07     -83.9721 
          20     0.184201 -0.000139945 -8.35657e-07     -83.9721 
          20     0.197599 -0.000143852 -9.75665e-07     -83.9721 
          20     0.211455 -0.000147477 -1.13052e-06     -83.9721 
          20     0.225792 -0.000150986 -1.30097e-06     -83.9721 
          20       0.2406 -0.000154265  -1.4885e-06     -83.9721 
          20     0.255865 -0.000156862 -1.69447e-06     -83.9721 
          20     0.271613 -0.000159419 -1.91653e-06     -83.9721 
          20     0.287818 -0.000161675 -2.15609e-06     -83.9721 
          20     0.304506  -0.00016365 -2.41319e-06      -83.972 
          20      0.32165 -0.000165358 -2.68711e-06      -83.972 
          20     0.339278 -0.000166825 -2.97807e-06      -83.972 
          20     0.357377 -0.000168073 -3.28591e-06      -83.972 
          20      0.37593 -0.000169129 -3.61099e-06      -83.972 
          20     0.394968 -0.000170014 -3.95361e-06      -83.972 
          20     0.414461 -0.000170754 -4.31365e-06      -83.972 
          20      0.43444 -0.000171377 -4.69224e-06     -83.9719 
          20     0.454872 -0.000171907 -5.08945e-06     -83.9719 
          20     0.475791 -0.000172369 -5.50671e-06     -83.9719 
          20     0.497163 -0.000172784 -5.94419e-06     -83.9719 
          20     0.519021 -0.000173169 -6.40343e-06     -83.9718 
          20      0.54135 -0.000173535 -6.88491e-06     -83.9718 
          20     0.564131  -0.00017389  -7.3889e-06     -83.9718 
          20       0.5874 -0.000174233 -7.91667e-06     -83.9718 
          20     0.611121 -0.000174556 -8.46756e-06     -83.9717 
          20      0.63533 -0.000174841  -9.0422e-06     -83.9717 
          20      0.65999 -0.000175064 -9.63897e-06     -83.9717 
          20     0.685139 -0.000175188 -1.02575e-05     -83.9716 
          20     0.710759 -0.000175171 -1.08952e-05     -83.9716 
          20     0.736828 -0.000174991 -1.15476e-05     -83.9715 
          20     0.763387 -0.000174602 -1.22138e-05     -83.9715 
          20     0.790396 -0.000173964 -1.28889e-05     -83.9715 
          20     0.817896 -0.000173049 -1.35695e-05     -83.9714 
          20     0.845843 -0.000171835  -1.4251e-05     -83.9714 
          20     0.874283 -0.000170301 -1.49313e-05     -83.9713 
          20      0.90317  -0.00016844 -1.56068e-05     -83.9712 
          20     0.932551 -0.000166243 -1.62764e-05     -83.9712 
          20     0.962401 -0.000163716 -1.69378e-05     -83.9711 
          20     0.992697 -0.000160872 -1.75871e-05     -83.9711 
          20      1.02349 -0.000157717 -1.82213e-05      -83.971 
          20      1.05472 -0.000154276 -1.88418e-05     -83.9709 
          20      1.08645 -0.000150565 -1.94479e-05     -83.9709 
          20      1.11863 -0.000146612 -2.00363e-05     -83.9708 
          20       1.1513 -0.000142428 -2.06035e-05     -83.9707 
          20      1.18444  -0.00013807 -2.11554e-05     -83.9706 
          20      1.21802  -0.00013354 -2.16905e-05     -83.9705 
          20      1.25211 -0.000128843 -2.22025e-05     -83.9704 
          20      1.28663 -0.000124027 -2.26932e-05     -83.9704 
          20      1.32165 -0.000119111 -2.31647e-05     -83.9703 
          20      1.35712 -0.000114121 -2.36156e-05     -83.9702 
          20      1.39308  -0.00010906 -2.40454e-05     -83.9701 
          20      1.42951 -0.000103943 -2.44518e-05     -83.9699 
          20      1.46638 -9.87895e-05 -2.48324e-05     -83.9698 
          20      1.50375 -9.36053e-05 -2.51869e-05     -83.9697 
          20      1.54156 -8.84146e-05 -2.55153e-05     -83.9696 
          20      1.57987 -8.32175e-05 -2.58212e-05     -83.9695 
          20      1.61863 -7.80236e-05 -2.61023e-05     -83.9694 
          20      1.65788 -7.28426e-05 -2.63457e-05     -83.9692 
          20      1.69757  -6.7671e-05 -2.65644e-05     -83.9691 
          20      1.73776 -6.25135e-05 -2.67543e-05     -83.9689 
          20      1.77842 -5.73577e-05 -2.69133e-05     -83.9688 
          20      1.81952 -5.22464e-05 -2.70435e-05     -83.9687 
          20      1.86113 -4.71759e-05 -2.71409e-05     -83.9685 
          20      1.90316 -4.21465e-05 -2.72034e-05     -83.9683 
          20      1.94571  -3.7155e-05 -2.72307e-05     -83.9682 
          20      1.98869 -3.22249e-05 -2.72237e-05      -83.968 
          20      2.03217 -2.73708e-05 -2.71848e-05     -83.9678 
          20      2.07612 -2.26349e-05 -2.71198e-05     -83.9677 
          20      2.12051  -1.8047e-05 -2.70309e-05     -83.9675 
          20       2.1654 -1.35897e-05 -2.69141e-05     -83.9673 
          20      2.21073 -9.30758e-06  -2.6776e-05     -83.9671 
          20      2.25656  -5.2342e-06 -2.66233e-05     -83.9669 
          20      2.30283 -1.41407e-06 -2.64618e-05     -83.9667 
          20       2.3496  2.13058e-06 -2.62944e-05     -83.9665 
          20      2.39685  5.38903e-06   -2.612e-05     -83.9663 
          20      2.44452  8.38548e-06 -2.59299e-05     -83.9661 
          20      2.49271  1.11698e-05 -2.57134e-05     -83.9658 
          20      2.54132  1.36388e-05 -2.54904e-05     -83.9656 
          20      2.59044  1.58979e-05 -2.52323e-05     -83.9654 
          20         2.64  1.79601e-05 -2.49384e-05     -83.9651 
          20      2.69006  1.98499e-05 -2.46036e-05     -83.9649 
          20      2.74056  2.15896e-05 -2.42206e-05     -83.9646 
          20      2.79156  2.31866e-05 -2.37823e-05     -83.9644 
          20      2.84304  2.46718e-05 -2.32876e-05     -83.9641 
          20      2.89494  2.60555e-05 -2.27383e-05     -83.9639 
          20      2.94735  2.73395e-05 -2.21381e-05     -83.9636 
          20       3.0002  2.85152e-05 -2.14942e-05     -83.9633 
          20      3.05355  2.95751e-05 -2.08139e-05      -83.963 
          20      3.10733  3.05071e-05 -2.01072e-05     -83.9627 
          20      3.16163  3.13033e-05 -1.93833e-05     -83.9624 
          20      3.21639  3.19559e-05 -1.86538e-05     -83.9621 
          20      3.27158  3.24595e-05 -1.79312e-05     -83.9618 
          20      3.32729  3.28118e-05 -1.72279e-05     -83.9615 
          20      3.38342  3.30087e-05 -1.65607e-05     -83.9612 
          20      3.44007  3.30531e-05  -1.5928e-05     -83.9609 
          20      3.49714  3.29705e-05 -1.53391e-05     -83.9606 
          20      3.55472  3.27546e-05 -1.47985e-05     -83.9602 
          20      3.61273  3.24145e-05 -1.43071e-05     -83.9599 
          20      3.67125  3.19693e-05 -1.38623e-05     -83.9595 
          20      3.73025  3.14438e-05 -1.34617e-05     -83.9592 
          20      3.78967  3.08629e-05 -1.31028e-05     -83.9588 
          20      3.84961   3.0246e-05 -1.27826e-05     -83.9585 
          20      3.90996  2.96084e-05 -1.24989e-05     -83.9581 
          20      3.97084  2.89569e-05 -1.22476e-05     -83.9577 
          20      4.03214  2.82962e-05 -1.20235e-05     -83.9574 
          20      4.09395  2.76291e-05 -1.18154e-05      -83.957 
          20      4.15624   2.6968e-05 -1.16052e-05     -83.9566 
          20      4.21895   2.6279e-05 -1.14013e-05     -83.9562 
          20      4.28217    2.556e-05 -1.12323e-05     -83.9558 
          20      4.34582  2.50207e-05 -1.10515e-05     -83.9554 
          20      4.40998  2.43812e-05 -1.08677e-05      -83.955 
          20      4.47457  2.37258e-05 -1.06924e-05     -83.9546 
          20      4.53968   2.3098e-05 -1.05286e-05     -83.9542 
          20      4.60525  2.25145e-05 -1.03746e-05     -83.9537 
          20      4.67125  2.19734e-05 -1.02268e-05     -83.9533 
          20      4.73777  2.14618e-05 -1.00806e-05     -83.9529 
          20       4.8047  2.09659e-05 -9.93312e-06     -83.9524 
          20      4.87216  2.04736e-05 -9.78348e-06      -83.952 
          20      4.94003  1.99813e-05 -9.63359e-06     -83.9515 
          20      5.00843  1.94924e-05 -9.48687e-06     -83.9511 
          20      5.07724  1.90194e-05  -9.3476e-06     -83.9506 
          20      5.14658  1.85757e-05 -9.21741e-06     -83.9502 
          20      5.21639  1.81715e-05 -9.09224e-06     -83.9497 
          20      5.28661  1.77999e-05 -8.95679e-06     -83.9492 
          20      5.35736  1.74202e-05 -8.77748e-06     -83.9487 
          20      5.42852  1.70315e-05 -8.53784e-06     -83.9482 
          20      5.50021  1.66773e-05 -8.37752e-06     -83.9478 
          20      5.57231  1.63211e-05 -8.29805e-06     -83.9473 
          20      5.64493  1.59743e-05 -8.10111e-06     -83.9468 
          20      5.71803  1.56166e-05   -7.836e-06     -83.9463 
          20      5.79154  1.52527e-05 -7.58407e-06     -83.9458 
          20      5.86558  1.48751e-05 -7.34646e-06     -83.9453 
          20      5.94003  1.44851e-05 -7.12068e-06     -83.9447 
          20      6.01501  1.40877e-05 -6.90151e-06     -83.9442 
          20       6.0904  1.36914e-05  -6.6844e-06     -83.9437 
          20      6.16632  1.33033e-05 -6.46564e-06     -83.9432 
          20      6.24271  1.29296e-05  -6.2447e-06     -83.9426 
          20       6.3195  1.25736e-05 -6.02415e-06     -83.9421 
          20      6.39683  1.22343e-05   -5.809e-06     -83.9416 
          20      6.47457  1.19086e-05 -5.60692e-06      -83.941 
          20      6.55284  1.15901e-05 -5.42517e-06     -83.9405 
          20      6.63152  1.12734e-05  -5.2691e-06     -83.9399 
          20      6.71073   1.0955e-05 -5.13721e-06     -83.9394 
          20      6.79034  1.06399e-05 -5.01719e-06     -83.9388 
          20      6.87049  1.02831e-05 -4.91131e-06     -83.9382 
          20      6.95111  1.00246e-05  -4.7881e-06     -83.9377 
          20      7.03214  9.78023e-06 -4.68048e-06     -83.9371 
          20       7.1137  9.51408e-06 -4.60204e-06     -83.9365 
          20      7.19566  9.23152e-06 -4.54903e-06     -83.9359 
          20      7.27816  8.95224e-06 -4.50914e-06     -83.9354 
          20      7.36106  8.69035e-06 -4.47282e-06     -83.9348 
          20      7.44451  8.44502e-06 -4.40142e-06     -83.9342 
          20      7.52842    8.147e-06  -4.3038e-06     -83.9336 
          20      7.61273  7.80244e-06  -4.1986e-06      -83.933 
          20      7.69758  7.43349e-06 -4.09864e-06     -83.9324 
          20      7.78283  7.06049e-06 -4.02122e-06     -83.9318 
          20      7.86862  6.69759e-06 -3.97799e-06     -83.9312 
          20      7.95481  6.35434e-06  -3.9637e-06     -83.9306 
          20      8.04155   6.0343e-06 -3.94189e-06       -83.93 
          20      8.12868  5.73978e-06 -3.82863e-06     -83.9293 
          20      8.21635   5.3785e-06 -3.77048e-06     -83.9287 
          20      8.30449  5.03007e-06 -3.80254e-06     -83.9281 
          20      8.39303  4.76056e-06  -3.7612e-06     -83.9275 
          20      8.48211  4.53761e-06 -3.68159e-06     -83.9268 
          20      8.57159  4.33825e-06 -3.59018e-06     -83.9262 
          20      8.66161  4.14665e-06 -3.50486e-06     -83.9256 
          20      8.75203  3.95454e-06 -3.43604e-06     -83.9249 
          20      8.84299   3.7589e-06 -3.38705e-06     -83.9243 
          20      8.93443  3.56178e-06 -3.35558e-06     -83.9236 
          20      9.02626  3.36839e-06 -3.33482e-06      -83.923 
          20      9.11863  3.18494e-06 -3.31504e-06     -83.9223 
          20      9.21139  3.01785e-06 -3.28559e-06     -83.9217 
          20      9.30471  2.87043e-06 -3.23694e-06      -83.921 
          20      9.39841  2.74157e-06 -3.16342e-06     -83.9203 
          20      9.49267  2.62215e-06 -3.06573e-06     -83.9197 
          20      9.58739   2.4928e-06 -2.95461e-06      -83.919 
          20      9.68251  2.32044e-06 -2.85433e-06     -83.9183 
          20      9.77817  2.05421e-06 -2.80652e-06     -83.9177 
          20      9.87422  1.81207e-06 -2.74805e-06      -83.917 
          20      9.97083  1.67224e-06 -2.68316e-06     -83.9163 
          20      10.0678  1.43191e-06 -2.84534e-06     -83.9156 
          20      10.1654  1.09888e-06  -2.6071e-06     -83.9149 
          20      10.2633  8.03704e-07 -2.33818e-06     -83.9142 
          20      10.3618  5.64975e-07 -2.18456e-06     -83.9135 
          20      10.4607  3.85296e-07 -2.11096e-06     -83.9128 
          20      10.5601  2.57926e-07 -2.08669e-06     -83.9121 
          20        10.66  1.68339e-07 -2.08551e-06     -83.9114 
          20      10.7603 -1.35631e-08 -2.18486e-06     -83.9107 
          20      10.8611 -2.31672e-07 -2.24472e-06       -83.91 
          20      10.9623  -4.4121e-07 -2.22294e-06     -83.9093 
          20      11.0641 -6.46126e-07 -2.14005e-06     -83.9085 
          20      11.1663 -8.50409e-07 -2.02076e-06     -83.9078 
          20       11.269 -1.05745e-06 -1.89045e-06     -83.9071 
          20      11.3721 -1.26964e-06 -1.77168e-06     -83.9064 
          20      11.4757 -1.48659e-06 -1.68234e-06     -83.9056 
          20      11.5798 -1.70615e-06 -1.63306e-06     -83.9049 
          20      11.6844 -1.92309e-06 -1.62644e-06     -83.9041 
          20      11.7894 -2.13082e-06 -1.65624e-06     -83.9034 
          20       11.895   -2.321e-06  -1.7078e-06     -83.9027 
          20      12.0009 -2.48533e-06 -1.75909e-06     -83.9019 
          20      12.1073  -2.6176e-06  -1.7831e-06     -83.9011 
          20      12.2142 -2.71504e-06 -1.75084e-06     -83.9004 
          20      12.3216 -2.78197e-06 -1.63575e-06     -83.8996 
          20      12.4294 -2.83252e-06 -1.41961e-06     -83.8989 
          20      12.5378 -2.88782e-06 -1.65957e-06     -83.8981 
          20      12.6465 -2.98516e-06 -1.91973e-06     -83.8973 
          20      12.7558 -3.10287e-06 -2.05986e-06     -83.8965 
          20      12.8656 -3.22278e-06 -2.12966e-06     -83.8958 
          20      12.9757 -3.33669e-06 -2.16635e-06      -83.895 
          20      13.0864  -3.4449e-06 -2.19664e-06     -83.8942 
          20      13.1975 -3.55379e-06 -2.23871e-06     -83.8934 
          20      13.3092  -3.6748e-06 -2.30465e-06     -83.8926 
          20      13.4212 -3.82204e-06  -2.4024e-06     -83.8918 
          20      13.5338 -4.01153e-06 -2.53847e-06      -83.891 
          20      13.6468 -4.25888e-06 -2.71973e-06     -83.8902 
          20      13.7603 -4.31462e-06  -2.8117e-06     -83.8894 
          20      13.8743 -4.36004e-06 -2.85794e-06     -83.8885 
          20      13.9886 -4.43161e-06 -2.88794e-06     -83.8877 
          20      14.1036 -4.52694e-06 -2.91859e-06     -83.8869 
          20      14.2189 -4.64061e-06 -2.96502e-06     -83.8861 
          20      14.3348 -4.76389e-06 -3.03471e-06     -83.8852 
          20       14.451 -4.88389e-06 -3.11995e-06     -83.8844 
          20      14.5678 -4.98441e-06 -3.18958e-06     -83.8835 
          20      14.6851 -5.04616e-06 -3.17855e-06     -83.8827 
          20      14.8028 -5.04843e-06 -2.97684e-06     -83.8818 
          20       14.921 -4.99699e-06 -2.93246e-06      -83.881 
          20      15.0396 -5.00543e-06 -3.02602e-06     -83.8801 
          20      15.1588 -5.06916e-06 -3.05336e-06     -83.8793 
          20      15.2783  -5.1658e-06 -3.04114e-06     -83.8784 
          20      15.3984 -5.27635e-06  -2.9913e-06     -83.8775 
          20       15.519 -5.38821e-06 -2.89789e-06     -83.8766 
          20        15.64 -5.49961e-06  -2.7663e-06     -83.8757 
          20      15.7615 -5.65826e-06 -2.95992e-06     -83.8749 
          20      15.8834 -5.77172e-06 -3.06583e-06      -83.874 
          20      16.0058  -5.8361e-06 -3.07809e-06     -83.8731 
          20      16.1286 -5.86108e-06 -3.04963e-06     -83.8722 
          20       16.252 -5.85984e-06 -3.02447e-06     -83.8713 
          20      16.3759 -5.84823e-06 -3.03526e-06     -83.8703 
          20      16.5002 -5.84379e-06 -3.10147e-06     -83.8694 
          20       16.625 -5.86386e-06 -3.22888e-06     -83.8685 
          20      16.7501 -5.92307e-06 -3.40932e-06     -83.8676 
          20      16.8759 -6.03027e-06 -3.62269e-06     -83.8666 
          20       17.002 -6.18406e-06 -3.83829e-06     -83.8657 
          20      17.1287  -6.3685e-06 -4.01967e-06     -83.8647 
          20      17.2557 -6.54639e-06  -4.1283e-06     -83.8638 
          20      17.3834 -6.65345e-06 -4.13088e-06     -83.8628 
          20      17.5115 -6.58943e-06 -4.00641e-06     -83.8619 
          20      17.6399 -6.39691e-06 -3.89374e-06     -83.8609 
          20       17.769 -6.43587e-06 -3.97419e-06     -83.8599 
          20      17.8984 -6.42196e-06 -3.96841e-06     -83.8589 
          20      18.0284 -6.38773e-06 -3.91959e-06     -83.8579 
          20      18.1587 -6.35691e-06 -3.85522e-06      -83.857 
          20      18.2896 -6.34424e-06 -3.78887e-06      -83.856 
          20       18.421 -6.35559e-06 -3.72358e-06      -83.855 
          20      18.5528 -6.38784e-06 -3.65581e-06     -83.8539 
          20      18.6851 -6.42909e-06 -3.58049e-06     -83.8529 
          20      18.8178 -6.45862e-06 -3.49786e-06     -83.8519 
          20      18.9511 -6.44722e-06 -3.42067e-06     -83.8509 
          20      19.0847 -6.35735e-06 -3.38373e-06     -83.8498 
          20      19.2189 -6.14321e-06 -3.45405e-06     -83.8488 
          20      19.3535 -6.14617e-06 -3.15127e-06     -83.8478 
          20      19.4886 -6.20584e-06 -2.98356e-06     -83.8467 
          20      19.6242 -6.30539e-06 -2.92481e-06     -83.8456 
          20      19.7602 -6.43063e-06 -2.94149e-06     -83.8446 
          20      19.8968 -6.56759e-06 -3.00093e-06     -83.8435 
          20      20.0337 -6.70284e-06 -3.07222e-06     -83.8424 
          20      20.1712  -6.8255e-06 -3.12824e-06     -83.8413 
          20      20.3091 -6.92799e-06 -3.14773e-06     -83.8402 
          20      20.4475 -7.00846e-06 -3.11871e-06     -83.8391 
          20      20.5864 -7.07226e-06 -3.04232e-06      -83.838 
          20      20.7257 -7.13457e-06 -2.93771e-06     -83.8369 
          20      20.8655 -7.22316e-06 -2.84736e-06     -83.8358 
          20      21.0058  -7.3809e-06  -2.8441e-06     -83.8347 
          20      21.1465 -7.66986e-06 -3.03843e-06     -83.8335 
          20      21.2877 -8.17371e-06 -3.58664e-06     -83.8324 
          20      21.4294 -7.97671e-06 -3.20178e-06     -83.8312 
          20      21.5716 -7.81113e-06 -2.95094e-06     -83.8301 
          20      21.7142 -7.71274e-06 -2.84362e-06     -83.8289 
          20      21.8573 -7.66489e-06 -2.82375e-06     -83.8277 
          20      22.0008 -7.65349e-06 -2.84842e-06     -83.8266 
          20      22.1449 -7.66647e-06 -2.88602e-06     -83.8254 
          20      22.2893  -7.6938e-06 -2.91464e-06     -83.8242 
          20      22.4344 -7.72732e-06 -2.92069e-06      -83.823 
          20      22.5797 -7.76056e-06 -2.89731e-06     -83.8218 
          20      22.7257 -7.78867e-06 -2.84307e-06     -83.8205 
          20      22.8721 -7.80818e-06 -2.76068e-06     -83.8193 
          20      23.0189  -7.8169e-06 -2.65589e-06     -83.8181 
          20      23.1663 -7.81379e-06 -2.53598e-06     -83.8168 
          20       23.314 -7.79877e-06 -2.40937e-06     -83.8156 
          20      23.4623 -7.77256e-06 -2.28403e-06     -83.8143 
          20       23.611 -7.73659e-06  -2.1675e-06     -83.8131 
          20      23.7602 -7.69272e-06 -2.06545e-06     -83.8118 
          20        23.91 -7.64325e-06 -1.98191e-06     -83.8105 
          20        24.06 -7.59071e-06 -1.91859e-06     -83.8092 
          20      24.2107 -7.53753e-06 -1.87467e-06     -83.8079 
          20      24.3617 -7.48625e-06 -1.84713e-06     -83.8066 
          20      24.5133 -7.43898e-06  -1.8307e-06     -83.8053 
          20      24.6653  -7.3976e-06 -1.81851e-06      -83.804 
          20      24.8178 -7.36334e-06 -1.80259e-06     -83.8026 
          20      24.9708 -7.33683e-06 -1.77485e-06     -83.8013 
          20      25.1242 -7.31789e-06 -1.72825e-06     -83.7999 
          20      25.2781 -7.30537e-06 -1.65802e-06     -83.7986 
          20      25.4324  -7.2971e-06 -1.56368e-06     -83.7972 
          20      25.5873 -7.28968e-06 -1.45052e-06     -83.7958 
          20      25.7426 -7.27846e-06 -1.33245e-06     -83.7944 
          20      25.8984 -7.25732e-06 -1.23399e-06     -83.7931 
          20      26.0546 -7.21873e-06 -1.19379e-06     -83.7917 
          20      26.2114 -7.17183e-06 -1.29232e-06     -83.7902 
          20      26.3686  -7.2386e-06  -1.5488e-06     -83.7888 
          20      26.5262 -7.41172e-06 -1.80614e-06     -83.7874 
          20      26.6844 -7.68751e-06 -1.98983e-06     -83.7859 
          20      26.8429 -7.53684e-06 -1.82076e-06     -83.7845 
          20       27.002 -7.46675e-06 -1.73625e-06      -83.783 
          20      27.1615 -7.45289e-06 -1.73547e-06     -83.7816 
          20      27.3216 -7.45142e-06  -1.8026e-06     -83.7801 
          20      27.4821 -7.43572e-06 -1.87569e-06     -83.7786 
          20       27.643 -7.44557e-06 -1.85093e-06     -83.7771 
          20      27.8044 -7.47372e-06 -1.83208e-06     -83.7756 
          20      27.9663 -7.51739e-06   -1.812e-06     -83.7741 
          20      28.1287 -7.57329e-06 -1.78583e-06     -83.7726 
          20      28.2914 -7.63762e-06 -1.75082e-06      -83.771 
          20      28.4548 -7.70658e-06 -1.70581e-06     -83.7695 
          20      28.6185 -7.77614e-06 -1.65121e-06     -83.7679 
          20      28.7828 -7.84266e-06 -1.58837e-06     -83.7664 
          20      28.9475 -7.90261e-06 -1.51962e-06     -83.7648 
          20      29.1126 -7.95294e-06 -1.44793e-06     -83.7632 
          20      29.2784 -7.99126e-06 -1.37643e-06     -83.7616 
          20      29.4444  -8.0157e-06 -1.30863e-06       -83.76 
          20       29.611  -8.0252e-06 -1.24779e-06     -83.7584 
          20       29.778 -8.01944e-06 -1.19713e-06     -83.7568 
          20      29.9456 -7.99889e-06 -1.15935e-06     -83.7552 
          20      30.1137 -7.96489e-06  -1.1368e-06     -83.7535 
          20      30.2821 -7.91959e-06 -1.13121e-06     -83.7519 
          20      30.4511 -7.86579e-06 -1.14367e-06     -83.7502 
          20      30.6204 -7.80713e-06 -1.17462e-06     -83.7485 
          20      30.7903 -7.74764e-06 -1.22391e-06     -83.7468 
          20      30.9606 -7.69198e-06  -1.2907e-06     -83.7451 
          20      31.1315 -7.64489e-06 -1.37379e-06     -83.7434 
          20      31.3028 -7.61132e-06 -1.47145e-06     -83.7417 
          20      31.4745 -7.59598e-06 -1.58171e-06       -83.74 
          20      31.6468 -7.60309e-06 -1.70284e-06     -83.7383 
          20      31.8194 -7.63609e-06 -1.83303e-06     -83.7365 
          20      31.9926 -7.69732e-06 -1.97143e-06     -83.7348 
          20      32.1662  -7.7874e-06 -2.11771e-06      -83.733 
          20      32.3404 -7.90518e-06 -2.27336e-06     -83.7312 
          20      32.5149 -7.96248e-06 -2.30882e-06     -83.7294 
          20        32.69 -8.01607e-06 -2.23662e-06     -83.7276 
          20      32.8655 -8.04408e-06 -2.11131e-06     -83.7258 
          20      33.0414 -8.03117e-06 -1.97318e-06      -83.724 
          20       33.218 -7.97518e-06 -1.85425e-06     -83.7222 
          20      33.3948 -7.88423e-06 -1.77856e-06     -83.7203 
          20      33.5723 -7.77348e-06 -1.76118e-06     -83.7185 
          20        33.75 -7.66284e-06 -1.80848e-06     -83.7166 
          20      33.9284 -7.57362e-06 -1.91819e-06     -83.7147 
          20      34.1073 -7.52654e-06 -2.07958e-06     -83.7128 
          20      34.2865 -7.53894e-06 -2.27396e-06     -83.7109 
          20      34.4663 -7.62258e-06 -2.47617e-06      -83.709 
          20      34.6465 -7.78141e-06  -2.6546e-06     -83.7071 
          20      34.8272 -8.01007e-06 -2.77374e-06     -83.7052 
          20      35.0083 -8.29121e-06 -2.79483e-06     -83.7033 
          20        35.19 -8.59527e-06 -2.67849e-06     -83.7013 
          20      35.3721 -8.87769e-06 -2.38672e-06     -83.6993 
          20      35.5546 -8.56335e-06 -2.19262e-06     -83.6974 
          20      35.7377 -8.08261e-06 -2.18363e-06     -83.6954 
          20      35.9211 -7.73488e-06 -2.23628e-06     -83.6934 
          20      36.1052 -7.50315e-06 -2.33387e-06     -83.6914 
          20      36.2895 -7.37164e-06 -2.45978e-06     -83.6894 
          20      36.4745 -7.32425e-06  -2.5984e-06     -83.6873 
          20      36.6598 -7.34537e-06 -2.73488e-06     -83.6853 
          20      36.8457 -7.41957e-06 -2.85641e-06     -83.6832 
          20      37.0321 -7.53156e-06 -2.95197e-06     -83.6812 
          20      37.2188 -7.66608e-06 -3.01338e-06     -83.6791 
          20      37.4062 -7.80835e-06  -3.0359e-06      -83.677 
          20      37.5938 -7.94332e-06 -3.01869e-06     -83.6749 
          20      37.7821 -8.05645e-06 -2.96559e-06     -83.6728 
          20      37.9707 -8.13294e-06 -2.88607e-06     -83.6707 
          20      38.1599 -8.15837e-06 -2.79565e-06     -83.6685 
          20      38.3496  -8.1182e-06 -2.71722e-06     -83.6664 
          20      38.5396 -7.99819e-06 -2.68171e-06     -83.6642 
          20      38.7302 -7.78388e-06 -2.72905e-06     -83.6621 
          20      38.9211 -7.46145e-06 -2.90921e-06     -83.6599 
          20      39.1127 -7.10697e-06 -3.15368e-06     -83.6577 
          20      39.3046 -7.01419e-06 -3.03726e-06     -83.6555 
          20      39.4971  -6.9862e-06 -2.84571e-06     -83.6533 
          20      39.6899 -7.01139e-06 -2.62084e-06     -83.6511 
          20      39.8833 -7.07789e-06 -2.39628e-06     -83.6488 
          20      40.0772 -7.17352e-06 -2.19805e-06     -83.6466 
          20      40.2714 -7.28583e-06 -2.04369e-06     -83.6443 
          20      40.4663 -7.40272e-06  -1.9421e-06      -83.642 
          20      40.6615 -7.51205e-06 -1.89461e-06     -83.6398 
          20      40.8573 -7.60283e-06 -1.89518e-06     -83.6375 
          20      41.0534 -7.66502e-06 -1.93172e-06     -83.6352 
          20      41.2501 -7.69078e-06 -1.98764e-06     -83.6328 
          20      41.4473 -7.67485e-06 -2.04347e-06     -83.6305 
          20      41.6448 -7.61574e-06 -2.07936e-06     -83.6282 
          20      41.8429 -7.51652e-06 -2.07777e-06     -83.6258 
          20      42.0414 -7.38643e-06  -2.0266e-06     -83.6235 
          20      42.2405 -7.24161e-06 -1.92275e-06     -83.6211 
          20      42.4399  -7.1074e-06 -1.77658e-06     -83.6187 
          20      42.6399 -7.01918e-06 -1.61592e-06     -83.6163 
          20      42.8404 -7.02498e-06 -1.49205e-06     -83.6139 
          20      43.0412 -7.18687e-06 -1.48486e-06     -83.6115 
          20      43.2426 -7.47748e-06 -1.70301e-06      -83.609 
          20      43.4444 -7.65163e-06 -1.93546e-06     -83.6066 
          20      43.6467 -7.75817e-06 -2.08734e-06     -83.6041 
          20      43.8494 -7.81056e-06 -2.16851e-06     -83.6017 
          20      44.0527 -7.82099e-06 -2.18917e-06     -83.5992 
          20      44.2563 -7.80007e-06 -2.15923e-06     -83.5967 
          20      44.4606 -7.75702e-06 -2.08829e-06     -83.5942 
          20      44.6653 -7.69977e-06 -1.98566e-06     -83.5917 
          20      44.8704 -7.63508e-06 -1.86022e-06     -83.5891 
          20       45.076 -7.56837e-06 -1.71997e-06     -83.5866 
          20       45.282 -7.50419e-06  -1.5726e-06      -83.584 
          20      45.4886  -7.4459e-06 -1.42463e-06     -83.5815 
          20      45.6955 -7.39611e-06 -1.28218e-06     -83.5789 
          20       45.903 -7.35645e-06 -1.15005e-06     -83.5763 
          20      46.1111 -7.32788e-06 -1.03245e-06     -83.5737 
          20      46.3194  -7.3107e-06   -9.326e-07     -83.5711 
          20      46.5283 -7.30454e-06 -8.52535e-07     -83.5685 
          20      46.7376 -7.30858e-06 -7.93603e-07     -83.5659 
          20      46.9475 -7.32155e-06 -7.55995e-07     -83.5632 
          20      47.1577 -7.34182e-06 -7.39153e-07     -83.5606 
          20      47.3685 -7.36754e-06 -7.41578e-07     -83.5579 
          20      47.5798 -7.39664e-06 -7.61037e-07     -83.5552 
          20      47.7914 -7.42692e-06 -7.94549e-07     -83.5526 
          20      48.0037 -7.45624e-06 -8.38638e-07     -83.5499 