Variables = x, y, u, v, p

Zone, I=800, F=POINT
          -5            0            0            0     -35.8772 
          -5     0.000234 -6.97666e-08  3.27199e-10     -35.8772 
          -5     0.000939 -8.34832e-08  1.25432e-09     -35.8772 
          -5     0.002113  4.69443e-07  2.62428e-09     -35.8772 
          -5     0.003759  2.20343e-06  4.24938e-09     -35.8772 
          -5     0.005872  5.54667e-06  5.97894e-09     -35.8772 
          -5     0.008457  1.05113e-05  7.79763e-09     -35.8772 
          -5      0.01151  1.65412e-05  9.86604e-09     -35.8772 
          -5     0.015036  2.26143e-05  1.25482e-08     -35.8772 
          -5     0.019031   2.7496e-05  1.63599e-08     -35.8772 
          -5     0.023493  3.02084e-05    2.189e-08     -35.8772 
          -5     0.028429  3.04803e-05  2.97085e-08     -35.8772 
          -5     0.033831  2.90023e-05  4.02465e-08     -35.8772 
          -5     0.039706  2.72765e-05  5.38241e-08     -35.8772 
          -5     0.046047  2.69095e-05  7.06736e-08     -35.8772 
          -5     0.052863  2.84529e-05  9.11815e-08     -35.8772 
          -5      0.06015  3.03847e-05  1.15979e-07     -35.8772 
          -5       0.0679   2.9621e-05  1.45867e-07     -35.8772 
          -5     0.076126  2.61993e-05  1.81098e-07     -35.8772 
          -5     0.084816  3.15405e-05  2.19203e-07     -35.8772 
          -5     0.093982  2.94649e-05  2.65152e-07     -35.8772 
          -5     0.103611  2.90572e-05  3.19177e-07     -35.8772 
          -5     0.113718  2.94184e-05  3.78237e-07     -35.8772 
          -5     0.124286  2.99096e-05  4.41164e-07     -35.8772 
          -5     0.135333  3.01811e-05  5.08766e-07     -35.8772 
          -5      0.14685  3.01496e-05  5.82771e-07     -35.8772 
          -5     0.158827  2.99303e-05  6.64952e-07     -35.8772 
          -5     0.171284  2.97236e-05  7.56191e-07     -35.8772 
          -5     0.184201  2.96837e-05  8.55077e-07     -35.8772 
          -5     0.197599  2.98059e-05  9.58372e-07     -35.8772 
          -5     0.211455  2.98952e-05  1.06191e-06     -35.8773 
          -5     0.225792  2.97082e-05  1.16562e-06     -35.8773 
          -5       0.2406  2.93944e-05   1.2817e-06     -35.8773 
          -5     0.255865  2.96585e-05  1.42457e-06     -35.8773 
          -5     0.271613  2.96366e-05  1.55748e-06     -35.8773 
          -5     0.287818  2.96541e-05  1.69523e-06     -35.8773 
          -5     0.304506  2.97143e-05  1.83682e-06     -35.8773 
          -5      0.32165  2.98177e-05  1.98181e-06     -35.8773 
          -5     0.339278  2.99647e-05  2.13029e-06     -35.8773 
          -5     0.357377  3.01552e-05  2.28203e-06     -35.8773 
          -5      0.37593  3.03882e-05  2.43682e-06     -35.8773 
          -5     0.394968  3.06632e-05  2.59483e-06     -35.8773 
          -5     0.414461  3.09781e-05  2.75578e-06     -35.8773 
          -5      0.43444  3.13315e-05  2.91992e-06     -35.8773 
          -5     0.454872  3.17205e-05  3.08698e-06     -35.8773 
          -5     0.475791  3.21429e-05  3.25726e-06     -35.8773 
          -5     0.497163  3.25946e-05   3.4305e-06     -35.8773 
          -5     0.519021  3.30726e-05  3.60703e-06     -35.8773 
          -5      0.54135  3.35726e-05  3.78673e-06     -35.8773 
          -5     0.564131  3.40894e-05  3.96946e-06     -35.8773 
          -5       0.5874  3.46191e-05  4.15549e-06     -35.8773 
          -5     0.611121  3.51556e-05  4.34445e-06     -35.8773 
          -5      0.63533  3.56944e-05   4.5365e-06     -35.8773 
          -5      0.65999  3.62289e-05  4.73114e-06     -35.8774 
          -5     0.685139  3.67542e-05   4.9284e-06     -35.8774 
          -5     0.710759  3.72638e-05  5.12775e-06     -35.8774 
          -5     0.736828  3.77516e-05  5.32854e-06     -35.8774 
          -5     0.763387  3.82124e-05  5.53052e-06     -35.8774 
          -5     0.790396  3.86397e-05  5.73272e-06     -35.8774 
          -5     0.817896  3.90286e-05  5.93469e-06     -35.8774 
          -5     0.845843  3.93733e-05  6.13532e-06     -35.8774 
          -5     0.874283  3.96695e-05  6.33412e-06     -35.8774 
          -5      0.90317  3.99122e-05  6.53003e-06     -35.8774 
          -5     0.932551  4.00979e-05  6.72271e-06     -35.8775 
          -5     0.962401  4.02229e-05  6.91159e-06     -35.8775 
          -5     0.992697  4.02845e-05  7.09649e-06     -35.8775 
          -5      1.02349  4.02806e-05   7.2782e-06     -35.8775 
          -5      1.05472  4.02097e-05  7.45766e-06     -35.8775 
          -5      1.08645  4.00709e-05  7.63738e-06     -35.8775 
          -5      1.11863  3.98639e-05   7.8206e-06     -35.8776 
          -5       1.1513  3.95971e-05  8.00441e-06     -35.8776 
          -5      1.18444  3.92864e-05  8.15977e-06     -35.8776 
          -5      1.21802  3.89051e-05  8.31808e-06     -35.8776 
          -5      1.25211  3.84732e-05   8.4764e-06     -35.8776 
          -5      1.28663  3.80057e-05  8.63174e-06     -35.8776 
          -5      1.32165  3.75101e-05  8.78209e-06     -35.8777 
          -5      1.35712  3.69909e-05  8.92539e-06     -35.8777 
          -5      1.39308   3.6447e-05  9.06055e-06     -35.8777 
          -5      1.42951  3.58761e-05  9.18656e-06     -35.8777 
          -5      1.46638  3.52744e-05  9.30289e-06     -35.8778 
          -5      1.50375  3.46366e-05  9.40967e-06     -35.8778 
          -5      1.54156  3.39605e-05    9.507e-06     -35.8778 
          -5      1.57987  3.32441e-05  9.59558e-06     -35.8778 
          -5      1.61863   3.2491e-05    9.676e-06     -35.8779 
          -5      1.65788  3.17068e-05  9.74917e-06     -35.8779 
          -5      1.69757  3.09045e-05  9.81569e-06     -35.8779 
          -5      1.73776  3.00998e-05  9.87618e-06      -35.878 
          -5      1.77842  2.93155e-05  9.93071e-06      -35.878 
          -5      1.81952  2.85729e-05  9.98772e-06      -35.878 
          -5      1.86113   2.7911e-05  1.00412e-05     -35.8781 
          -5      1.90316  2.73634e-05  1.00887e-05     -35.8781 
          -5      1.94571  2.69585e-05  1.01306e-05     -35.8781 
          -5      1.98869  2.67177e-05  1.01689e-05     -35.8782 
          -5      2.03217  2.66465e-05  1.02091e-05     -35.8782 
          -5      2.07612  2.67274e-05  1.02613e-05     -35.8782 
          -5      2.12051   2.6951e-05  1.03199e-05     -35.8783 
          -5       2.1654  2.73466e-05  1.03775e-05     -35.8783 
          -5      2.21073  2.78904e-05  1.04451e-05     -35.8783 
          -5      2.25656  2.85716e-05  1.05229e-05     -35.8784 
          -5      2.30283  2.93714e-05  1.06141e-05     -35.8784 
          -5       2.3496  3.02675e-05  1.07246e-05     -35.8785 
          -5      2.39685  3.12673e-05  1.08112e-05     -35.8785 
          -5      2.44452    3.234e-05  1.08746e-05     -35.8786 
          -5      2.49271  3.34291e-05  1.09506e-05     -35.8786 
          -5      2.54132  3.45065e-05  1.10293e-05     -35.8786 
          -5      2.59044  3.55469e-05  1.11007e-05     -35.8787 
          -5         2.64   3.6522e-05  1.11546e-05     -35.8787 
          -5      2.69006  3.74077e-05  1.11812e-05     -35.8788 
          -5      2.74056   3.8179e-05  1.11717e-05     -35.8788 
          -5      2.79156  3.88163e-05  1.11181e-05     -35.8789 
          -5      2.84304  3.93016e-05  1.10138e-05     -35.8789 
          -5      2.89494  3.96215e-05  1.08539e-05      -35.879 
          -5      2.94735  3.97685e-05  1.06345e-05      -35.879 
          -5       3.0002  3.97394e-05  1.03537e-05     -35.8791 
          -5      3.05355  3.95372e-05  1.00102e-05     -35.8791 
          -5      3.10733  3.91713e-05   9.6045e-06     -35.8792 
          -5      3.16163  3.86565e-05  9.13609e-06     -35.8792 
          -5      3.21639  3.80142e-05  8.60498e-06     -35.8793 
          -5      3.27158  3.72719e-05  8.00979e-06     -35.8794 
          -5      3.32729  3.64602e-05  7.34476e-06     -35.8794 
          -5      3.38342  3.55634e-05  6.64784e-06     -35.8795 
          -5      3.44007  3.45902e-05  5.93711e-06     -35.8795 
          -5      3.49714  3.36613e-05   5.1664e-06     -35.8796 
          -5      3.55472  3.28022e-05  4.36218e-06     -35.8796 
          -5      3.61273   3.2026e-05  3.55147e-06     -35.8797 
          -5      3.67125  3.13286e-05  2.75406e-06     -35.8797 
          -5      3.73025  3.06962e-05  1.98525e-06     -35.8798 
          -5      3.78967  3.01049e-05  1.25351e-06     -35.8799 
          -5      3.84961  2.95238e-05  5.60068e-07     -35.8799 
          -5      3.90996  2.89221e-05 -9.40246e-08       -35.88 
          -5      3.97084  2.83956e-05  -8.3721e-07       -35.88 
          -5      4.03214  2.79527e-05 -1.47992e-06     -35.8801 
          -5      4.09395  2.75667e-05 -2.06954e-06     -35.8802 
          -5      4.15624  2.72198e-05  -2.6346e-06     -35.8802 
          -5      4.21895  2.68997e-05 -3.18802e-06     -35.8803 
          -5      4.28217  2.65983e-05 -3.73283e-06     -35.8803 
          -5      4.34582  2.63119e-05 -4.26349e-06     -35.8804 
          -5      4.40998  2.60387e-05 -4.77312e-06     -35.8804 
          -5      4.47457  2.57796e-05 -5.25346e-06     -35.8805 
          -5      4.53968  2.55354e-05 -5.70081e-06     -35.8805 
          -5      4.60525  2.53077e-05 -6.11507e-06     -35.8806 
          -5      4.67125  2.50979e-05 -6.50195e-06     -35.8807 
          -5      4.73777  2.49063e-05 -6.87346e-06     -35.8807 
          -5       4.8047  2.47329e-05 -7.24433e-06     -35.8808 
          -5      4.87216  2.45765e-05 -7.63129e-06     -35.8808 
          -5      4.94003  2.44365e-05 -8.04598e-06     -35.8809 
          -5      5.00843   2.4312e-05 -8.49077e-06     -35.8809 
          -5      5.07724  2.42049e-05 -8.94733e-06      -35.881 
          -5      5.14658  2.41197e-05 -9.36819e-06      -35.881 
          -5      5.21639  2.40175e-05 -9.65437e-06     -35.8811 
          -5      5.28661  2.39468e-05 -9.82538e-06     -35.8811 
          -5      5.35736    2.378e-05 -1.01389e-05     -35.8812 
          -5      5.42852  2.36731e-05  -1.0503e-05     -35.8812 
          -5      5.50021  2.35971e-05  -1.0839e-05     -35.8813 
          -5      5.57231  2.35476e-05 -1.11175e-05     -35.8813 
          -5      5.64493  2.35073e-05 -1.13645e-05     -35.8813 
          -5      5.71803  2.34665e-05 -1.15939e-05     -35.8814 
          -5      5.79154  2.34213e-05 -1.18118e-05     -35.8814 
          -5      5.86558  2.33721e-05 -1.20188e-05     -35.8815 
          -5      5.94003  2.33221e-05 -1.22116e-05     -35.8815 
          -5      6.01501   2.3276e-05 -1.23862e-05     -35.8815 
          -5       6.0904  2.32386e-05  -1.2538e-05     -35.8816 
          -5      6.16632   2.3214e-05 -1.26652e-05     -35.8816 
          -5      6.24271   2.3205e-05 -1.27679e-05     -35.8816 
          -5       6.3195  2.32117e-05 -1.28493e-05     -35.8816 
          -5      6.39683  2.32323e-05 -1.29159e-05     -35.8817 
          -5      6.47457  2.32621e-05 -1.29758e-05     -35.8817 
          -5      6.55284  2.32948e-05 -1.30376e-05     -35.8817 
          -5      6.63152  2.33226e-05 -1.31081e-05     -35.8817 
          -5      6.71073  2.33379e-05 -1.31886e-05     -35.8817 
          -5      6.79034  2.33351e-05 -1.32706e-05     -35.8818 
          -5      6.87049  2.33128e-05 -1.33306e-05     -35.8818 
          -5      6.95111  2.32768e-05 -1.33229e-05     -35.8818 
          -5      7.03214  2.32458e-05 -1.31898e-05     -35.8818 
          -5       7.1137  2.32487e-05 -1.33459e-05     -35.8818 
          -5      7.19566  2.32255e-05 -1.33844e-05     -35.8818 
          -5      7.27816  2.31925e-05 -1.33424e-05     -35.8818 
          -5      7.36106  2.31597e-05 -1.32493e-05     -35.8818 
          -5      7.44451  2.31327e-05 -1.31282e-05     -35.8818 
          -5      7.52842  2.31132e-05 -1.29969e-05     -35.8818 
          -5      7.61273  2.31006e-05 -1.28691e-05     -35.8818 
          -5      7.69758  2.30925e-05 -1.27547e-05     -35.8818 
          -5      7.78283  2.30865e-05 -1.26611e-05     -35.8817 
          -5      7.86862    2.308e-05 -1.25929e-05     -35.8817 
          -5      7.95481  2.30713e-05 -1.25524e-05     -35.8817 
          -5      8.04155  2.30599e-05 -1.25387e-05     -35.8817 
          -5      8.12868  2.30466e-05 -1.25478e-05     -35.8816 
          -5      8.21635  2.30333e-05 -1.25713e-05     -35.8816 
          -5      8.30449   2.3023e-05 -1.25945e-05     -35.8816 
          -5      8.39303  2.30185e-05  -1.2595e-05     -35.8815 
          -5      8.48211  2.30221e-05   -1.254e-05     -35.8815 
          -5      8.57159  2.30466e-05 -1.24962e-05     -35.8815 
          -5      8.66161  2.31478e-05 -1.25025e-05     -35.8814 
          -5      8.75203  2.33064e-05 -1.24489e-05     -35.8814 
          -5      8.84299  2.34783e-05 -1.23485e-05     -35.8813 
          -5      8.93443  2.35982e-05 -1.22885e-05     -35.8812 
          -5      9.02626  2.35737e-05  -1.2452e-05     -35.8812 
          -5      9.11863  2.36475e-05 -1.24199e-05     -35.8811 
          -5      9.21139  2.37591e-05 -1.23042e-05      -35.881 
          -5      9.30471  2.37766e-05 -1.23371e-05      -35.881 
          -5      9.39841  2.37299e-05 -1.24582e-05     -35.8809 
          -5      9.49267  2.36443e-05 -1.26309e-05     -35.8808 
          -5      9.58739  2.35417e-05 -1.28375e-05     -35.8807 
          -5      9.68251  2.34455e-05 -1.30446e-05     -35.8806 
          -5      9.77817  2.34035e-05 -1.30525e-05     -35.8805 
          -5      9.87422  2.33874e-05 -1.30187e-05     -35.8804 
          -5      9.97083  2.33868e-05  -1.2961e-05     -35.8803 
          -5      10.0678  2.33927e-05 -1.28989e-05     -35.8802 
          -5      10.1654  2.33984e-05 -1.28507e-05     -35.8801 
          -5      10.2633     2.34e-05 -1.28301e-05       -35.88 
          -5      10.3618  2.33962e-05  -1.2844e-05     -35.8799 
          -5      10.4607  2.33883e-05 -1.28913e-05     -35.8798 
          -5      10.5601  2.33796e-05 -1.29621e-05     -35.8796 
          -5        10.66  2.33745e-05 -1.30383e-05     -35.8795 
          -5      10.7603  2.33769e-05 -1.30945e-05     -35.8794 
          -5      10.8611  2.33884e-05 -1.31016e-05     -35.8792 
          -5      10.9623   2.3406e-05 -1.30298e-05     -35.8791 
          -5      11.0641  2.34189e-05 -1.28544e-05     -35.8789 
          -5      11.1663  2.34052e-05 -1.25625e-05     -35.8788 
          -5       11.269  2.34547e-05 -1.23046e-05     -35.8786 
          -5      11.3721  2.36653e-05  -1.2334e-05     -35.8784 
          -5      11.4757  2.37611e-05 -1.23501e-05     -35.8783 
          -5      11.5798  2.37744e-05 -1.23423e-05     -35.8781 
          -5      11.6844  2.37329e-05  -1.2305e-05     -35.8779 
          -5      11.7894  2.36604e-05 -1.22375e-05     -35.8777 
          -5       11.895  2.35768e-05 -1.21429e-05     -35.8775 
          -5      12.0009  2.34983e-05 -1.20273e-05     -35.8773 
          -5      12.1073  2.34374e-05 -1.18991e-05     -35.8771 
          -5      12.2142  2.34035e-05 -1.17682e-05     -35.8769 
          -5      12.3216  2.34025e-05  -1.1644e-05     -35.8767 
          -5      12.4294  2.34379e-05 -1.15354e-05     -35.8765 
          -5      12.5378  2.35102e-05  -1.1448e-05     -35.8763 
          -5      12.6465  2.36178e-05  -1.1384e-05      -35.876 
          -5      12.7558   2.3757e-05 -1.13394e-05     -35.8758 
          -5      12.8656  2.37819e-05 -1.16023e-05     -35.8756 
          -5      12.9757  2.38035e-05 -1.18299e-05     -35.8753 
          -5      13.0864  2.38282e-05 -1.19752e-05     -35.8751 
          -5      13.1975  2.38461e-05 -1.20329e-05     -35.8748 
          -5      13.3092  2.38462e-05 -1.20074e-05     -35.8746 
          -5      13.4212  2.38176e-05 -1.19129e-05     -35.8743 
          -5      13.5338  2.37501e-05 -1.17738e-05      -35.874 
          -5      13.6468  2.36363e-05  -1.1625e-05     -35.8737 
          -5      13.7603  2.34729e-05 -1.15098e-05     -35.8735 
          -5      13.8743  2.32622e-05  -1.1479e-05     -35.8732 
          -5      13.9886   2.3015e-05  -1.1588e-05     -35.8729 
          -5      14.1036  2.27519e-05 -1.18943e-05     -35.8726 
          -5      14.2189   2.2768e-05 -1.19232e-05     -35.8723 
          -5      14.3348  2.30638e-05 -1.14202e-05      -35.872 
          -5       14.451  2.32377e-05 -1.11053e-05     -35.8716 
          -5      14.5678  2.33319e-05 -1.09321e-05     -35.8713 
          -5      14.6851  2.33785e-05 -1.08592e-05      -35.871 
          -5      14.8028  2.34016e-05 -1.08496e-05     -35.8706 
          -5       14.921  2.34183e-05 -1.08711e-05     -35.8703 
          -5      15.0396  2.34398e-05 -1.08971e-05       -35.87 
          -5      15.1588  2.34729e-05 -1.09067e-05     -35.8696 
          -5      15.2783  2.35206e-05 -1.08844e-05     -35.8692 
          -5      15.3984  2.35835e-05 -1.08206e-05     -35.8689 
          -5       15.519  2.36606e-05 -1.07112e-05     -35.8685 
          -5        15.64  2.37499e-05  -1.0558e-05     -35.8681 
          -5      15.7615    2.385e-05  -1.0367e-05     -35.8677 
          -5      15.8834  2.39594e-05 -1.01497e-05     -35.8673 
          -5      16.0058  2.40783e-05 -9.92059e-06     -35.8669 
          -5      16.1286   2.4139e-05  -9.8415e-06     -35.8665 
          -5       16.252  2.41376e-05 -9.84143e-06     -35.8661 
          -5      16.3759  2.41106e-05 -9.82726e-06     -35.8657 
          -5      16.5002  2.40636e-05 -9.79716e-06     -35.8653 
          -5       16.625  2.40044e-05 -9.74771e-06     -35.8649 
          -5      16.7501  2.39425e-05 -9.67518e-06     -35.8644 
          -5      16.8759  2.38874e-05 -9.57656e-06      -35.864 
          -5       17.002  2.38481e-05 -9.45169e-06     -35.8635 
          -5      17.1287  2.38308e-05 -9.30463e-06     -35.8631 
          -5      17.2557  2.38378e-05 -9.14674e-06     -35.8626 
          -5      17.3834  2.38652e-05 -8.99847e-06     -35.8621 
          -5      17.5115  2.39013e-05 -8.89334e-06     -35.8616 
          -5      17.6399  2.39236e-05 -8.88082e-06     -35.8612 
          -5       17.769  2.38972e-05 -9.03041e-06     -35.8607 
          -5      17.8984  2.34903e-05 -8.87891e-06     -35.8602 
          -5      18.0284  2.33179e-05 -8.69913e-06     -35.8597 
          -5      18.1587  2.33177e-05 -8.53043e-06     -35.8592 
          -5      18.2896  2.33981e-05 -8.36726e-06     -35.8586 
          -5       18.421  2.34912e-05  -8.2084e-06     -35.8581 
          -5      18.5528   2.3551e-05 -8.05673e-06     -35.8576 
          -5      18.6851  2.35505e-05   -7.919e-06      -35.857 
          -5      18.8178  2.34796e-05 -7.80683e-06     -35.8565 
          -5      18.9511  2.33425e-05 -7.73611e-06     -35.8559 
          -5      19.0847  2.31555e-05  -7.7278e-06     -35.8554 
          -5      19.2189  2.30577e-05 -7.73725e-06     -35.8548 
          -5      19.3535  2.31485e-05 -7.68116e-06     -35.8542 
          -5      19.4886  2.32183e-05 -7.64503e-06     -35.8536 
          -5      19.6242  2.32619e-05 -7.61314e-06     -35.8531 
          -5      19.7602  2.32791e-05 -7.57717e-06     -35.8525 
          -5      19.8968  2.32744e-05 -7.53561e-06     -35.8518 
          -5      20.0337  2.32567e-05 -7.49298e-06     -35.8512 
          -5      20.1712  2.32379e-05 -7.45819e-06     -35.8506 
          -5      20.3091  2.32317e-05 -7.44276e-06       -35.85 
          -5      20.4475  2.32514e-05 -7.45813e-06     -35.8494 
          -5      20.5864  2.33082e-05 -7.51273e-06     -35.8487 
          -5      20.7257  2.34073e-05 -7.60798e-06     -35.8481 
          -5      20.8655  2.35454e-05 -7.73439e-06     -35.8474 
          -5      21.0058  2.37057e-05 -7.86583e-06     -35.8467 
          -5      21.1465  2.38546e-05 -7.95446e-06     -35.8461 
          -5      21.2877  2.39345e-05  -7.9235e-06     -35.8454 
          -5      21.4294  2.38596e-05  -7.6601e-06     -35.8447 
          -5      21.5716  2.35079e-05 -7.00695e-06      -35.844 
          -5      21.7142  2.30943e-05 -7.10902e-06     -35.8433 
          -5      21.8573  2.29327e-05 -7.27918e-06     -35.8426 
          -5      22.0008   2.2929e-05 -7.27112e-06     -35.8419 
          -5      22.1449  2.30179e-05 -7.13152e-06     -35.8412 
          -5      22.2893  2.31483e-05 -6.90677e-06     -35.8404 
          -5      22.4344  2.32814e-05 -6.64112e-06     -35.8397 
          -5      22.5797  2.33887e-05 -6.37721e-06     -35.8389 
          -5      22.7257  2.34498e-05 -6.15415e-06     -35.8382 
          -5      22.8721  2.34504e-05 -6.00895e-06     -35.8374 
          -5      23.0189  2.33795e-05 -5.97603e-06     -35.8366 
          -5      23.1663  2.32271e-05  -6.0882e-06     -35.8359 
          -5       23.314  2.29811e-05 -6.37792e-06     -35.8351 
          -5      23.4623  2.27729e-05 -6.70694e-06     -35.8343 
          -5       23.611   2.3084e-05 -6.40054e-06     -35.8335 
          -5      23.7602  2.32768e-05 -6.13515e-06     -35.8327 
          -5        23.91   2.3372e-05 -5.91028e-06     -35.8318 
          -5        24.06  2.33915e-05 -5.72364e-06      -35.831 
          -5      24.2107  2.33566e-05 -5.57135e-06     -35.8302 
          -5      24.3617  2.32881e-05 -5.44939e-06     -35.8293 
          -5      24.5133  2.32051e-05 -5.35285e-06     -35.8285 
          -5      24.6653  2.31242e-05 -5.27697e-06     -35.8276 
          -5      24.8178  2.30592e-05  -5.2165e-06     -35.8268 
          -5      24.9708  2.30197e-05 -5.16609e-06     -35.8259 
          -5      25.1242  2.30107e-05 -5.11984e-06      -35.825 
          -5      25.2781  2.30314e-05 -5.07076e-06     -35.8241 
          -5      25.4324  2.30744e-05 -5.01049e-06     -35.8232 
          -5      25.5873  2.31249e-05 -4.92816e-06     -35.8223 
          -5      25.7426  2.31594e-05 -4.80986e-06     -35.8214 
          -5      25.8984  2.31449e-05 -4.63689e-06     -35.8204 
          -5      26.0546  2.30378e-05  -4.3852e-06     -35.8195 
          -5      26.2114  2.29849e-05 -4.36989e-06     -35.8186 
          -5      26.3686  2.29882e-05 -4.43463e-06     -35.8176 
          -5      26.5262  2.29633e-05 -4.38852e-06     -35.8167 
          -5      26.6844  2.29295e-05 -4.27111e-06     -35.8157 
          -5      26.8429  2.28995e-05 -4.11362e-06     -35.8147 
          -5       27.002  2.28802e-05  -3.9392e-06     -35.8137 
          -5      27.1615  2.28741e-05 -3.76482e-06     -35.8127 
          -5      27.3216  2.28805e-05 -3.60116e-06     -35.8117 
          -5      27.4821  2.28961e-05  -3.4544e-06     -35.8107 
          -5       27.643  2.29165e-05 -3.32669e-06     -35.8097 
          -5      27.8044  2.29366e-05 -3.21674e-06     -35.8087 
          -5      27.9663  2.29514e-05 -3.12137e-06     -35.8077 
          -5      28.1287  2.29567e-05 -3.03556e-06     -35.8066 
          -5      28.2914  2.29495e-05 -2.95388e-06     -35.8056 
          -5      28.4548  2.29285e-05 -2.87067e-06     -35.8045 
          -5      28.6185  2.28941e-05 -2.78129e-06     -35.8034 
          -5      28.7828  2.28482e-05 -2.68221e-06     -35.8024 
          -5      28.9475  2.27949e-05 -2.57216e-06     -35.8013 
          -5      29.1126  2.27393e-05  -2.4525e-06     -35.8002 
          -5      29.2784  2.26877e-05 -2.32741e-06     -35.7991 
          -5      29.4444  2.26464e-05 -2.20504e-06      -35.798 
          -5       29.611  2.26212e-05 -2.09713e-06     -35.7969 
          -5       29.778  2.26164e-05 -2.02008e-06     -35.7957 
          -5      29.9456   2.2633e-05 -1.99458e-06     -35.7946 
          -5      30.1137  2.26676e-05  -2.0463e-06     -35.7934 
          -5      30.2821  2.27105e-05 -2.20555e-06     -35.7923 
          -5      30.4511  2.27415e-05 -2.47908e-06     -35.7911 
          -5      30.6204  2.27067e-05 -2.25425e-06       -35.79 
          -5      30.7903  2.26618e-05 -2.08201e-06     -35.7888 
          -5      30.9606  2.26109e-05 -1.94912e-06     -35.7876 
          -5      31.1315  2.25579e-05 -1.84406e-06     -35.7864 
          -5      31.3028  2.25071e-05 -1.75836e-06     -35.7852 
          -5      31.4745   2.2463e-05 -1.68666e-06      -35.784 
          -5      31.6468  2.24307e-05   -1.627e-06     -35.7827 
          -5      31.8194  2.24161e-05 -1.58166e-06     -35.7815 
          -5      31.9926  2.24259e-05 -1.55713e-06     -35.7803 
          -5      32.1662  2.24677e-05 -1.56472e-06      -35.779 
          -5      32.3404  2.25507e-05 -1.62081e-06     -35.7778 
          -5      32.5149  2.26853e-05 -1.74702e-06     -35.7765 
          -5        32.69  2.28838e-05 -1.97092e-06     -35.7752 
          -5      32.8655  2.27393e-05 -1.83009e-06     -35.7739 
          -5      33.0414  2.24036e-05 -1.43927e-06     -35.7726 
          -5       33.218  2.22047e-05  -1.1744e-06     -35.7713 
          -5      33.3948  2.21105e-05 -1.00905e-06       -35.77 
          -5      33.5723  2.20927e-05 -9.20246e-07     -35.7687 
          -5        33.75  2.21274e-05 -8.89176e-07     -35.7674 
          -5      33.9284  2.21945e-05 -9.00168e-07      -35.766 
          -5      34.1073  2.22773e-05 -9.40573e-07     -35.7647 
          -5      34.2865  2.23624e-05  -1.0002e-06     -35.7633 
          -5      34.4663  2.24397e-05 -1.07118e-06      -35.762 
          -5      34.6465  2.25014e-05 -1.14728e-06     -35.7606 
          -5      34.8272  2.25425e-05 -1.22398e-06     -35.7592 
          -5      35.0083  2.25598e-05 -1.29767e-06     -35.7578 
          -5        35.19  2.25523e-05 -1.36585e-06     -35.7564 
          -5      35.3721  2.25205e-05 -1.42643e-06      -35.755 
          -5      35.5546  2.24662e-05 -1.47767e-06     -35.7536 
          -5      35.7377  2.23923e-05 -1.51806e-06     -35.7522 
          -5      35.9211  2.23028e-05 -1.54584e-06     -35.7508 
          -5      36.1052   2.2202e-05 -1.55908e-06     -35.7493 
          -5      36.2895  2.20948e-05 -1.55539e-06     -35.7479 
          -5      36.4745  2.19862e-05 -1.53186e-06     -35.7464 
          -5      36.6598  2.18811e-05 -1.48502e-06     -35.7449 
          -5      36.8457  2.17841e-05 -1.41065e-06     -35.7435 
          -5      37.0321  2.16996e-05 -1.30399e-06      -35.742 
          -5      37.2188   2.1631e-05  -1.1598e-06     -35.7405 
          -5      37.4062  2.15812e-05 -9.71947e-07      -35.739 
          -5      37.5938  2.15519e-05 -7.34455e-07     -35.7375 
          -5      37.7821   2.1544e-05 -4.40453e-07     -35.7359 
          -5      37.9707  2.15568e-05 -8.39364e-08     -35.7344 
          -5      38.1599  2.17322e-05 -1.88009e-07     -35.7329 
          -5      38.3496  2.18482e-05 -2.76751e-07     -35.7313 
          -5      38.5396   2.1911e-05 -3.48502e-07     -35.7298 
          -5      38.7302  2.19287e-05 -4.02543e-07     -35.7282 
          -5      38.9211  2.19101e-05 -4.37613e-07     -35.7266 
          -5      39.1127  2.18649e-05 -4.52255e-07      -35.725 
          -5      39.3046   2.1803e-05 -4.44607e-07     -35.7235 
          -5      39.4971   2.1734e-05 -4.12495e-07     -35.7219 
          -5      39.6899  2.16667e-05 -3.53497e-07     -35.7202 
          -5      39.8833  2.16086e-05 -2.64734e-07     -35.7186 
          -5      40.0772  2.15649e-05 -1.43156e-07      -35.717 
          -5      40.2714  2.15381e-05  1.44807e-08     -35.7154 
          -5      40.4663  2.15268e-05  2.12099e-07     -35.7137 
          -5      40.6615  2.15251e-05  4.53336e-07     -35.7121 
          -5      40.8573  2.15212e-05  7.42817e-07     -35.7104 
          -5      41.0534  2.14382e-05  8.82281e-07     -35.7088 
          -5      41.2501  2.14051e-05  9.26416e-07     -35.7071 
          -5      41.4473  2.14287e-05  9.15825e-07     -35.7054 
          -5      41.6448  2.14759e-05  8.48848e-07     -35.7037 
          -5      41.8429  2.15079e-05  7.35543e-07      -35.702 
          -5      42.0414  2.14801e-05  5.98459e-07     -35.7003 
          -5      42.2405  2.13421e-05  4.72311e-07     -35.6986 
          -5      42.4399  2.11294e-05  5.05096e-07     -35.6968 
          -5      42.6399  2.11638e-05   8.8829e-07     -35.6951 
          -5      42.8404  2.11774e-05  1.18171e-06     -35.6934 
          -5      43.0412  2.11734e-05  1.39941e-06     -35.6916 
          -5      43.2426  2.11551e-05  1.55476e-06     -35.6898 
          -5      43.4444  2.11252e-05  1.65933e-06     -35.6881 
          -5      43.6467  2.10862e-05    1.724e-06     -35.6863 
          -5      43.8494  2.10405e-05  1.75822e-06     -35.6845 
          -5      44.0527    2.099e-05  1.77051e-06     -35.6827 
          -5      44.2563  2.09365e-05  1.76826e-06     -35.6809 
          -5      44.4606  2.08815e-05  1.75784e-06     -35.6791 
          -5      44.6653  2.08264e-05  1.74462e-06     -35.6773 
          -5      44.8704  2.07722e-05  1.73304e-06     -35.6754 
          -5       45.076  2.07199e-05  1.72656e-06     -35.6736 
          -5       45.282  2.06702e-05  1.72783e-06     -35.6718 
          -5      45.4886  2.06237e-05  1.73866e-06     -35.6699 
          -5      45.6955  2.05807e-05  1.76009e-06     -35.6681 
          -5       45.903  2.05417e-05  1.79247e-06     -35.6662 
          -5      46.1111  2.05067e-05  1.83549e-06     -35.6643 
          -5      46.3194  2.04758e-05  1.88821e-06     -35.6624 
          -5      46.5283   2.0449e-05   1.9493e-06     -35.6605 
          -5      46.7376  2.04262e-05  2.01684e-06     -35.6586 
          -5      46.9475  2.04073e-05  2.08871e-06     -35.6567 
          -5      47.1577  2.03921e-05  2.16234e-06     -35.6548 
          -5      47.3685  2.03804e-05  2.23516e-06     -35.6529 
          -5      47.5798  2.03719e-05  2.30434e-06      -35.651 
          -5      47.7914  2.03666e-05  2.36707e-06      -35.649 
          -5      48.0037  2.03643e-05  2.42078e-06     -35.6471 