Variables = x, y, u, v, p

Zone, I=800, F=POINT
         800            0           -0           -0      1.55453 
         800     0.000234 -5.92172e-06  4.84555e-11      1.55453 
         800     0.000939 -2.20612e-05  7.83686e-10      1.55453 
         800     0.002113 -4.37295e-05  3.96867e-09      1.55453 
         800     0.003759 -6.46569e-05  1.25495e-08      1.55453 
         800     0.005872 -7.85552e-05  3.05817e-08      1.55453 
         800     0.008457 -8.10831e-05  6.33203e-08      1.55453 
         800      0.01151 -7.09674e-05   1.1703e-07      1.55453 
         800     0.015036 -5.03936e-05  1.99189e-07      1.55453 
         800     0.019031 -2.42889e-05  3.18113e-07      1.55453 
         800     0.023493  1.49339e-06  4.83048e-07      1.55453 
         800     0.028429  2.24908e-05  7.04489e-07      1.55453 
         800     0.033831  3.74471e-05  9.93096e-07      1.55453 
         800     0.039706  4.90353e-05  1.36095e-06      1.55453 
         800     0.046047  6.21733e-05  1.81989e-06      1.55453 
         800     0.052863   8.0242e-05  2.38335e-06      1.55453 
         800      0.06015  0.000100422  3.06417e-06      1.55453 
         800       0.0679  0.000112747  3.87476e-06      1.55453 
         800     0.076126   0.00011169  4.82973e-06      1.55453 
         800     0.084816  0.000125062  5.94079e-06      1.55453 
         800     0.093982  0.000124416  7.22226e-06      1.55453 
         800     0.103611  0.000122355  8.68461e-06      1.55453 
         800     0.113718  0.000117675  1.03417e-05      1.55453 
         800     0.124286  0.000109531  1.22016e-05      1.55453 
         800     0.135333  9.74414e-05  1.42773e-05      1.55453 
         800      0.14685  8.13099e-05  1.65759e-05      1.55453 
         800     0.158827  6.13346e-05  1.91027e-05      1.55453 
         800     0.171284  3.78174e-05   2.1868e-05      1.55453 
         800     0.184201  1.11327e-05  2.48721e-05      1.55453 
         800     0.197599 -1.85541e-05   2.8123e-05      1.55453 
         800     0.211455 -5.11487e-05  3.16169e-05      1.55453 
         800     0.225792 -8.66659e-05  3.53596e-05      1.55453 
         800       0.2406 -0.000124541  3.93475e-05      1.55453 
         800     0.255865 -0.000163609  4.35738e-05      1.55453 
         800     0.271613 -0.000204613  4.80418e-05      1.55453 
         800     0.287818 -0.000246592  5.27389e-05      1.55453 
         800     0.304506 -0.000289241  5.76661e-05      1.55453 
         800      0.32165 -0.000332112  6.28081e-05      1.55453 
         800     0.339278 -0.000374902  6.81651e-05      1.55453 
         800     0.357377 -0.000417217  7.37244e-05      1.55453 
         800      0.37593 -0.000458675  7.94716e-05      1.55453 
         800     0.394968 -0.000499025  8.54068e-05      1.55453 
         800     0.414461 -0.000537912   9.1511e-05      1.55453 
         800      0.43444 -0.000575137  9.77842e-05      1.55453 
         800     0.454872 -0.000610415  0.000104207      1.55453 
         800     0.475791 -0.000643614   0.00011078      1.55453 
         800     0.497163 -0.000674528  0.000117485      1.55453 
         800     0.519021 -0.000703087  0.000124324      1.55453 
         800      0.54135 -0.000729178  0.000131284      1.55453 
         800     0.564131 -0.000752718  0.000138353      1.55453 
         800       0.5874 -0.000773698  0.000145536      1.55453 
         800     0.611121 -0.000792049  0.000152819      1.55453 
         800      0.63533 -0.000807837  0.000160209      1.55453 
         800      0.65999 -0.000821052  0.000167682      1.55453 
         800     0.685139 -0.000831752  0.000175249      1.55453 
         800     0.710759 -0.000839973  0.000182904      1.55453 
         800     0.736828 -0.000845764  0.000190639      1.55453 
         800     0.763387 -0.000849198  0.000198466      1.55453 
         800     0.790396  -0.00085034   0.00020637      1.55453 
         800     0.817896  -0.00084927  0.000214362      1.55453 
         800     0.845843  -0.00084608  0.000222427      1.55453 
         800     0.874283  -0.00084086  0.000230576      1.55453 
         800      0.90317 -0.000833728  0.000238791      1.55453 
         800     0.932551 -0.000824786  0.000247083      1.55453 
         800     0.962401 -0.000814169  0.000255441      1.55453 
         800     0.992697 -0.000802023  0.000263853      1.55453 
         800      1.02349 -0.000788477  0.000272328      1.55453 
         800      1.05472 -0.000773709  0.000280845      1.55453 
         800      1.08645 -0.000757865  0.000289413      1.55453 
         800      1.11863 -0.000741147  0.000298011      1.55453 
         800       1.1513 -0.000723713  0.000306644      1.55453 
         800      1.18444 -0.000705771  0.000315297      1.55453 
         800      1.21802 -0.000687532  0.000323955      1.55453 
         800      1.25211 -0.000669165   0.00033262      1.55453 
         800      1.28663 -0.000650899  0.000341268      1.55453 
         800      1.32165 -0.000632892  0.000349902      1.55453 
         800      1.35712  -0.00061535  0.000358496      1.55453 
         800      1.39308 -0.000598401   0.00036705      1.55453 
         800      1.42951 -0.000582185  0.000375543      1.55453 
         800      1.46638 -0.000566797  0.000383954      1.55453 
         800      1.50375 -0.000552239   0.00039228      1.55453 
         800      1.54156 -0.000538144  0.000400567      1.55453 
         800      1.57987  -0.00052523  0.000408754      1.55453 
         800      1.61863 -0.000513391  0.000416821      1.55453 
         800      1.65788 -0.000502444  0.000424779      1.55453 
         800      1.69757 -0.000492254  0.000432612      1.55453 
         800      1.73776 -0.000482661  0.000440331      1.55453 
         800      1.77842 -0.000473539  0.000447927      1.55453 
         800      1.81952 -0.000464774   0.00045539      1.55453 
         800      1.86113 -0.000456243  0.000462729      1.55453 
         800      1.90316  -0.00044786  0.000469927      1.55453 
         800      1.94571 -0.000439527  0.000476991      1.55453 
         800      1.98869 -0.000431183  0.000483907      1.55453 
         800      2.03217 -0.000422754  0.000490678      1.55453 
         800      2.07612 -0.000414195  0.000497295      1.55453 
         800      2.12051 -0.000405475  0.000503747      1.55453 
         800       2.1654 -0.000396552  0.000510036      1.55454 
         800      2.21073 -0.000387422  0.000516148      1.55454 
         800      2.25656 -0.000378062  0.000522085      1.55454 
         800      2.30283 -0.000368487   0.00052783      1.55454 
         800       2.3496 -0.000358688  0.000533387      1.55454 
         800      2.39685 -0.000348688  0.000538742      1.55454 
         800      2.44452 -0.000338513  0.000543886      1.55454 
         800      2.49271 -0.000328172  0.000548819      1.55454 
         800      2.54132 -0.000317707  0.000553525      1.55454 
         800      2.59044  -0.00030713  0.000558006      1.55454 
         800         2.64 -0.000296487  0.000562248      1.55454 
         800      2.69006 -0.000285789   0.00056625      1.55454 
         800      2.74056 -0.000275081  0.000570001      1.55454 
         800      2.79156  -0.00026437    0.0005735      1.55454 
         800      2.84304 -0.000253686  0.000576738      1.55454 
         800      2.89494 -0.000243055  0.000579709      1.55454 
         800      2.94735 -0.000232473  0.000582412      1.55454 
         800       3.0002 -0.000221966  0.000584839      1.55454 
         800      3.05355 -0.000211523  0.000586991      1.55454 
         800      3.10733 -0.000201162  0.000588862      1.55455 
         800      3.16163 -0.000190868  0.000590452      1.55455 
         800      3.21639 -0.000180651  0.000591759      1.55455 
         800      3.27158 -0.000170521  0.000592782      1.55455 
         800      3.32729 -0.000160474  0.000593521      1.55455 
         800      3.38342 -0.000150546  0.000593977      1.55455 
         800      3.44007 -0.000140757  0.000594151      1.55455 
         800      3.49714 -0.000131181  0.000594044      1.55455 
         800      3.55472  -0.00012189  0.000593659      1.55455 
         800      3.61273 -0.000113026  0.000592997      1.55455 
         800      3.67125 -0.000104749  0.000592061      1.55455 
         800      3.73025 -9.73011e-05  0.000590851      1.55455 
         800      3.78967 -8.91893e-05  0.000589344      1.55456 
         800      3.84961 -8.07491e-05   0.00058757      1.55456 
         800      3.90996 -7.27463e-05  0.000585554      1.55456 
         800      3.97084  -6.5159e-05  0.000583301      1.55456 
         800      4.03214 -5.79901e-05   0.00058082      1.55456 
         800      4.09395 -5.12191e-05  0.000578114      1.55456 
         800      4.15624 -4.48423e-05  0.000575194      1.55456 
         800      4.21895  -3.8855e-05  0.000572068      1.55456 
         800      4.28217 -3.32384e-05   0.00056874      1.55456 
         800      4.34582 -2.79919e-05  0.000565223      1.55457 
         800      4.40998 -2.30976e-05  0.000561519      1.55457 
         800      4.47457 -1.85541e-05  0.000557642      1.55457 
         800      4.53968 -1.43444e-05  0.000553595      1.55457 
         800      4.60525 -1.04629e-05  0.000549389      1.55457 
         800      4.67125 -6.90286e-06  0.000545037      1.55457 
         800      4.73777 -3.64912e-06  0.000540539      1.55457 
         800       4.8047 -6.97386e-07  0.000535912      1.55457 
         800      4.87216  1.96647e-06  0.000531157      1.55457 
         800      4.94003  4.34765e-06  0.000526292      1.55458 
         800      5.00843  6.45943e-06  0.000521316      1.55458 
         800      5.07724  8.30777e-06  0.000516248      1.55458 
         800      5.14658  9.90513e-06  0.000511088      1.55458 
         800      5.21639  1.12593e-05  0.000505849      1.55458 
         800      5.28661  1.23789e-05  0.000500544      1.55458 
         800      5.35736  1.32752e-05  0.000495174      1.55458 
         800      5.42852  1.39562e-05  0.000489756      1.55458 
         800      5.50021  1.44323e-05   0.00048429      1.55459 
         800      5.57231  1.47122e-05  0.000478794      1.55459 
         800      5.64493   1.4806e-05  0.000473268      1.55459 
         800      5.71803  1.48473e-05  0.000467627      1.55459 
         800      5.79154  1.47179e-05  0.000461974      1.55459 
         800      5.86558  1.44239e-05  0.000456309      1.55459 
         800      5.94003  1.39762e-05  0.000450647      1.55459 
         800      6.01501  1.33843e-05  0.000444985      1.55459 
         800       6.0904  1.26596e-05  0.000439337       1.5546 
         800      6.16632  1.18117e-05  0.000433699       1.5546 
         800      6.24271  1.08518e-05  0.000428081       1.5546 
         800       6.3195  9.79161e-06  0.000422491       1.5546 
         800      6.39683  8.64023e-06  0.000416924       1.5546 
         800      6.47457  7.41034e-06  0.000411393       1.5546 
         800      6.55284  6.11073e-06  0.000405892       1.5546 
         800      6.63152  4.75411e-06  0.000400433       1.5546 
         800      6.71073  3.34887e-06  0.000395009       1.5546 
         800      6.79034  1.90751e-06  0.000389631      1.55461 
         800      6.87049  4.37793e-07  0.000384292      1.55461 
         800      6.95111 -1.04946e-06  0.000378997      1.55461 
         800      7.03214 -2.54376e-06  0.000373751      1.55461 
         800       7.1137 -4.03878e-06  0.000368548      1.55461 
         800      7.19566 -5.52398e-06  0.000363394      1.55461 
         800      7.27816 -6.99429e-06  0.000358281      1.55461 
         800      7.36106 -8.44078e-06  0.000353219      1.55461 
         800      7.44451 -9.86008e-06  0.000348197      1.55462 
         800      7.52842 -1.12465e-05   0.00034322      1.55462 
         800      7.61273 -1.25955e-05  0.000338291      1.55462 
         800      7.69758 -1.39073e-05  0.000333402      1.55462 
         800      7.78283 -1.51795e-05  0.000328559      1.55462 
         800      7.86862 -1.64154e-05  0.000323755      1.55462 
         800      7.95481 -1.76161e-05  0.000318997      1.55462 
         800      8.04155 -1.87892e-05  0.000314279      1.55462 
         800      8.12868 -1.99403e-05  0.000309608      1.55462 
         800      8.21635 -2.10818e-05  0.000304979      1.55463 
         800      8.30449 -2.22259e-05  0.000300399      1.55463 
         800      8.39303 -2.33882e-05  0.000295873      1.55463 
         800      8.48211 -2.45904e-05    0.0002914      1.55463 
         800      8.57159 -2.58541e-05  0.000286993      1.55463 
         800      8.66161 -2.72091e-05  0.000282651      1.55463 
         800      8.75203 -2.86683e-05  0.000278383      1.55463 
         800      8.84299 -2.98295e-05  0.000273969      1.55463 
         800      8.93443 -3.10138e-05  0.000269613      1.55463 
         800      9.02626 -3.22127e-05  0.000265319      1.55464 
         800      9.11863 -3.34209e-05  0.000261078      1.55464 
         800      9.21139 -3.46304e-05  0.000256899      1.55464 
         800      9.30471 -3.58376e-05  0.000252774      1.55464 
         800      9.39841 -3.70358e-05  0.000248708      1.55464 
         800      9.49267  -3.8223e-05  0.000244694      1.55464 
         800      9.58739 -3.93951e-05  0.000240734      1.55464 
         800      9.68251 -4.05486e-05   0.00023683      1.55464 
         800      9.77817 -4.16839e-05  0.000232974      1.55465 
         800      9.87422 -4.27982e-05   0.00022917      1.55465 
         800      9.97083 -4.38932e-05  0.000225411      1.55465 
         800      10.0678 -4.49678e-05  0.000221701      1.55465 
         800      10.1654 -4.60251e-05  0.000218031      1.55465 
         800      10.2633 -4.70655e-05  0.000214406      1.55465 
         800      10.3618 -4.80937e-05  0.000210818      1.55465 
         800      10.4607 -4.91124e-05  0.000207266      1.55465 
         800      10.5601 -5.01253e-05  0.000203753      1.55465 
         800        10.66 -5.11389e-05  0.000200269      1.55466 
         800      10.7603 -5.21575e-05  0.000196818      1.55466 
         800      10.8611 -5.31814e-05  0.000193414      1.55466 
         800      10.9623 -5.41929e-05  0.000190052      1.55466 
         800      11.0641 -5.51919e-05  0.000186727      1.55466 
         800      11.1663 -5.61758e-05  0.000183442      1.55466 
         800       11.269 -5.71427e-05  0.000180201      1.55466 
         800      11.3721 -5.80929e-05  0.000177001      1.55466 
         800      11.4757 -5.90243e-05  0.000173846      1.55466 
         800      11.5798  -5.9938e-05  0.000170733      1.55467 
         800      11.6844 -6.08326e-05  0.000167666      1.55467 
         800      11.7894 -6.17101e-05  0.000164641      1.55467 
         800       11.895 -6.25704e-05  0.000161661      1.55467 
         800      12.0009 -6.34142e-05  0.000158728      1.55467 
         800      12.1073 -6.42444e-05  0.000155836      1.55467 
         800      12.2142 -6.50616e-05   0.00015299      1.55467 
         800      12.3216  -6.5869e-05  0.000150185      1.55467 
         800      12.4294 -6.66679e-05  0.000147424      1.55467 
         800      12.5378 -6.74619e-05  0.000144703      1.55468 
         800      12.6465 -6.82521e-05  0.000142025      1.55468 
         800      12.7558 -6.90421e-05  0.000139384      1.55468 
         800      12.8656 -6.98331e-05  0.000136781      1.55468 
         800      12.9757  -7.0626e-05  0.000134218      1.55468 
         800      13.0864  -7.1423e-05  0.000131689      1.55468 
         800      13.1975 -7.22226e-05  0.000129197      1.55468 
         800      13.3092  -7.3025e-05  0.000126736      1.55468 
         800      13.4212 -7.38261e-05   0.00012431      1.55469 
         800      13.5338 -7.46229e-05  0.000121914      1.55469 
         800      13.6468 -7.54082e-05  0.000119549      1.55469 
         800      13.7603 -7.61725e-05  0.000117216      1.55469 
         800      13.8743 -7.69049e-05  0.000114911      1.55469 
         800      13.9886 -7.75891e-05  0.000112637      1.55469 
         800      14.1036 -7.82072e-05  0.000110393      1.55469 
         800      14.2189 -7.87344e-05  0.000108181      1.55469 
         800      14.3348 -7.91433e-05     0.000106      1.55469 
         800       14.451  -7.9654e-05  0.000103859       1.5547 
         800      14.5678 -8.04018e-05  0.000101756       1.5547 
         800      14.6851 -8.11372e-05  9.96878e-05       1.5547 
         800      14.8028 -8.18572e-05  9.76563e-05       1.5547 
         800       14.921  -8.2561e-05  9.56569e-05       1.5547 
         800      15.0396 -8.32461e-05  9.36922e-05       1.5547 
         800      15.1588 -8.39128e-05  9.17588e-05       1.5547 
         800      15.2783 -8.45593e-05  8.98593e-05       1.5547 
         800      15.3984 -8.51865e-05  8.79905e-05      1.55471 
         800       15.519  -8.5794e-05  8.61538e-05      1.55471 
         800        15.64 -8.63818e-05  8.43504e-05      1.55471 
         800      15.7615 -8.69514e-05  8.25774e-05      1.55471 
         800      15.8834 -8.75028e-05  8.08378e-05      1.55471 
         800      16.0058  -8.8038e-05  7.91286e-05      1.55471 
         800      16.1286 -8.85573e-05  7.74526e-05      1.55471 
         800       16.252 -8.90628e-05  7.58072e-05      1.55471 
         800      16.3759 -8.95555e-05  7.41937e-05      1.55472 
         800      16.5002 -9.00364e-05  7.26133e-05      1.55472 
         800       16.625 -9.05077e-05  7.10633e-05      1.55472 
         800      16.7501   -9.097e-05   6.9546e-05      1.55472 
         800      16.8759 -9.14253e-05  6.80588e-05      1.55472 
         800       17.002 -9.18743e-05  6.66038e-05      1.55472 
         800      17.1287 -9.23187e-05  6.51782e-05      1.55472 
         800      17.2557 -9.27589e-05  6.37838e-05      1.55472 
         800      17.3834 -9.31964e-05  6.24177e-05      1.55473 
         800      17.5115 -9.36316e-05  6.10804e-05      1.55473 
         800      17.6399 -9.40647e-05  5.97721e-05      1.55473 
         800       17.769 -9.44967e-05  5.84898e-05      1.55473 
         800      17.8984  -9.4927e-05  5.72345e-05      1.55473 
         800      18.0284 -9.53565e-05  5.60031e-05      1.55473 
         800      18.1587  -9.5784e-05  5.47962e-05      1.55473 
         800      18.2896 -9.62099e-05  5.36107e-05      1.55473 
         800       18.421 -9.66333e-05  5.24461e-05      1.55474 
         800      18.5528 -9.70532e-05  5.13019e-05      1.55474 
         800      18.6851 -9.74693e-05  5.01746e-05      1.55474 
         800      18.8178 -9.78802e-05  4.90645e-05      1.55474 
         800      18.9511 -9.82853e-05  4.79683e-05      1.55474 
         800      19.0847 -9.86832e-05  4.68861e-05      1.55474 
         800      19.2189 -9.90736e-05  4.58147e-05      1.55474 
         800      19.3535 -9.94549e-05  4.47544e-05      1.55475 
         800      19.4886 -9.98271e-05   4.3702e-05      1.55475 
         800      19.6242  -0.00010019  4.26572e-05      1.55475 
         800      19.7602 -0.000100542  4.16198e-05      1.55475 
         800      19.8968 -0.000100885  4.05874e-05      1.55475 
         800      20.0337 -0.000101219  3.95612e-05      1.55475 
         800      20.1712 -0.000101547  3.85393e-05      1.55475 
         800      20.3091  -0.00010187  3.75237e-05      1.55476 
         800      20.4475 -0.000102192  3.65136e-05      1.55476 
         800      20.5864 -0.000102518   3.5511e-05      1.55476 
         800      20.7257 -0.000102852  3.45188e-05      1.55476 
         800      20.8655 -0.000103202  3.35381e-05      1.55476 
         800      21.0058 -0.000103578  3.25739e-05      1.55476 
         800      21.1465 -0.000103923  3.17187e-05      1.55476 
         800      21.2877 -0.000104234  3.09801e-05      1.55477 
         800      21.4294 -0.000104515  3.03694e-05      1.55477 
         800      21.5716 -0.000104756  2.99197e-05      1.55477 
         800      21.7142  -0.00010495  2.96678e-05      1.55477 
         800      21.8573  -0.00010519  2.87041e-05      1.55477 
         800      22.0008 -0.000105438  2.76452e-05      1.55477 
         800      22.1449 -0.000105673  2.67033e-05      1.55478 
         800      22.2893 -0.000105835  2.59058e-05      1.55478 
         800      22.4344 -0.000105951  2.52142e-05      1.55478 
         800      22.5797 -0.000106105  2.45557e-05      1.55478 
         800      22.7257 -0.000106289  2.39267e-05      1.55478 
         800      22.8721 -0.000106495   2.3325e-05      1.55478 
         800      23.0189 -0.000106717  2.27487e-05      1.55479 
         800      23.1663 -0.000106949  2.21943e-05      1.55479 
         800       23.314 -0.000107185  2.16604e-05      1.55479 
         800      23.4623 -0.000107422  2.11439e-05      1.55479 
         800       23.611 -0.000107657  2.06435e-05      1.55479 
         800      23.7602 -0.000107887  2.01564e-05      1.55479 
         800        23.91  -0.00010811  1.96813e-05       1.5548 
         800        24.06 -0.000108325  1.92167e-05       1.5548 
         800      24.2107 -0.000108532  1.87605e-05       1.5548 
         800      24.3617 -0.000108729  1.83119e-05       1.5548 
         800      24.5133 -0.000108918  1.78692e-05       1.5548 
         800      24.6653 -0.000109098  1.74321e-05       1.5548 
         800      24.8178  -0.00010927   1.6999e-05      1.55481 
         800      24.9708 -0.000109436  1.65697e-05      1.55481 
         800      25.1242 -0.000109595  1.61441e-05      1.55481 
         800      25.2781 -0.000109749  1.57213e-05      1.55481 
         800      25.4324 -0.000109899  1.53019e-05      1.55481 
         800      25.5873 -0.000110046  1.48854e-05      1.55482 
         800      25.7426 -0.000110191  1.44727e-05      1.55482 
         800      25.8984 -0.000110336  1.40636e-05      1.55482 
         800      26.0546  -0.00011048  1.36594e-05      1.55482 
         800      26.2114 -0.000110625    1.326e-05      1.55482 
         800      26.3686 -0.000110772  1.28666e-05      1.55482 
         800      26.5262 -0.000110919  1.24805e-05      1.55483 
         800      26.6844 -0.000111067  1.21018e-05      1.55483 
         800      26.8429 -0.000111217  1.17323e-05      1.55483 
         800       27.002 -0.000111367  1.13723e-05      1.55483 
         800      27.1615 -0.000111517  1.10233e-05      1.55483 
         800      27.3216 -0.000111666  1.06855e-05      1.55484 
         800      27.4821 -0.000111814  1.03601e-05      1.55484 
         800       27.643 -0.000111958  1.00477e-05      1.55484 
         800      27.8044 -0.000112097  9.74822e-06      1.55484 
         800      27.9663  -0.00011223  9.46219e-06      1.55484 
         800      28.1287 -0.000112356  9.18886e-06      1.55485 
         800      28.2914 -0.000112473  8.92797e-06      1.55485 
         800      28.4548 -0.000112579  8.67792e-06      1.55485 
         800      28.6185 -0.000112675   8.4374e-06      1.55485 
         800      28.7828 -0.000112758  8.20365e-06      1.55486 
         800      28.9475 -0.000112829   7.9738e-06      1.55486 
         800      29.1126 -0.000112888  7.74412e-06      1.55486 
         800      29.2784 -0.000112936  7.50944e-06      1.55486 
         800      29.4444 -0.000112975  7.26431e-06      1.55486 
         800       29.611 -0.000113007  7.00139e-06      1.55487 
         800       29.778 -0.000113037  6.71289e-06      1.55487 
         800      29.9456 -0.000113254  6.54461e-06      1.55487 
         800      30.1137 -0.000113448   6.3581e-06      1.55487 
         800      30.2821 -0.000113617  6.15443e-06      1.55488 
         800      30.4511 -0.000113763  5.93947e-06      1.55488 
         800      30.6204  -0.00011389  5.71882e-06      1.55488 
         800      30.7903    -0.000114   5.4966e-06      1.55488 
         800      30.9606 -0.000114097  5.27686e-06      1.55488 
         800      31.1315 -0.000114183  5.06223e-06      1.55489 
         800      31.3028 -0.000114259  4.85525e-06      1.55489 
         800      31.4745 -0.000114328  4.65781e-06      1.55489 
         800      31.6468 -0.000114391   4.4708e-06      1.55489 
         800      31.8194  -0.00011445  4.29525e-06       1.5549 
         800      31.9926 -0.000114505   4.1312e-06       1.5549 
         800      32.1662 -0.000114557  3.97882e-06       1.5549 
         800      32.3404 -0.000114609  3.83749e-06       1.5549 
         800      32.5149 -0.000114659  3.70678e-06      1.55491 
         800        32.69 -0.000114709  3.58561e-06      1.55491 
         800      32.8655 -0.000114758  3.47303e-06      1.55491 
         800      33.0414 -0.000114808  3.36797e-06      1.55491 
         800       33.218 -0.000114858    3.269e-06      1.55492 
         800      33.3948 -0.000114909  3.17499e-06      1.55492 
         800      33.5723  -0.00011496  3.08452e-06      1.55492 
         800        33.75 -0.000115011  2.99647e-06      1.55492 
         800      33.9284 -0.000115063  2.90955e-06      1.55493 
         800      34.1073 -0.000115115  2.82273e-06      1.55493 
         800      34.2865 -0.000115166  2.73517e-06      1.55493 
         800      34.4663 -0.000115217  2.64594e-06      1.55493 
         800      34.6465 -0.000115268  2.55458e-06      1.55494 
         800      34.8272 -0.000115318  2.46052e-06      1.55494 
         800      35.0083 -0.000115368  2.36373e-06      1.55494 
         800        35.19 -0.000115416  2.26405e-06      1.55495 
         800      35.3721 -0.000115463  2.16178e-06      1.55495 
         800      35.5546 -0.000115509  2.05746e-06      1.55495 
         800      35.7377 -0.000115554  1.95157e-06      1.55495 
         800      35.9211 -0.000115598  1.84513e-06      1.55496 
         800      36.1052 -0.000115641    1.739e-06      1.55496 
         800      36.2895 -0.000115683  1.63454e-06      1.55496 
         800      36.4745 -0.000115724  1.53287e-06      1.55497 
         800      36.6598 -0.000115764  1.43556e-06      1.55497 
         800      36.8457 -0.000115804   1.3439e-06      1.55497 
         800      37.0321 -0.000115844  1.25938e-06      1.55497 
         800      37.2188 -0.000115885  1.18344e-06      1.55498 
         800      37.4062 -0.000115926  1.11717e-06      1.55498 
         800      37.5938 -0.000115969  1.06169e-06      1.55498 
         800      37.7821 -0.000116013  1.01765e-06      1.55499 
         800      37.9707 -0.000116059  9.85438e-07      1.55499 
         800      38.1599 -0.000116108  9.64849e-07      1.55499 
         800      38.3496  -0.00011616  9.55153e-07        1.555 
         800      38.5396 -0.000116215  9.54861e-07        1.555 
         800      38.7302 -0.000116274  9.61627e-07        1.555 
         800      38.9211 -0.000116337  9.72097e-07        1.555 
         800      39.1127 -0.000116403  9.81783e-07      1.55501 
         800      39.3046 -0.000116474  9.84844e-07      1.55501 
         800      39.4971 -0.000116562    7.769e-07      1.55501 
         800      39.6899 -0.000116601  5.91251e-07      1.55502 
         800      39.8833 -0.000116572  4.45333e-07      1.55502 
         800      40.0772 -0.000116466  3.41056e-07      1.55502 
         800      40.2714 -0.000116655  3.86157e-07      1.55503 
         800      40.4663 -0.000116776  4.06304e-07      1.55503 
         800      40.6615  -0.00011683   4.0642e-07      1.55503 
         800      40.8573 -0.000116814  3.92548e-07      1.55504 
         800      41.0534  -0.00011677  3.78566e-07      1.55504 
         800      41.2501 -0.000116747  3.60613e-07      1.55504 
         800      41.4473 -0.000116737  3.39373e-07      1.55505 
         800      41.6448 -0.000116738  3.15518e-07      1.55505 
         800      41.8429 -0.000116746  2.89637e-07      1.55505 
         800      42.0414 -0.000116757  2.62365e-07      1.55506 
         800      42.2405  -0.00011677  2.34218e-07      1.55506 
         800      42.4399 -0.000116783  2.05755e-07      1.55506 
         800      42.6399 -0.000116794  1.77398e-07      1.55507 
         800      42.8404 -0.000116803  1.49589e-07      1.55507 
         800      43.0412  -0.00011681  1.22712e-07      1.55507 
         800      43.2426 -0.000116813  9.70302e-08      1.55508 
         800      43.4444 -0.000116815  7.28316e-08      1.55508 
         800      43.6467 -0.000116814  5.02632e-08      1.55508 
         800      43.8494 -0.000116811  2.94846e-08      1.55509 
         800      44.0527 -0.000116808  1.05245e-08      1.55509 
         800      44.2563 -0.000116804  -6.5873e-09       1.5551 
         800      44.4606 -0.000116801 -2.19386e-08       1.5551 
         800      44.6653 -0.000116798 -3.56342e-08       1.5551 
         800      44.8704 -0.000116798 -4.78393e-08      1.55511 
         800       45.076 -0.000116799 -5.87998e-08      1.55511 
         800       45.282 -0.000116804 -6.87708e-08      1.55511 
         800      45.4886 -0.000116811 -7.80826e-08      1.55512 
         800      45.6955 -0.000116822 -8.70686e-08      1.55512 
         800       45.903 -0.000116836 -9.61187e-08      1.55512 
         800      46.1111 -0.000116853 -1.05619e-07      1.55513 
         800      46.3194 -0.000116873 -1.15963e-07      1.55513 
         800      46.5283 -0.000116895 -1.27565e-07      1.55514 
         800      46.7376 -0.000116919 -1.40788e-07      1.55514 
         800      46.9475 -0.000116943 -1.56007e-07      1.55514 
         800      47.1577 -0.000116968 -1.73505e-07      1.55515 
         800      47.3685 -0.000116992  -1.9356e-07      1.55515 
         800      47.5798 -0.000117014 -2.16328e-07      1.55516 
         800      47.7914 -0.000117033 -2.41861e-07      1.55516 
         800      48.0037 -0.000117048 -2.70154e-07      1.55516 