Variables = x, y, u, v, p

Zone, I=800, F=POINT
         800            0           -0           -0     -20.9219 
         800     0.000234 -1.12087e-05 -2.16686e-11     -20.9219 
         800     0.000939 -4.20309e-05 -3.48316e-10     -20.9219 
         800     0.002113 -8.43264e-05 -1.75747e-09     -20.9219 
         800     0.003759   -0.0001272 -5.53369e-09     -20.9219 
         800     0.005872 -0.000159619 -1.34147e-08     -20.9219 
         800     0.008457  -0.00017385 -2.76016e-08     -20.9219 
         800      0.01151 -0.000167298 -5.06412e-08     -20.9219 
         800     0.015036  -0.00014324 -8.54709e-08     -20.9219 
         800     0.019031 -0.000109533 -1.35217e-07     -20.9219 
         800     0.023493 -7.55519e-05 -2.03184e-07     -20.9219 
         800     0.028429 -4.82434e-05  -2.9294e-07     -20.9219 
         800     0.033831 -2.89902e-05 -4.07828e-07     -20.9219 
         800     0.039706 -1.24615e-05 -5.51421e-07     -20.9219 
         800     0.046047  1.04967e-05 -7.26836e-07     -20.9219 
         800     0.052863  4.63335e-05 -9.37395e-07     -20.9219 
         800      0.06015  9.07963e-05 -1.18577e-06     -20.9219 
         800       0.0679  0.000127345 -1.47403e-06     -20.9219 
         800     0.076126  0.000147231 -1.80462e-06     -20.9219 
         800     0.084816  0.000198942 -2.17846e-06     -20.9219 
         800     0.093982  0.000232557 -2.59694e-06     -20.9219 
         800     0.103611  0.000270791 -3.05973e-06     -20.9219 
         800     0.113718  0.000311597 -3.56718e-06     -20.9219 
         800     0.124286  0.000353327 -4.11744e-06     -20.9219 
         800     0.135333  0.000395065 -4.70977e-06     -20.9219 
         800      0.14685  0.000436342  -5.3414e-06     -20.9219 
         800     0.158827  0.000477099 -6.00883e-06     -20.9219 
         800     0.171284  0.000517555 -6.70968e-06     -20.9219 
         800     0.184201    0.0005577 -7.43879e-06     -20.9219 
         800     0.197599  0.000597332 -8.19283e-06     -20.9219 
         800     0.211455  0.000635735  -8.9656e-06     -20.9219 
         800     0.225792  0.000672259 -9.75312e-06     -20.9219 
         800       0.2406  0.000707049 -1.05493e-05     -20.9219 
         800     0.255865  0.000741305 -1.13476e-05     -20.9219 
         800     0.271613  0.000772962 -1.21439e-05     -20.9219 
         800     0.287818  0.000802757 -1.29309e-05     -20.9219 
         800     0.304506  0.000830599 -1.37043e-05     -20.9219 
         800      0.32165  0.000856337 -1.44572e-05     -20.9219 
         800     0.339278  0.000879943 -1.51856e-05     -20.9219 
         800     0.357377  0.000901363  -1.5884e-05     -20.9219 
         800      0.37593  0.000920576 -1.65472e-05     -20.9219 
         800     0.394968  0.000937644 -1.71721e-05     -20.9219 
         800     0.414461  0.000952593 -1.77541e-05     -20.9219 
         800      0.43444   0.00096552  -1.8291e-05     -20.9219 
         800     0.454872  0.000976494 -1.87792e-05     -20.9219 
         800     0.475791  0.000985631 -1.92173e-05     -20.9219 
         800     0.497163  0.000993021 -1.96029e-05     -20.9219 
         800     0.519021  0.000998784 -1.99357e-05     -20.9219 
         800      0.54135   0.00100302 -2.02147e-05     -20.9219 
         800     0.564131   0.00100586   -2.044e-05     -20.9219 
         800       0.5874   0.00100744 -2.06127e-05     -20.9219 
         800     0.611121   0.00100793 -2.07345e-05     -20.9219 
         800      0.63533   0.00100736 -2.08064e-05     -20.9219 
         800      0.65999   0.00100589 -2.08269e-05     -20.9219 
         800     0.685139   0.00100361 -2.07996e-05     -20.9219 
         800     0.710759   0.00100062 -2.07281e-05     -20.9219 
         800     0.736828  0.000997001 -2.06163e-05     -20.9219 
         800     0.763387  0.000992806 -2.04676e-05     -20.9219 
         800     0.790396  0.000988096 -2.02859e-05     -20.9219 
         800     0.817896  0.000982907 -2.00748e-05     -20.9219 
         800     0.845843  0.000977273 -1.98382e-05     -20.9219 
         800     0.874283  0.000971201 -1.95796e-05     -20.9219 
         800      0.90317  0.000964704  -1.9303e-05     -20.9219 
         800     0.932551  0.000957765 -1.90119e-05     -20.9219 
         800     0.962401  0.000950371 -1.87103e-05     -20.9219 
         800     0.992697  0.000942503 -1.84023e-05     -20.9219 
         800      1.02349  0.000934117 -1.80913e-05     -20.9219 
         800      1.05472  0.000925191 -1.77816e-05     -20.9219 
         800      1.08645  0.000915674 -1.74767e-05     -20.9219 
         800      1.11863  0.000905542  -1.7181e-05     -20.9219 
         800       1.1513  0.000894747 -1.68975e-05     -20.9219 
         800      1.18444  0.000883265 -1.66303e-05     -20.9219 
         800      1.21802  0.000871086 -1.63824e-05     -20.9219 
         800      1.25211  0.000858176 -1.61563e-05     -20.9219 
         800      1.28663  0.000844553 -1.59542e-05     -20.9219 
         800      1.32165  0.000830202 -1.57766e-05     -20.9219 
         800      1.35712  0.000815163 -1.56232e-05     -20.9219 
         800      1.39308  0.000799437 -1.54913e-05     -20.9219 
         800      1.42951  0.000783064 -1.53763e-05     -20.9219 
         800      1.46638  0.000766085 -1.52702e-05     -20.9219 
         800      1.50375  0.000748491 -1.51611e-05     -20.9219 
         800      1.54156  0.000730372 -1.51318e-05     -20.9219 
         800      1.57987  0.000711885 -1.51121e-05     -20.9219 
         800      1.61863  0.000693094 -1.50964e-05     -20.9219 
         800      1.65788  0.000673996 -1.50852e-05     -20.9219 
         800      1.69757  0.000654649 -1.50791e-05     -20.9219 
         800      1.73776  0.000635043 -1.50782e-05     -20.9219 
         800      1.77842  0.000615213 -1.50825e-05     -20.9219 
         800      1.81952   0.00059519 -1.50919e-05     -20.9219 
         800      1.86113  0.000574954 -1.51059e-05     -20.9219 
         800      1.90316  0.000554549 -1.51242e-05     -20.9219 
         800      1.94571  0.000533947  -1.5146e-05      -20.922 
         800      1.98869  0.000513187 -1.51705e-05      -20.922 
         800      2.03217  0.000492237  -1.5197e-05      -20.922 
         800      2.07612  0.000471114 -1.52246e-05      -20.922 
         800      2.12051  0.000449834 -1.52522e-05      -20.922 
         800       2.1654  0.000428361 -1.52789e-05      -20.922 
         800      2.21073  0.000406726 -1.53039e-05      -20.922 
         800      2.25656  0.000384892 -1.53263e-05      -20.922 
         800      2.30283   0.00036289 -1.53452e-05      -20.922 
         800       2.3496  0.000340684 -1.53601e-05      -20.922 
         800      2.39685   0.00031829 -1.53705e-05      -20.922 
         800      2.44452  0.000295727  -1.5376e-05      -20.922 
         800      2.49271  0.000272965 -1.53765e-05      -20.922 
         800      2.54132  0.000250044 -1.53721e-05      -20.922 
         800      2.59044  0.000226939 -1.53631e-05      -20.922 
         800         2.64  0.000203701 -1.53501e-05      -20.922 
         800      2.69006  0.000180309 -1.53338e-05      -20.922 
         800      2.74056  0.000156824 -1.53152e-05      -20.922 
         800      2.79156  0.000133236 -1.52954e-05      -20.922 
         800      2.84304  0.000109594 -1.52758e-05      -20.922 
         800      2.89494  8.59545e-05 -1.52577e-05      -20.922 
         800      2.94735  6.23197e-05 -1.52426e-05      -20.922 
         800       3.0002  3.87726e-05 -1.52317e-05      -20.922 
         800      3.05355  1.53244e-05 -1.52263e-05      -20.922 
         800      3.10733 -7.93735e-06 -1.52271e-05      -20.922 
         800      3.16163 -3.09971e-05 -1.52343e-05      -20.922 
         800      3.21639 -5.37838e-05 -1.52476e-05      -20.922 
         800      3.27158 -7.62292e-05 -1.52656e-05      -20.922 
         800      3.32729 -9.83226e-05 -1.52857e-05      -20.922 
         800      3.38342 -0.000119989 -1.53037e-05      -20.922 
         800      3.44007 -0.000141233 -1.53135e-05      -20.922 
         800      3.49714 -0.000162005 -1.53069e-05      -20.922 
         800      3.55472 -0.000182337 -1.52725e-05      -20.922 
         800      3.61273 -0.000202223 -1.51959e-05      -20.922 
         800      3.67125 -0.000221745 -1.50585e-05      -20.922 
         800      3.73025 -0.000240974 -1.48374e-05      -20.922 
         800      3.78967 -0.000259614 -1.47589e-05      -20.922 
         800      3.84961 -0.000277428  -1.4781e-05      -20.922 
         800      3.90996 -0.000294477 -1.47963e-05      -20.922 
         800      3.97084  -0.00031078 -1.48043e-05      -20.922 
         800      4.03214 -0.000326305 -1.48047e-05      -20.922 
         800      4.09395 -0.000341073  -1.4797e-05      -20.922 
         800      4.15624 -0.000355069 -1.47809e-05      -20.922 
         800      4.21895 -0.000368282 -1.47561e-05      -20.922 
         800      4.28217 -0.000380736 -1.47222e-05      -20.922 
         800      4.34582 -0.000392413 -1.46788e-05      -20.922 
         800      4.40998 -0.000403339 -1.46256e-05      -20.922 
         800      4.47457 -0.000413504 -1.45623e-05      -20.922 
         800      4.53968 -0.000422932 -1.44884e-05      -20.922 
         800      4.60525 -0.000431627 -1.44037e-05      -20.922 
         800      4.67125 -0.000439595 -1.43079e-05      -20.922 
         800      4.73777 -0.000446863 -1.42007e-05      -20.922 
         800       4.8047 -0.000453436 -1.40818e-05      -20.922 
         800      4.87216 -0.000459342 -1.39508e-05      -20.922 
         800      4.94003  -0.00046459 -1.38077e-05      -20.922 
         800      5.00843  -0.00046921 -1.36521e-05      -20.922 
         800      5.07724 -0.000473215  -1.3484e-05      -20.922 
         800      5.14658 -0.000476635 -1.33029e-05      -20.922 
         800      5.21639  -0.00047949  -1.3109e-05      -20.922 
         800      5.28661 -0.000481803 -1.29022e-05      -20.922 
         800      5.35736 -0.000483604 -1.26823e-05      -20.922 
         800      5.42852 -0.000484916 -1.24496e-05      -20.922 
         800      5.50021 -0.000485769 -1.22039e-05     -20.9221 
         800      5.57231 -0.000486188 -1.19456e-05     -20.9221 
         800      5.64493 -0.000486202 -1.16747e-05     -20.9221 
         800      5.71803 -0.000485871 -1.14696e-05     -20.9221 
         800      5.79154 -0.000485205 -1.12578e-05     -20.9221 
         800      5.86558  -0.00048423  -1.1037e-05     -20.9221 
         800      5.94003 -0.000482974 -1.08082e-05     -20.9221 
         800      6.01501  -0.00048146 -1.05713e-05     -20.9221 
         800       6.0904 -0.000479715 -1.03274e-05     -20.9221 
         800      6.16632 -0.000477763 -1.00765e-05     -20.9221 
         800      6.24271 -0.000475626 -9.81942e-06     -20.9221 
         800       6.3195 -0.000473329 -9.55682e-06     -20.9221 
         800      6.39683 -0.000470891 -9.28887e-06     -20.9221 
         800      6.47457 -0.000468335 -9.01659e-06     -20.9221 
         800      6.55284 -0.000465676 -8.74013e-06     -20.9221 
         800      6.63152 -0.000462935 -8.46054e-06     -20.9221 
         800      6.71073 -0.000460126 -8.17803e-06     -20.9221 
         800      6.79034 -0.000457266  -7.8937e-06     -20.9221 
         800      6.87049 -0.000454366 -7.60778e-06     -20.9221 
         800      6.95111 -0.000451438 -7.32123e-06     -20.9221 
         800      7.03214 -0.000448497 -7.03504e-06     -20.9221 
         800       7.1137 -0.000445547 -6.74953e-06     -20.9221 
         800      7.19566   -0.0004426 -6.46604e-06     -20.9221 
         800      7.27816 -0.000439657   -6.185e-06     -20.9221 
         800      7.36106 -0.000436729 -5.90785e-06     -20.9221 
         800      7.44451 -0.000433813 -5.63521e-06     -20.9221 
         800      7.52842 -0.000430915 -5.36842e-06     -20.9221 
         800      7.61273 -0.000428038 -5.10895e-06     -20.9221 
         800      7.69758 -0.000425179 -4.85774e-06     -20.9221 
         800      7.78283  -0.00042234 -4.61669e-06     -20.9221 
         800      7.86862 -0.000419517 -4.38705e-06     -20.9221 
         800      7.95481 -0.000416712 -4.17099e-06     -20.9221 
         800      8.04155 -0.000413919 -3.97017e-06     -20.9221 
         800      8.12868 -0.000411141 -3.78712e-06     -20.9221 
         800      8.21635 -0.000408374   -3.624e-06     -20.9221 
         800      8.30449 -0.000405618  -3.4837e-06     -20.9221 
         800      8.39303 -0.000402878 -3.36929e-06     -20.9221 
         800      8.48211 -0.000400151 -3.28396e-06     -20.9221 
         800      8.57159 -0.000397447 -3.23154e-06     -20.9221 
         800      8.66161 -0.000394769 -3.21607e-06     -20.9221 
         800      8.75203 -0.000392125 -3.23192e-06     -20.9221 
         800      8.84299 -0.000389355 -3.05773e-06     -20.9221 
         800      8.93443 -0.000386643 -2.91047e-06     -20.9221 
         800      9.02626 -0.000383987 -2.78596e-06     -20.9221 
         800      9.11863 -0.000381376 -2.68002e-06     -20.9221 
         800      9.21139  -0.00037881 -2.58924e-06     -20.9221 
         800      9.30471 -0.000376278 -2.51019e-06     -20.9221 
         800      9.39841 -0.000373781 -2.44013e-06     -20.9221 
         800      9.49267  -0.00037131 -2.37644e-06     -20.9221 
         800      9.58739 -0.000368864 -2.31708e-06     -20.9222 
         800      9.68251 -0.000366442  -2.2604e-06     -20.9222 
         800      9.77817 -0.000364037 -2.20504e-06     -20.9222 
         800      9.87422 -0.000361652 -2.15022e-06     -20.9222 
         800      9.97083  -0.00035928 -2.09542e-06     -20.9222 
         800      10.0678 -0.000356926 -2.04071e-06     -20.9222 
         800      10.1654 -0.000354584  -1.9864e-06     -20.9222 
         800      10.2633 -0.000352261 -1.93337e-06     -20.9222 
         800      10.3618 -0.000349952 -1.88274e-06     -20.9222 
         800      10.4607 -0.000347662 -1.83612e-06     -20.9222 
         800      10.5601 -0.000345394 -1.79548e-06     -20.9222 
         800        10.66  -0.00034315 -1.76301e-06     -20.9222 
         800      10.7603 -0.000340936 -1.74131e-06     -20.9222 
         800      10.8611 -0.000338645 -1.67624e-06     -20.9222 
         800      10.9623 -0.000336383 -1.60056e-06     -20.9222 
         800      11.0641 -0.000334152 -1.51732e-06     -20.9222 
         800      11.1663 -0.000331953 -1.42864e-06     -20.9222 
         800       11.269 -0.000329789 -1.33672e-06     -20.9222 
         800      11.3721 -0.000327657  -1.2435e-06     -20.9222 
         800      11.4757 -0.000325561 -1.15114e-06     -20.9222 
         800      11.5798 -0.000323497 -1.06137e-06     -20.9222 
         800      11.6844 -0.000321467 -9.76012e-07     -20.9222 
         800      11.7894 -0.000319469 -8.96382e-07     -20.9222 
         800       11.895 -0.000317502 -8.23725e-07     -20.9222 
         800      12.0009 -0.000315567 -7.58956e-07     -20.9222 
         800      12.1073  -0.00031366   -7.025e-07     -20.9222 
         800      12.2142 -0.000311783 -6.54623e-07     -20.9222 
         800      12.3216  -0.00030993 -6.15063e-07     -20.9222 
         800      12.4294 -0.000308105 -5.83337e-07     -20.9222 
         800      12.5378 -0.000306301 -5.58501e-07     -20.9222 
         800      12.6465  -0.00030452 -5.39379e-07     -20.9222 
         800      12.7558 -0.000302758 -5.24439e-07     -20.9222 
         800      12.8656 -0.000301015 -5.11962e-07     -20.9222 
         800      12.9757 -0.000299291 -5.00057e-07     -20.9222 
         800      13.0864 -0.000297582  -4.8672e-07     -20.9222 
         800      13.1975 -0.000295889  -4.7001e-07     -20.9222 
         800      13.3092 -0.000294209 -4.48073e-07     -20.9222 
         800      13.4212 -0.000292544 -4.19397e-07     -20.9222 
         800      13.5338 -0.000290891 -3.82827e-07     -20.9222 
         800      13.6468 -0.000289252 -3.37896e-07     -20.9222 
         800      13.7603 -0.000287629 -2.84997e-07     -20.9222 
         800      13.8743 -0.000286021 -2.25457e-07     -20.9222 
         800      13.9886 -0.000284431 -1.62106e-07     -20.9222 
         800      14.1036 -0.000282861 -9.92019e-08     -20.9222 
         800      14.2189 -0.000281315 -4.31331e-08     -20.9222 
         800      14.3348 -0.000279795 -2.39723e-09     -20.9222 
         800       14.451  -0.00027835  1.85953e-09     -20.9222 
         800      14.5678 -0.000276955 -8.91795e-09     -20.9222 
         800      14.6851 -0.000275557 -1.36251e-08     -20.9222 
         800      14.8028 -0.000274161 -1.30841e-08     -20.9222 
         800       14.921  -0.00027277 -8.04772e-09     -20.9222 
         800      15.0396 -0.000271389   7.8542e-10     -20.9222 
         800      15.1588 -0.000270019  1.27966e-08     -20.9222 
         800      15.2783 -0.000268664  2.73895e-08     -20.9222 
         800      15.3984 -0.000267324   4.4061e-08     -20.9222 
         800       15.519 -0.000266003   6.2321e-08     -20.9222 
         800        15.64 -0.000264701  8.17191e-08     -20.9222 
         800      15.7615 -0.000263419  1.01892e-07     -20.9222 
         800      15.8834 -0.000262159  1.22452e-07     -20.9222 
         800      16.0058 -0.000260918  1.43108e-07     -20.9222 
         800      16.1286   -0.0002597  1.63536e-07     -20.9222 
         800       16.252 -0.000258502  1.83505e-07     -20.9222 
         800      16.3759 -0.000257324  2.02758e-07     -20.9222 
         800      16.5002 -0.000256168  2.21063e-07     -20.9222 
         800       16.625 -0.000255031  2.38252e-07     -20.9222 
         800      16.7501 -0.000253913  2.54117e-07     -20.9222 
         800      16.8759 -0.000252814   2.6852e-07     -20.9222 
         800       17.002 -0.000251733  2.81286e-07     -20.9222 
         800      17.1287 -0.000250669  2.92299e-07     -20.9222 
         800      17.2557 -0.000249623  3.01414e-07     -20.9222 
         800      17.3834 -0.000248591  3.08532e-07     -20.9222 
         800      17.5115 -0.000247576  3.13542e-07     -20.9222 
         800      17.6399 -0.000246576  3.16351e-07     -20.9222 
         800       17.769 -0.000245591  3.16884e-07     -20.9222 
         800      17.8984 -0.000244621  3.15078e-07     -20.9222 
         800      18.0284 -0.000243664  3.10882e-07     -20.9222 
         800      18.1587 -0.000242723  3.04275e-07     -20.9222 
         800      18.2896 -0.000241796  2.95242e-07     -20.9222 
         800       18.421 -0.000240884   2.8381e-07     -20.9222 
         800      18.5528 -0.000239988  2.70045e-07     -20.9222 
         800      18.6851 -0.000239107  2.54019e-07     -20.9222 
         800      18.8178 -0.000238243  2.35895e-07     -20.9222 
         800      18.9511 -0.000237394  2.15835e-07     -20.9222 
         800      19.0847 -0.000236564  1.94123e-07     -20.9222 
         800      19.2189  -0.00023575  1.71047e-07     -20.9222 
         800      19.3535 -0.000234954   1.4705e-07     -20.9222 
         800      19.4886 -0.000234175  1.22592e-07     -20.9222 
         800      19.6242 -0.000233415  9.82993e-08     -20.9222 
         800      19.7602 -0.000232672    7.492e-08     -20.9222 
         800      19.8968 -0.000231946  5.32833e-08     -20.9222 
         800      20.0337 -0.000231235  3.44444e-08     -20.9222 
         800      20.1712 -0.000230538  1.95694e-08     -20.9222 
         800      20.3091 -0.000229853   1.0071e-08     -20.9222 
         800      20.4475 -0.000229176  7.54119e-09     -20.9222 
         800      20.5864 -0.000228503  1.38385e-08     -20.9222 
         800      20.7257 -0.000227829  3.10591e-08     -20.9222 
         800      20.8655 -0.000227148  6.16374e-08     -20.9222 
         800      21.0058 -0.000226451  1.08251e-07     -20.9222 
         800      21.1465 -0.000225765  1.40652e-07     -20.9222 
         800      21.2877 -0.000225066  1.88364e-07     -20.9222 
         800      21.4294 -0.000224343  2.56582e-07     -20.9222 
         800      21.5716 -0.000223595  3.41116e-07     -20.9222 
         800      21.7142 -0.000222821  4.37312e-07     -20.9222 
         800      21.8573 -0.000222084  4.42864e-07     -20.9222 
         800      22.0008 -0.000221382  4.23725e-07     -20.9222 
         800      22.1449   -0.0002207  4.05774e-07     -20.9222 
         800      22.2893 -0.000220123  3.66845e-07     -20.9222 
         800      22.4344  -0.00021969  3.10697e-07     -20.9222 
         800      22.5797  -0.00021928  2.71528e-07     -20.9222 
         800      22.7257 -0.000218882  2.45078e-07     -20.9222 
         800      22.8721 -0.000218487  2.27762e-07     -20.9222 
         800      23.0189 -0.000218091  2.16511e-07     -20.9222 
         800      23.1663 -0.000217687  2.08736e-07     -20.9222 
         800       23.314 -0.000217273  2.02348e-07     -20.9222 
         800      23.4623 -0.000216847  1.95662e-07     -20.9222 
         800       23.611 -0.000216409  1.87408e-07     -20.9222 
         800      23.7602 -0.000215959  1.76643e-07     -20.9222 
         800        23.91 -0.000215498  1.62761e-07     -20.9222 
         800        24.06 -0.000215029  1.45446e-07     -20.9222 
         800      24.2107 -0.000214553  1.24583e-07     -20.9222 
         800      24.3617 -0.000214074  1.00327e-07     -20.9222 
         800      24.5133 -0.000213595  7.29358e-08     -20.9222 
         800      24.6653  -0.00021312  4.28906e-08     -20.9222 
         800      24.8178 -0.000212651  1.06905e-08     -20.9222 
         800      24.9708 -0.000212192 -2.30168e-08     -20.9222 
         800      25.1242 -0.000211746  -5.7529e-08     -20.9222 
         800      25.2781 -0.000211316 -9.22079e-08     -20.9222 
         800      25.4324 -0.000210903  -1.2631e-07     -20.9222 
         800      25.5873  -0.00021051  -1.5923e-07     -20.9222 
         800      25.7426 -0.000210138 -1.90309e-07     -20.9222 
         800      25.8984 -0.000209787 -2.19059e-07     -20.9222 
         800      26.0546 -0.000209459 -2.44988e-07     -20.9222 
         800      26.2114 -0.000209151 -2.67792e-07     -20.9222 
         800      26.3686 -0.000208863 -2.87217e-07     -20.9222 
         800      26.5262 -0.000208593 -3.03145e-07     -20.9222 
         800      26.6844 -0.000208338 -3.15621e-07     -20.9222 
         800      26.8429 -0.000208097 -3.24775e-07     -20.9222 
         800       27.002 -0.000207865 -3.30898e-07     -20.9222 
         800      27.1615 -0.000207638 -3.34379e-07     -20.9222 
         800      27.3216 -0.000207414 -3.35733e-07     -20.9222 
         800      27.4821 -0.000207188 -3.35561e-07     -20.9222 
         800       27.643 -0.000206955 -3.34546e-07     -20.9222 
         800      27.8044 -0.000206714  -3.3342e-07     -20.9222 
         800      27.9663 -0.000206461 -3.32938e-07     -20.9222 
         800      28.1287 -0.000206193 -3.33839e-07     -20.9222 
         800      28.2914  -0.00020591 -3.36807e-07     -20.9222 
         800      28.4548 -0.000205612 -3.42428e-07     -20.9222 
         800      28.6185 -0.000205303 -3.51117e-07     -20.9222 
         800      28.7828 -0.000204985 -3.63096e-07     -20.9222 
         800      28.9475 -0.000204668 -3.78281e-07     -20.9222 
         800      29.1126 -0.000204361 -3.96216e-07     -20.9222 
         800      29.2784 -0.000204077 -4.16049e-07     -20.9222 
         800      29.4444 -0.000203837  -4.3633e-07     -20.9222 
         800       29.611 -0.000203662 -4.55041e-07     -20.9222 
         800       29.778 -0.000203583  -4.6936e-07     -20.9222 
         800      29.9456 -0.000203446 -4.56236e-07     -20.9222 
         800      30.1137 -0.000203279 -4.36676e-07     -20.9222 
         800      30.2821 -0.000203092  -4.1402e-07     -20.9222 
         800      30.4511 -0.000202891 -3.90398e-07     -20.9222 
         800      30.6204 -0.000202682 -3.67717e-07     -20.9222 
         800      30.7903 -0.000202467 -3.47527e-07     -20.9222 
         800      30.9606  -0.00020225 -3.31178e-07     -20.9222 
         800      31.1315 -0.000202035  -3.1971e-07     -20.9222 
         800      31.3028 -0.000201824 -3.13965e-07     -20.9222 
         800      31.4745 -0.000201618 -3.14547e-07     -20.9222 
         800      31.6468  -0.00020142 -3.21852e-07     -20.9222 
         800      31.8194  -0.00020123 -3.36076e-07     -20.9222 
         800      31.9926 -0.000201049 -3.57271e-07     -20.9222 
         800      32.1662 -0.000200877 -3.85275e-07     -20.9222 
         800      32.3404 -0.000200715 -4.19861e-07     -20.9222 
         800      32.5149 -0.000200562 -4.60572e-07     -20.9222 
         800        32.69 -0.000200418 -5.06961e-07     -20.9222 
         800      32.8655 -0.000200282 -5.58392e-07     -20.9222 
         800      33.0414 -0.000200154  -6.1413e-07     -20.9222 
         800       33.218 -0.000200032 -6.73515e-07     -20.9222 
         800      33.3948 -0.000199917 -7.35655e-07     -20.9222 
         800      33.5723 -0.000199806 -7.99821e-07     -20.9222 
         800        33.75   -0.0001997 -8.65066e-07     -20.9222 
         800      33.9284 -0.000199597 -9.30649e-07     -20.9222 
         800      34.1073 -0.000199496 -9.95688e-07     -20.9222 
         800      34.2865 -0.000199397 -1.05933e-06     -20.9222 
         800      34.4663 -0.000199298 -1.12093e-06     -20.9222 
         800      34.6465   -0.0001992 -1.17968e-06     -20.9222 
         800      34.8272 -0.000199102 -1.23505e-06     -20.9222 
         800      35.0083 -0.000199004 -1.28643e-06     -20.9222 
         800        35.19 -0.000198904 -1.33346e-06     -20.9222 
         800      35.3721 -0.000198805 -1.37577e-06     -20.9222 
         800      35.5546 -0.000198705 -1.41314e-06     -20.9222 
         800      35.7377 -0.000198605 -1.44556e-06     -20.9222 
         800      35.9211 -0.000198506 -1.47308e-06     -20.9222 
         800      36.1052 -0.000198407 -1.49597e-06     -20.9222 
         800      36.2895 -0.000198311 -1.51462e-06     -20.9222 
         800      36.4745 -0.000198218 -1.52964e-06     -20.9222 
         800      36.6598 -0.000198129 -1.54179e-06     -20.9222 
         800      36.8457 -0.000198045 -1.55206e-06     -20.9222 
         800      37.0321 -0.000197967  -1.5616e-06     -20.9222 
         800      37.2188 -0.000197897 -1.57177e-06     -20.9222 
         800      37.4062 -0.000197836 -1.58418e-06     -20.9222 
         800      37.5938 -0.000197785 -1.60058e-06     -20.9222 
         800      37.7821 -0.000197746 -1.62303e-06     -20.9222 
         800      37.9707 -0.000197718 -1.65369e-06     -20.9222 
         800      38.1599 -0.000197702 -1.69506e-06     -20.9222 
         800      38.3496   -0.0001977 -1.74976e-06     -20.9222 
         800      38.5396  -0.00019771  -1.8206e-06     -20.9222 
         800      38.7302 -0.000197732 -1.91076e-06     -20.9222 
         800      38.9211 -0.000197766 -2.02335e-06     -20.9222 
         800      39.1127  -0.00019781 -2.16201e-06     -20.9222 
         800      39.3046  -0.00019786 -2.33016e-06     -20.9222 
         800      39.4971 -0.000197659 -2.15423e-06     -20.9222 
         800      39.6899 -0.000197413 -1.93082e-06     -20.9222 
         800      39.8833 -0.000197133 -1.68622e-06     -20.9222 
         800      40.0772 -0.000196819 -1.42523e-06     -20.9222 
         800      40.2714 -0.000196817 -1.47406e-06     -20.9222 
         800      40.4663  -0.00019677 -1.49931e-06     -20.9222 
         800      40.6615 -0.000196678 -1.51182e-06     -20.9222 
         800      40.8573 -0.000196568  -1.5061e-06     -20.9222 
         800      41.0534 -0.000196565 -1.43414e-06     -20.9222 
         800      41.2501 -0.000196553 -1.38273e-06     -20.9222 
         800      41.4473 -0.000196533 -1.34847e-06     -20.9222 
         800      41.6448 -0.000196508 -1.32831e-06     -20.9222 
         800      41.8429 -0.000196481 -1.31952e-06     -20.9222 
         800      42.0414 -0.000196452 -1.31973e-06     -20.9222 
         800      42.2405 -0.000196423 -1.32691e-06     -20.9222 
         800      42.4399 -0.000196395 -1.33927e-06     -20.9222 
         800      42.6399 -0.000196368 -1.35534e-06     -20.9222 
         800      42.8404 -0.000196342 -1.37384e-06     -20.9222 
         800      43.0412 -0.000196318 -1.39372e-06     -20.9222 
         800      43.2426 -0.000196295 -1.41416e-06     -20.9222 
         800      43.4444 -0.000196274 -1.43446e-06     -20.9222 
         800      43.6467 -0.000196254 -1.45411e-06     -20.9222 
         800      43.8494 -0.000196234  -1.4727e-06     -20.9222 
         800      44.0527 -0.000196215 -1.48997e-06     -20.9222 
         800      44.2563 -0.000196195 -1.50571e-06     -20.9222 
         800      44.4606 -0.000196175 -1.51981e-06     -20.9222 
         800      44.6653 -0.000196154 -1.53221e-06     -20.9222 
         800      44.8704 -0.000196132 -1.54288e-06     -20.9222 
         800       45.076 -0.000196109 -1.55185e-06     -20.9222 
         800       45.282 -0.000196084 -1.55913e-06     -20.9222 
         800      45.4886 -0.000196058 -1.56476e-06     -20.9222 
         800      45.6955 -0.000196031 -1.56875e-06     -20.9222 
         800       45.903 -0.000196003 -1.57111e-06     -20.9222 
         800      46.1111 -0.000195973 -1.57182e-06     -20.9222 
         800      46.3194 -0.000195943 -1.57083e-06     -20.9222 
         800      46.5283 -0.000195914 -1.56805e-06     -20.9222 
         800      46.7376 -0.000195884 -1.56338e-06     -20.9222 
         800      46.9475 -0.000195856 -1.55665e-06     -20.9222 
         800      47.1577  -0.00019583 -1.54769e-06     -20.9222 
         800      47.3685 -0.000195805 -1.53627e-06     -20.9222 
         800      47.5798 -0.000195783 -1.52216e-06     -20.9222 
         800      47.7914 -0.000195764 -1.50513e-06     -20.9222 
         800      48.0037 -0.000195748  -1.4849e-06     -20.9222 