Variables = x, y, u, v, p

Zone, I=800, F=POINT
         350            0           -0           -0     -35.8713 
         350     0.000234 -1.18596e-06 -3.42564e-11     -35.8713 
         350     0.000939 -4.08407e-06 -5.46825e-10     -35.8713 
         350     0.002113  -6.8428e-06 -2.75111e-09     -35.8713 
         350     0.003759 -6.95266e-06 -8.63717e-09     -35.8713 
         350     0.005872 -1.92414e-06 -2.08662e-08     -35.8713 
         350     0.008457  1.00298e-05 -4.27571e-08     -35.8713 
         350      0.01151  2.94606e-05 -7.80672e-08     -35.8713 
         350     0.015036   5.5622e-05  -1.3102e-07     -35.8713 
         350     0.019031  8.66598e-05 -2.05945e-07     -35.8713 
         350     0.023493  0.000120374  -3.0722e-07     -35.8713 
         350     0.028429  0.000155149  -4.3934e-07     -35.8713 
         350     0.033831  0.000190512 -6.06134e-07     -35.8713 
         350     0.039706  0.000227536 -8.11403e-07     -35.8713 
         350     0.046047  0.000267976 -1.05787e-06     -35.8713 
         350     0.052863  0.000312925 -1.34807e-06     -35.8713 
         350      0.06015  0.000360869 -1.68316e-06     -35.8713 
         350       0.0679  0.000407571 -2.06296e-06     -35.8713 
         350     0.076126  0.000451248 -2.48722e-06     -35.8713 
         350     0.084816  0.000503895 -2.95318e-06     -35.8713 
         350     0.093982  0.000551165 -3.45821e-06     -35.8713 
         350     0.103611  0.000599684 -3.99699e-06     -35.8713 
         350     0.113718   0.00064851 -4.56453e-06     -35.8713 
         350     0.124286  0.000696727 -5.15288e-06     -35.8713 
         350     0.135333  0.000743788 -5.75505e-06     -35.8713 
         350      0.14685   0.00078922 -6.36158e-06     -35.8713 
         350     0.158827  0.000832712 -6.96223e-06     -35.8713 
         350     0.171284  0.000874148 -7.54766e-06     -35.8713 
         350     0.184201  0.000913269 -8.10611e-06     -35.8713 
         350     0.197599  0.000949875 -8.62741e-06     -35.8713 
         350     0.211455  0.000983552 -9.09959e-06     -35.8713 
         350     0.225792   0.00101403 -9.51258e-06     -35.8713 
         350       0.2406    0.0010413 -9.85568e-06     -35.8713 
         350     0.255865   0.00106574 -1.01192e-05     -35.8713 
         350     0.271613    0.0010867 -1.02932e-05     -35.8713 
         350     0.287818   0.00110449 -1.03694e-05     -35.8713 
         350     0.304506   0.00111919 -1.03413e-05     -35.8713 
         350      0.32165   0.00113089 -1.02031e-05     -35.8713 
         350     0.339278   0.00113974 -9.94993e-06     -35.8713 
         350     0.357377   0.00114589 -9.57792e-06     -35.8713 
         350      0.37593   0.00114954 -9.08505e-06     -35.8713 
         350     0.394968   0.00115091 -8.46921e-06     -35.8713 
         350     0.414461   0.00115022 -7.73146e-06     -35.8713 
         350      0.43444    0.0011477 -6.87209e-06     -35.8713 
         350     0.454872   0.00114359 -5.89536e-06     -35.8713 
         350     0.475791   0.00113811 -4.80378e-06     -35.8713 
         350     0.497163   0.00113147 -3.60435e-06     -35.8713 
         350     0.519021   0.00112385 -2.30135e-06     -35.8713 
         350      0.54135   0.00111542 -9.02179e-07     -35.8713 
         350     0.564131   0.00110633  5.85299e-07     -35.8713 
         350       0.5874    0.0010967  2.15752e-06     -35.8713 
         350     0.611121   0.00108665  3.80724e-06     -35.8713 
         350      0.63533   0.00107615   5.5188e-06     -35.8713 
         350      0.65999   0.00106544  7.27862e-06     -35.8713 
         350     0.685139   0.00105445  9.08241e-06     -35.8713 
         350     0.710759   0.00104314  1.09212e-05     -35.8713 
         350     0.736828   0.00103146  1.27853e-05     -35.8713 
         350     0.763387   0.00101934  1.46691e-05     -35.8713 
         350     0.790396   0.00100673  1.65611e-05     -35.8713 
         350     0.817896  0.000993552  1.84555e-05     -35.8713 
         350     0.845843  0.000979768  2.03407e-05     -35.8713 
         350     0.874283    0.0009653  2.22119e-05     -35.8713 
         350      0.90317  0.000950122  2.40586e-05     -35.8713 
         350     0.932551  0.000934171  2.58772e-05     -35.8713 
         350     0.962401  0.000917428  2.76606e-05     -35.8713 
         350     0.992697   0.00089989  2.94033e-05     -35.8713 
         350      1.02349  0.000881527  3.11053e-05     -35.8713 
         350      1.05472  0.000862382  3.27624e-05     -35.8713 
         350      1.08645  0.000842455  3.43778e-05     -35.8713 
         350      1.11863  0.000821827  3.59506e-05     -35.8713 
         350       1.1513  0.000800533  3.74867e-05     -35.8713 
         350      1.18444  0.000778671  3.89894e-05     -35.8713 
         350      1.21802  0.000756359   4.0463e-05     -35.8713 
         350      1.25211  0.000733669  4.19154e-05     -35.8713 
         350      1.28663  0.000710752  4.33498e-05     -35.8713 
         350      1.32165  0.000687681  4.47721e-05     -35.8713 
         350      1.35712  0.000664595  4.61814e-05     -35.8713 
         350      1.39308   0.00064153  4.75767e-05     -35.8713 
         350      1.42951  0.000618538  4.89475e-05     -35.8713 
         350      1.46638   0.00059561  5.02747e-05     -35.8713 
         350      1.50375  0.000572599  5.15309e-05     -35.8713 
         350      1.54156  0.000549667  5.28859e-05     -35.8713 
         350      1.57987  0.000526692  5.42421e-05     -35.8713 
         350      1.61863  0.000503666  5.55821e-05     -35.8713 
         350      1.65788  0.000480526   5.6905e-05     -35.8713 
         350      1.69757   0.00045729  5.82057e-05     -35.8713 
         350      1.73776  0.000433908  5.94836e-05     -35.8713 
         350      1.77842  0.000410387  6.07352e-05     -35.8713 
         350      1.81952  0.000386745  6.19574e-05     -35.8713 
         350      1.86113  0.000362946    6.315e-05     -35.8713 
         350      1.90316  0.000339037  6.43094e-05     -35.8713 
         350      1.94571  0.000314992  6.54359e-05     -35.8713 
         350      1.98869  0.000290871  6.65261e-05     -35.8713 
         350      2.03217  0.000266658  6.75806e-05     -35.8713 
         350      2.07612  0.000242403  6.85973e-05     -35.8713 
         350      2.12051  0.000218158  6.95746e-05     -35.8713 
         350       2.1654  0.000193924   7.0513e-05     -35.8713 
         350      2.21073   0.00016978  7.14103e-05     -35.8713 
         350      2.25656  0.000145734  7.22671e-05     -35.8713 
         350      2.30283   0.00012187  7.30814e-05     -35.8713 
         350       2.3496  9.82022e-05  7.38537e-05     -35.8714 
         350      2.39685  7.47995e-05  7.45827e-05     -35.8714 
         350      2.44452   5.1733e-05   7.5267e-05     -35.8714 
         350      2.49271   2.9019e-05   7.5907e-05     -35.8714 
         350      2.54132   6.7445e-06  7.65007e-05     -35.8714 
         350      2.59044  -1.5075e-05  7.70482e-05     -35.8714 
         350         2.64 -3.63561e-05  7.75476e-05     -35.8714 
         350      2.69006 -5.70862e-05  7.79986e-05     -35.8714 
         350      2.74056 -7.71897e-05  7.83993e-05     -35.8714 
         350      2.79156 -9.66593e-05  7.87493e-05     -35.8714 
         350      2.84304 -0.000115444  7.90468e-05     -35.8714 
         350      2.89494   -0.0001335  7.92908e-05     -35.8714 
         350      2.94735 -0.000150832  7.94805e-05     -35.8714 
         350       3.0002 -0.000167391  7.96148e-05     -35.8714 
         350      3.05355  -0.00018319  7.96936e-05     -35.8714 
         350      3.10733 -0.000198195  7.97165e-05     -35.8714 
         350      3.16163 -0.000212426  7.96841e-05     -35.8714 
         350      3.21639 -0.000225871  7.95977e-05     -35.8714 
         350      3.27158 -0.000238523  7.94598e-05     -35.8714 
         350      3.32729 -0.000250408  7.92735e-05     -35.8714 
         350      3.38342 -0.000261514  7.90443e-05     -35.8714 
         350      3.44007 -0.000271862  7.87788e-05     -35.8714 
         350      3.49714 -0.000281437  7.84864e-05     -35.8714 
         350      3.55472 -0.000290248  7.81786e-05     -35.8714 
         350      3.61273 -0.000298266  7.78707e-05     -35.8714 
         350      3.67125 -0.000305471  7.75811e-05     -35.8714 
         350      3.73025 -0.000311808  7.73331e-05     -35.8714 
         350      3.78967 -0.000317372  7.69052e-05     -35.8714 
         350      3.84961  -0.00032214  7.64461e-05     -35.8714 
         350      3.90996 -0.000326063  7.60631e-05     -35.8714 
         350      3.97084 -0.000329187  7.57358e-05     -35.8714 
         350      4.03214 -0.000331547  7.54478e-05     -35.8714 
         350      4.09395  -0.00033319  7.51844e-05     -35.8714 
         350      4.15624 -0.000334161  7.49344e-05     -35.8714 
         350      4.21895 -0.000334509  7.46882e-05     -35.8714 
         350      4.28217 -0.000334284  7.44381e-05     -35.8714 
         350      4.34582 -0.000333536  7.41788e-05     -35.8714 
         350      4.40998 -0.000332317  7.39055e-05     -35.8714 
         350      4.47457 -0.000330677  7.36156e-05     -35.8715 
         350      4.53968 -0.000328665  7.33066e-05     -35.8715 
         350      4.60525 -0.000326329  7.29773e-05     -35.8715 
         350      4.67125 -0.000323718  7.26273e-05     -35.8715 
         350      4.73777 -0.000320871  7.22553e-05     -35.8715 
         350       4.8047 -0.000317833  7.18616e-05     -35.8715 
         350      4.87216 -0.000314635  7.14452e-05     -35.8715 
         350      4.94003 -0.000311317   7.1006e-05     -35.8715 
         350      5.00843 -0.000307901  7.05427e-05     -35.8715 
         350      5.07724 -0.000304417   7.0055e-05     -35.8715 
         350      5.14658 -0.000300882  6.95413e-05     -35.8715 
         350      5.21639 -0.000297312  6.90008e-05     -35.8715 
         350      5.28661 -0.000293722  6.84333e-05     -35.8715 
         350      5.35736 -0.000290115  6.78376e-05     -35.8715 
         350      5.42852 -0.000286499  6.72154e-05     -35.8715 
         350      5.50021 -0.000282871  6.65682e-05     -35.8715 
         350      5.57231 -0.000279236  6.59012e-05     -35.8715 
         350      5.64493 -0.000275585  6.52211e-05     -35.8715 
         350      5.71803 -0.000271955   6.4537e-05     -35.8715 
         350      5.79154 -0.000268417  6.38662e-05     -35.8715 
         350      5.86558 -0.000264909  6.32383e-05     -35.8715 
         350      5.94003  -0.00026147  6.26799e-05     -35.8715 
         350      6.01501 -0.000257929   6.2011e-05     -35.8715 
         350       6.0904 -0.000254359  6.12994e-05     -35.8715 
         350      6.16632 -0.000250828  6.06414e-05     -35.8715 
         350      6.24271 -0.000247345  6.00366e-05     -35.8715 
         350       6.3195 -0.000243947  5.94248e-05     -35.8715 
         350      6.39683 -0.000240567  5.88168e-05     -35.8715 
         350      6.47457 -0.000237214  5.82121e-05     -35.8715 
         350      6.55284 -0.000233884  5.76093e-05     -35.8715 
         350      6.63152 -0.000230585  5.70097e-05     -35.8715 
         350      6.71073 -0.000227313  5.64132e-05     -35.8715 
         350      6.79034 -0.000224075   5.5822e-05     -35.8715 
         350      6.87049 -0.000220868  5.52363e-05     -35.8715 
         350      6.95111 -0.000217697  5.46579e-05     -35.8715 
         350      7.03214 -0.000214563  5.40883e-05     -35.8715 
         350       7.1137 -0.000211465   5.3527e-05     -35.8715 
         350      7.19566 -0.000208406  5.29752e-05     -35.8715 
         350      7.27816 -0.000205384  5.24316e-05     -35.8715 
         350      7.36106 -0.000202403   5.1896e-05     -35.8715 
         350      7.44451 -0.000199459   5.1366e-05     -35.8715 
         350      7.52842 -0.000196553    5.084e-05     -35.8715 
         350      7.61273 -0.000193689  5.03158e-05     -35.8715 
         350      7.69758 -0.000190861  4.97898e-05     -35.8715 
         350      7.78283 -0.000188072  4.92601e-05     -35.8716 
         350      7.86862 -0.000185319  4.87233e-05     -35.8716 
         350      7.95481 -0.000182604  4.81785e-05     -35.8716 
         350      8.04155 -0.000179922  4.76241e-05     -35.8716 
         350      8.12868 -0.000177276  4.70622e-05     -35.8716 
         350      8.21635 -0.000174662  4.64952e-05     -35.8716 
         350      8.30449 -0.000172081  4.59303e-05     -35.8716 
         350      8.39303 -0.000169532  4.53787e-05     -35.8716 
         350      8.48211 -0.000167013  4.48553e-05     -35.8716 
         350      8.57159 -0.000164526  4.43832e-05     -35.8716 
         350      8.66161 -0.000162068  4.39912e-05     -35.8716 
         350      8.75203  -0.00015981   4.3383e-05     -35.8716 
         350      8.84299 -0.000157543  4.28143e-05     -35.8716 
         350      8.93443 -0.000155268   4.2293e-05     -35.8716 
         350      9.02626 -0.000153005  4.18025e-05     -35.8716 
         350      9.11863  -0.00015076  4.13285e-05     -35.8716 
         350      9.21139 -0.000148547  4.08619e-05     -35.8716 
         350      9.30471 -0.000146368  4.03945e-05     -35.8716 
         350      9.39841  -0.00014423  3.99225e-05     -35.8716 
         350      9.49267 -0.000142131  3.94428e-05     -35.8716 
         350      9.58739 -0.000140072   3.8955e-05     -35.8716 
         350      9.68251 -0.000138055  3.84604e-05     -35.8716 
         350      9.77817 -0.000136074  3.79602e-05     -35.8716 
         350      9.87422  -0.00013413  3.74577e-05     -35.8716 
         350      9.97083 -0.000132218  3.69555e-05     -35.8716 
         350      10.0678 -0.000130339  3.64575e-05     -35.8716 
         350      10.1654 -0.000128489  3.59659e-05     -35.8716 
         350      10.2633 -0.000126671  3.54843e-05     -35.8716 
         350      10.3618  -0.00012488  3.50138e-05     -35.8716 
         350      10.4607  -0.00012312  3.45558e-05     -35.8716 
         350      10.5601 -0.000121394  3.41106e-05     -35.8716 
         350        10.66 -0.000119701  3.36761e-05     -35.8716 
         350      10.7603 -0.000118047  3.32504e-05     -35.8716 
         350      10.8611 -0.000116432  3.28288e-05     -35.8716 
         350      10.9623 -0.000114862  3.24066e-05     -35.8716 
         350      11.0641 -0.000113337  3.19765e-05     -35.8716 
         350      11.1663 -0.000111857  3.15308e-05     -35.8716 
         350       11.269 -0.000110424  3.10611e-05     -35.8716 
         350      11.3721 -0.000108987  3.06304e-05     -35.8716 
         350      11.4757 -0.000107514  3.02889e-05     -35.8716 
         350      11.5798 -0.000106041  2.99639e-05     -35.8716 
         350      11.6844 -0.000104563  2.96611e-05     -35.8716 
         350      11.7894 -0.000103067  2.93773e-05     -35.8716 
         350       11.895 -0.000101929  2.88462e-05     -35.8716 
         350      12.0009 -0.000100797  2.83526e-05     -35.8716 
         350      12.1073 -9.94757e-05  2.80625e-05     -35.8716 
         350      12.2142 -9.80609e-05  2.79266e-05     -35.8716 
         350      12.3216 -9.66936e-05  2.76871e-05     -35.8716 
         350      12.4294 -9.54661e-05  2.71364e-05     -35.8716 
         350      12.5378 -9.42697e-05  2.66351e-05     -35.8716 
         350      12.6465 -9.31089e-05  2.61802e-05     -35.8716 
         350      12.7558 -9.19816e-05  2.57664e-05     -35.8716 
         350      12.8656 -9.08864e-05  2.53882e-05     -35.8716 
         350      12.9757 -8.98204e-05  2.50395e-05     -35.8716 
         350      13.0864 -8.87775e-05  2.47133e-05     -35.8716 
         350      13.1975  -8.7755e-05  2.44033e-05     -35.8716 
         350      13.3092 -8.67473e-05  2.41028e-05     -35.8716 
         350      13.4212 -8.57528e-05  2.38063e-05     -35.8716 
         350      13.5338 -8.47681e-05  2.35083e-05     -35.8716 
         350      13.6468 -8.37934e-05  2.32049e-05     -35.8716 
         350      13.7603 -8.28308e-05  2.28935e-05     -35.8716 
         350      13.8743 -8.18809e-05  2.25717e-05     -35.8716 
         350      13.9886 -8.09493e-05  2.22399e-05     -35.8716 
         350      14.1036 -8.00389e-05  2.18985e-05     -35.8716 
         350      14.2189 -7.91564e-05  2.15509e-05     -35.8716 
         350      14.3348  -7.8305e-05  2.12005e-05     -35.8716 
         350       14.451 -7.74895e-05  2.08533e-05     -35.8716 
         350      14.5678 -7.67097e-05  2.05156e-05     -35.8716 
         350      14.6851 -7.59634e-05  2.01953e-05     -35.8716 
         350      14.8028 -7.52432e-05  1.99012e-05     -35.8716 
         350       14.921 -7.45324e-05   1.9642e-05     -35.8716 
         350      15.0396 -7.38076e-05  1.94272e-05     -35.8716 
         350      15.1588 -7.30508e-05   1.9215e-05     -35.8716 
         350      15.2783 -7.24021e-05  1.87131e-05     -35.8716 
         350      15.3984 -7.17251e-05  1.83761e-05     -35.8716 
         350       15.519 -7.10319e-05  1.81787e-05     -35.8716 
         350        15.64 -7.03355e-05  1.80689e-05     -35.8716 
         350      15.7615 -6.96468e-05  1.79796e-05     -35.8716 
         350      15.8834 -6.89768e-05  1.78466e-05     -35.8716 
         350      16.0058 -6.83295e-05  1.76315e-05     -35.8716 
         350      16.1286 -6.77038e-05  1.73532e-05     -35.8716 
         350       16.252 -6.70864e-05  1.71245e-05     -35.8716 
         350      16.3759 -6.64178e-05  1.69659e-05     -35.8716 
         350      16.5002 -6.57548e-05  1.66393e-05     -35.8716 
         350       16.625 -6.51715e-05   1.6339e-05     -35.8716 
         350      16.7501 -6.46523e-05  1.60547e-05     -35.8716 
         350      16.8759 -6.41817e-05   1.5778e-05     -35.8716 
         350       17.002 -6.37478e-05  1.55041e-05     -35.8716 
         350      17.1287 -6.33387e-05  1.52295e-05     -35.8716 
         350      17.2557 -6.29458e-05  1.49534e-05     -35.8716 
         350      17.3834 -6.25606e-05  1.46759e-05     -35.8716 
         350      17.5115 -6.21771e-05  1.43989e-05     -35.8716 
         350      17.6399 -6.17909e-05  1.41254e-05     -35.8716 
         350       17.769 -6.13978e-05  1.38581e-05     -35.8716 
         350      17.8984 -6.09965e-05  1.36013e-05     -35.8716 
         350      18.0284 -6.05855e-05  1.33581e-05     -35.8716 
         350      18.1587 -6.01657e-05  1.31322e-05     -35.8716 
         350      18.2896  -5.9738e-05   1.2926e-05     -35.8716 
         350       18.421 -5.93053e-05  1.27414e-05     -35.8716 
         350      18.5528 -5.88717e-05  1.25789e-05     -35.8716 
         350      18.6851 -5.84411e-05  1.24373e-05     -35.8716 
         350      18.8178 -5.80199e-05   1.2314e-05     -35.8716 
         350      18.9511  -5.7614e-05  1.22037e-05     -35.8716 
         350      19.0847 -5.72375e-05  1.20928e-05     -35.8716 
         350      19.2189 -5.69408e-05  1.19172e-05     -35.8716 
         350      19.3535 -5.66414e-05  1.17595e-05     -35.8716 
         350      19.4886  -5.6344e-05  1.16111e-05     -35.8716 
         350      19.6242 -5.60527e-05  1.14655e-05     -35.8716 
         350      19.7602 -5.57705e-05  1.13181e-05     -35.8716 
         350      19.8968 -5.54986e-05  1.11659e-05     -35.8716 
         350      20.0337 -5.52379e-05   1.1008e-05     -35.8716 
         350      20.1712 -5.49874e-05  1.08442e-05     -35.8716 
         350      20.3091 -5.47464e-05  1.06765e-05     -35.8716 
         350      20.4475 -5.45122e-05  1.05073e-05     -35.8716 
         350      20.5864 -5.42822e-05  1.03406e-05     -35.8716 
         350      20.7257 -5.40535e-05  1.01812e-05     -35.8716 
         350      20.8655  -5.3822e-05  1.00341e-05     -35.8716 
         350      21.0058 -5.35841e-05  9.90538e-06     -35.8716 
         350      21.1465 -5.33358e-05  9.80082e-06     -35.8716 
         350      21.2877 -5.31914e-05  9.60312e-06     -35.8716 
         350      21.4294  -5.3065e-05  9.35966e-06     -35.8716 
         350      21.5716 -5.28777e-05  9.16229e-06     -35.8716 
         350      21.7142 -5.26528e-05  9.00552e-06     -35.8716 
         350      21.8573 -5.24093e-05  8.88218e-06     -35.8716 
         350      22.0008 -5.21632e-05  8.78473e-06     -35.8716 
         350      22.1449 -5.19261e-05  8.70492e-06     -35.8716 
         350      22.2893 -5.17075e-05   8.6349e-06     -35.8716 
         350      22.4344 -5.15131e-05  8.56717e-06     -35.8716 
         350      22.5797 -5.13463e-05  8.49543e-06     -35.8716 
         350      22.7257  -5.1208e-05   8.4146e-06     -35.8716 
         350      22.8721 -5.10967e-05  8.32156e-06     -35.8716 
         350      23.0189 -5.10095e-05  8.21539e-06     -35.8716 
         350      23.1663 -5.09412e-05  8.09744e-06     -35.8716 
         350       23.314 -5.08859e-05  7.97221e-06     -35.8716 
         350      23.4623 -5.08359e-05  7.84693e-06     -35.8716 
         350       23.611 -5.06883e-05   7.7801e-06     -35.8716 
         350      23.7602 -5.03919e-05  7.78799e-06     -35.8716 
         350        23.91 -5.01302e-05  7.77074e-06     -35.8716 
         350        24.06 -4.99054e-05  7.72647e-06     -35.8716 
         350      24.2107 -4.97172e-05   7.6553e-06     -35.8716 
         350      24.3617 -4.95647e-05  7.55944e-06     -35.8716 
         350      24.5133  -4.9445e-05  7.44259e-06     -35.8716 
         350      24.6653 -4.93539e-05  7.31024e-06     -35.8716 
         350      24.8178 -4.92859e-05  7.16866e-06     -35.8716 
         350      24.9708 -4.92346e-05  7.02523e-06     -35.8716 
         350      25.1242 -4.91931e-05  6.88773e-06     -35.8716 
         350      25.2781  -4.9154e-05  6.76351e-06     -35.8716 
         350      25.4324 -4.91102e-05  6.65974e-06     -35.8716 
         350      25.5873 -4.90557e-05  6.58203e-06     -35.8716 
         350      25.7426 -4.89856e-05  6.53442e-06     -35.8716 
         350      25.8984 -4.88974e-05  6.51814e-06     -35.8716 
         350      26.0546  -4.8792e-05  6.53119e-06     -35.8716 
         350      26.2114 -4.87266e-05   6.4631e-06     -35.8716 
         350      26.3686   -4.867e-05  6.36663e-06     -35.8716 
         350      26.5262 -4.85849e-05  6.31649e-06     -35.8716 
         350      26.6844 -4.84822e-05  6.29387e-06     -35.8716 
         350      26.8429 -4.83712e-05  6.28388e-06     -35.8716 
         350       27.002 -4.82585e-05   6.2751e-06     -35.8715 
         350      27.1615 -4.81491e-05  6.25942e-06     -35.8715 
         350      27.3216 -4.80457e-05  6.23176e-06     -35.8715 
         350      27.4821   -4.795e-05  6.18989e-06     -35.8715 
         350       27.643 -4.78619e-05  6.13423e-06     -35.8715 
         350      27.8044 -4.77798e-05  6.06745e-06     -35.8715 
         350      27.9663 -4.77015e-05  5.99458e-06     -35.8715 
         350      28.1287 -4.76233e-05  5.92238e-06     -35.8715 
         350      28.2914  -4.7541e-05  5.85959e-06     -35.8715 
         350      28.4548 -4.74497e-05  5.81634e-06     -35.8715 
         350      28.6185 -4.73504e-05  5.79476e-06     -35.8715 
         350      28.7828 -4.73269e-05  5.68102e-06     -35.8715 
         350      28.9475 -4.73098e-05  5.57732e-06     -35.8715 
         350      29.1126 -4.72933e-05  5.48785e-06     -35.8715 
         350      29.2784 -4.72726e-05  5.41455e-06     -35.8715 
         350      29.4444 -4.72442e-05  5.35766e-06     -35.8715 
         350       29.611 -4.72059e-05  5.31531e-06     -35.8715 
         350       29.778 -4.71572e-05  5.28415e-06     -35.8715 
         350      29.9456 -4.70987e-05  5.25935e-06     -35.8715 
         350      30.1137 -4.70326e-05  5.23519e-06     -35.8715 
         350      30.2821 -4.69621e-05  5.20552e-06     -35.8715 
         350      30.4511 -4.68913e-05  5.16434e-06     -35.8715 
         350      30.6204 -4.68248e-05  5.10669e-06     -35.8715 
         350      30.7903  -4.6767e-05  5.02925e-06     -35.8715 
         350      30.9606 -4.67222e-05  4.93177e-06     -35.8715 
         350      31.1315 -4.66928e-05  4.81766e-06     -35.8715 
         350      31.3028 -4.66795e-05   4.6958e-06     -35.8715 
         350      31.4745 -4.66799e-05  4.58178e-06     -35.8715 
         350      31.6468 -4.66873e-05  4.49918e-06     -35.8715 
         350      31.8194 -4.66899e-05  4.48189e-06     -35.8715 
         350      31.9926  -4.6669e-05  4.57561e-06     -35.8715 
         350      32.1662 -4.65978e-05  4.83993e-06     -35.8715 
         350      32.3404 -4.64619e-05  4.66519e-06     -35.8715 
         350      32.5149 -4.63976e-05  4.44419e-06     -35.8715 
         350        32.69 -4.63878e-05  4.29437e-06     -35.8715 
         350      32.8655 -4.64071e-05   4.1918e-06     -35.8715 
         350      33.0414 -4.64361e-05  4.11799e-06     -35.8715 
         350       33.218 -4.64611e-05   4.0604e-06     -35.8715 
         350      33.3948 -4.64733e-05  4.01329e-06     -35.8715 
         350      33.5723 -4.64679e-05  3.97774e-06     -35.8715 
         350        33.75 -4.64436e-05  3.96235e-06     -35.8715 
         350      33.9284  -4.6402e-05  3.98342e-06     -35.8715 
         350      34.1073 -4.63471e-05  4.06537e-06     -35.8715 
         350      34.2865 -4.62845e-05  4.24079e-06     -35.8715 
         350      34.4663 -4.62912e-05  4.19807e-06     -35.8715 
         350      34.6465 -4.63211e-05  4.05819e-06     -35.8715 
         350      34.8272 -4.63412e-05  3.95695e-06     -35.8715 
         350      35.0083 -4.63529e-05  3.88675e-06     -35.8715 
         350        35.19 -4.63574e-05  3.84054e-06     -35.8715 
         350      35.3721 -4.63558e-05  3.81227e-06     -35.8715 
         350      35.5546  -4.6349e-05  3.79655e-06     -35.8715 
         350      35.7377 -4.63381e-05  3.78872e-06     -35.8715 
         350      35.9211 -4.63239e-05  3.78482e-06     -35.8715 
         350      36.1052 -4.63072e-05  3.78152e-06     -35.8715 
         350      36.2895 -4.62885e-05  3.77613e-06     -35.8715 
         350      36.4745 -4.62686e-05  3.76649e-06     -35.8715 
         350      36.6598 -4.62479e-05  3.75101e-06     -35.8715 
         350      36.8457 -4.62269e-05  3.72853e-06     -35.8715 
         350      37.0321 -4.62059e-05  3.69838e-06     -35.8715 
         350      37.2188 -4.61854e-05  3.66031e-06     -35.8715 
         350      37.4062 -4.61655e-05  3.61434e-06     -35.8715 
         350      37.5938 -4.61465e-05  3.56095e-06     -35.8715 
         350      37.7821 -4.61285e-05  3.50073e-06     -35.8715 
         350      37.9707 -4.61116e-05  3.43467e-06     -35.8715 
         350      38.1599 -4.60959e-05  3.36376e-06     -35.8715 
         350      38.3496 -4.60814e-05  3.28928e-06     -35.8715 
         350      38.5396  -4.6068e-05  3.21263e-06     -35.8714 
         350      38.7302 -4.60558e-05  3.13506e-06     -35.8714 
         350      38.9211 -4.60446e-05   3.0581e-06     -35.8714 
         350      39.1127 -4.60345e-05  2.98296e-06     -35.8714 
         350      39.3046 -4.60252e-05  2.91104e-06     -35.8714 
         350      39.4971 -4.60167e-05  2.84337e-06     -35.8714 
         350      39.6899 -4.60089e-05  2.78102e-06     -35.8714 
         350      39.8833 -4.60016e-05  2.72466e-06     -35.8714 
         350      40.0772 -4.59949e-05  2.67481e-06     -35.8714 
         350      40.2714 -4.59886e-05  2.63171e-06     -35.8714 
         350      40.4663 -4.59826e-05  2.59512e-06     -35.8714 
         350      40.6615  -4.5977e-05  2.56454e-06     -35.8714 
         350      40.8573 -4.59718e-05  2.53893e-06     -35.8714 
         350      41.0534  -4.5967e-05  2.51686e-06     -35.8714 
         350      41.2501 -4.59628e-05  2.49631e-06     -35.8714 
         350      41.4473 -4.59594e-05  2.47473e-06     -35.8714 
         350      41.6448  -4.5957e-05  2.44899e-06     -35.8714 
         350      41.8429 -4.59559e-05  2.41525e-06     -35.8714 
         350      42.0414 -4.59567e-05  2.36909e-06     -35.8714 
         350      42.2405 -4.59597e-05  2.30523e-06     -35.8714 
         350      42.4399  -4.6002e-05  2.27382e-06     -35.8714 
         350      42.6399 -4.60336e-05  2.28198e-06     -35.8714 
         350      42.8404 -4.60314e-05  2.30912e-06     -35.8714 
         350      43.0412 -4.59975e-05   2.3521e-06     -35.8714 
         350      43.2426 -4.59376e-05  2.40613e-06     -35.8714 
         350      43.4444 -4.58612e-05  2.46387e-06     -35.8714 
         350      43.6467 -4.57831e-05  2.51521e-06     -35.8714 
         350      43.8494 -4.57247e-05  2.54624e-06     -35.8714 
         350      44.0527 -4.57156e-05  2.53889e-06     -35.8714 
         350      44.2563 -4.57944e-05  2.46996e-06     -35.8714 
         350      44.4606 -4.60115e-05   2.3103e-06     -35.8714 
         350      44.6653 -4.60942e-05  2.27912e-06     -35.8714 
         350      44.8704 -4.60095e-05  2.36689e-06     -35.8714 
         350       45.076 -4.59452e-05  2.42339e-06     -35.8714 
         350       45.282 -4.58978e-05  2.45428e-06     -35.8714 
         350      45.4886 -4.58643e-05  2.46469e-06     -35.8714 
         350      45.6955 -4.58426e-05  2.45905e-06     -35.8714 
         350       45.903 -4.58307e-05  2.44112e-06     -35.8714 
         350      46.1111 -4.58274e-05  2.41406e-06     -35.8714 
         350      46.3194  -4.5832e-05  2.38044e-06     -35.8714 
         350      46.5283  -4.5844e-05  2.34213e-06     -35.8714 
         350      46.7376  -4.5863e-05   2.3005e-06     -35.8714 
         350      46.9475 -4.58894e-05  2.25625e-06     -35.8714 
         350      47.1577  -4.5923e-05   2.2096e-06     -35.8714 
         350      47.3685 -4.59643e-05   2.1601e-06     -35.8714 
         350      47.5798 -4.60001e-05   2.1385e-06     -35.8713 
         350      47.7914 -4.60004e-05  2.18043e-06     -35.8713 
         350      48.0037 -4.59931e-05  2.20275e-06     -35.8713 