Variables = x, y, u, v, p

Zone, I=800, F=POINT
          -5            0            0            0     -20.1847 
          -5     0.000234 -2.84856e-06  1.64424e-10     -20.1847 
          -5     0.000939 -1.07134e-05  6.67593e-10     -20.1847 
          -5     0.002113 -2.16207e-05  1.52284e-09     -20.1847 
          -5     0.003759 -3.29581e-05  2.73224e-09     -20.1847 
          -5     0.005872 -4.21282e-05  4.25289e-09     -20.1847 
          -5     0.008457 -4.74102e-05   5.9976e-09     -20.1847 
          -5      0.01151 -4.83861e-05  7.83357e-09     -20.1847 
          -5     0.015036  -4.6095e-05  9.63588e-09     -20.1847 
          -5     0.019031 -4.26372e-05  1.13411e-08     -20.1847 
          -5     0.023493 -4.03606e-05  1.30183e-08     -20.1847 
          -5     0.028429 -4.08534e-05  1.48975e-08     -20.1847 
          -5     0.033831 -4.41424e-05  1.73097e-08     -20.1847 
          -5     0.039706 -4.85395e-05  2.05412e-08     -20.1847 
          -5     0.046047 -5.14861e-05  2.45704e-08     -20.1847 
          -5     0.052863 -5.14217e-05  2.88505e-08     -20.1847 
          -5      0.06015 -4.98373e-05  3.23387e-08     -20.1847 
          -5       0.0679 -5.14162e-05  3.43581e-08     -20.1847 
          -5     0.076126 -5.79554e-05  3.71525e-08     -20.1847 
          -5     0.084816 -5.45638e-05  5.06007e-08     -20.1847 
          -5     0.093982 -5.81197e-05  5.13106e-08     -20.1847 
          -5     0.103611 -6.01938e-05  4.01519e-08     -20.1847 
          -5     0.113718 -6.15303e-05  3.54566e-08     -20.1847 
          -5     0.124286 -6.26552e-05  4.37191e-08     -20.1847 
          -5     0.135333 -6.38627e-05  6.12065e-08     -20.1847 
          -5      0.14685 -6.52239e-05  7.78554e-08     -20.1847 
          -5     0.158827 -6.66466e-05   8.3077e-08     -20.1847 
          -5     0.171284 -6.79715e-05  7.22366e-08     -20.1847 
          -5     0.184201 -6.90731e-05   5.1726e-08     -20.1847 
          -5     0.197599 -6.99602e-05  3.93459e-08     -20.1847 
          -5     0.211455 -7.07947e-05   5.5339e-08     -20.1847 
          -5     0.225792 -7.17813e-05   9.7172e-08     -20.1847 
          -5       0.2406 -7.27974e-05  8.90271e-08     -20.1847 
          -5     0.255865 -7.32676e-05 -5.41213e-08     -20.1847 
          -5     0.271613 -7.39226e-05 -1.09869e-07     -20.1847 
          -5     0.287818   -7.457e-05 -1.37877e-07     -20.1847 
          -5     0.304506 -7.51808e-05  -1.5111e-07     -20.1847 
          -5      0.32165 -7.57257e-05  -1.6606e-07     -20.1847 
          -5     0.339278 -7.62141e-05 -1.84194e-07     -20.1847 
          -5     0.357377 -7.66542e-05 -2.06848e-07     -20.1847 
          -5      0.37593 -7.70541e-05 -2.35208e-07     -20.1847 
          -5     0.394968 -7.74227e-05  -2.7037e-07     -20.1847 
          -5     0.414461 -7.77671e-05 -3.13135e-07     -20.1847 
          -5      0.43444 -7.80946e-05 -3.64209e-07     -20.1847 
          -5     0.454872 -7.84107e-05 -4.23909e-07     -20.1847 
          -5     0.475791 -7.87207e-05 -4.92484e-07     -20.1848 
          -5     0.497163 -7.90274e-05  -5.6972e-07     -20.1848 
          -5     0.519021 -7.93335e-05 -6.55378e-07     -20.1848 
          -5      0.54135 -7.96395e-05  -7.4881e-07     -20.1848 
          -5     0.564131 -7.99441e-05 -8.49111e-07     -20.1848 
          -5       0.5874 -8.02457e-05 -9.55426e-07     -20.1848 
          -5     0.611121   -8.054e-05 -1.06643e-06     -20.1848 
          -5      0.63533 -8.08225e-05   -1.181e-06     -20.1848 
          -5      0.65999 -8.10869e-05 -1.29764e-06     -20.1848 
          -5     0.685139 -8.13265e-05  -1.4152e-06     -20.1848 
          -5     0.710759 -8.15338e-05 -1.53232e-06     -20.1848 
          -5     0.736828 -8.17008e-05 -1.64776e-06     -20.1848 
          -5     0.763387 -8.18202e-05 -1.76075e-06     -20.1848 
          -5     0.790396 -8.18844e-05  -1.8704e-06     -20.1848 
          -5     0.817896 -8.18872e-05 -1.97644e-06     -20.1848 
          -5     0.845843 -8.18232e-05 -2.07856e-06     -20.1848 
          -5     0.874283 -8.16884e-05  -2.1771e-06     -20.1848 
          -5      0.90317  -8.1481e-05 -2.27232e-06     -20.1848 
          -5     0.932551 -8.12002e-05 -2.36497e-06     -20.1848 
          -5     0.962401 -8.08476e-05 -2.45562e-06     -20.1848 
          -5     0.992697 -8.04269e-05 -2.54466e-06     -20.1849 
          -5      1.02349 -7.99415e-05 -2.63225e-06     -20.1849 
          -5      1.05472 -7.93972e-05  -2.7174e-06     -20.1849 
          -5      1.08645  -7.8797e-05 -2.79802e-06     -20.1849 
          -5      1.11863 -7.81438e-05 -2.86973e-06     -20.1849 
          -5       1.1513 -7.74522e-05 -2.92895e-06     -20.1849 
          -5      1.18444 -7.67695e-05 -2.99326e-06     -20.1849 
          -5      1.21802 -7.60368e-05 -3.05383e-06     -20.1849 
          -5      1.25211 -7.52814e-05 -3.10888e-06     -20.1849 
          -5      1.28663 -7.45212e-05 -3.15739e-06     -20.1849 
          -5      1.32165 -7.37606e-05 -3.19922e-06      -20.185 
          -5      1.35712 -7.29967e-05 -3.23463e-06      -20.185 
          -5      1.39308 -7.22161e-05 -3.26433e-06      -20.185 
          -5      1.42951 -7.14008e-05 -3.28905e-06      -20.185 
          -5      1.46638 -7.05286e-05 -3.30941e-06      -20.185 
          -5      1.50375 -6.95725e-05 -3.32576e-06      -20.185 
          -5      1.54156  -6.8508e-05 -3.33786e-06      -20.185 
          -5      1.57987 -6.73093e-05 -3.34479e-06     -20.1851 
          -5      1.61863 -6.59572e-05 -3.34478e-06     -20.1851 
          -5      1.65788 -6.44343e-05  -3.3352e-06     -20.1851 
          -5      1.69757 -6.27345e-05  -3.3125e-06     -20.1851 
          -5      1.73776 -6.08544e-05 -3.27229e-06     -20.1851 
          -5      1.77842 -5.88032e-05 -3.20966e-06     -20.1851 
          -5      1.81952 -5.66116e-05 -3.15368e-06     -20.1852 
          -5      1.86113 -5.42718e-05 -3.07678e-06     -20.1852 
          -5      1.90316  -5.1813e-05 -2.97846e-06     -20.1852 
          -5      1.94571 -4.92674e-05 -2.86615e-06     -20.1852 
          -5      1.98869 -4.66836e-05 -2.75404e-06     -20.1852 
          -5      2.03217 -4.41091e-05 -2.66526e-06     -20.1853 
          -5      2.07612 -4.16041e-05 -2.63598e-06     -20.1853 
          -5      2.12051 -3.92315e-05 -2.62328e-06     -20.1853 
          -5       2.1654 -3.69929e-05 -2.59848e-06     -20.1853 
          -5      2.21073 -3.49056e-05 -2.61256e-06     -20.1853 
          -5      2.25656 -3.29815e-05 -2.65314e-06     -20.1854 
          -5      2.30283 -3.12266e-05 -2.71013e-06     -20.1854 
          -5       2.3496 -2.96278e-05 -2.77317e-06     -20.1854 
          -5      2.39685 -2.81943e-05 -2.78563e-06     -20.1854 
          -5      2.44452 -2.68838e-05 -2.73894e-06     -20.1855 
          -5      2.49271 -2.56218e-05 -2.64034e-06     -20.1855 
          -5      2.54132 -2.43724e-05 -2.45519e-06     -20.1855 
          -5      2.59044 -2.31011e-05 -2.15057e-06     -20.1855 
          -5         2.64 -2.17833e-05 -1.69761e-06     -20.1856 
          -5      2.69006 -2.03959e-05 -1.07039e-06     -20.1856 
          -5      2.74056 -1.89257e-05 -2.49837e-07     -20.1856 
          -5      2.79156 -1.73607e-05  7.79551e-07     -20.1856 
          -5      2.84304 -1.56979e-05  2.02482e-06     -20.1857 
          -5      2.89494 -1.39403e-05   3.4853e-06     -20.1857 
          -5      2.94735 -1.20923e-05  5.15654e-06     -20.1857 
          -5       3.0002 -1.01693e-05  7.02173e-06     -20.1858 
          -5      3.05355 -8.18598e-06  9.06252e-06     -20.1858 
          -5      3.10733 -6.16851e-06   1.1248e-05     -20.1858 
          -5      3.16163 -4.14175e-06  1.35484e-05     -20.1859 
          -5      3.21639 -2.14039e-06  1.59248e-05     -20.1859 
          -5      3.27158 -2.03816e-07   1.8336e-05     -20.1859 
          -5      3.32729  1.62841e-06  2.07472e-05     -20.1859 
          -5      3.38342  3.30349e-06   2.3093e-05      -20.186 
          -5      3.44007  4.81274e-06  2.53099e-05      -20.186 
          -5      3.49714  5.97951e-06  2.73762e-05      -20.186 
          -5      3.55472  6.63625e-06  2.92541e-05     -20.1861 
          -5      3.61273  6.70589e-06  3.09192e-05     -20.1861 
          -5      3.67125  6.21928e-06  3.23765e-05     -20.1861 
          -5      3.73025  5.31638e-06  3.36557e-05     -20.1862 
          -5      3.78967  4.23754e-06  3.48196e-05     -20.1862 
          -5      3.84961  3.29397e-06  3.59708e-05     -20.1862 
          -5      3.90996  2.83043e-06  3.72486e-05     -20.1863 
          -5      3.97084  1.65873e-06   3.8034e-05     -20.1863 
          -5      4.03214  6.71253e-07  3.88758e-05     -20.1863 
          -5      4.09395 -2.25776e-07  3.97198e-05     -20.1864 
          -5      4.15624 -1.10102e-06  4.05206e-05     -20.1864 
          -5      4.21895 -1.98856e-06  4.12514e-05     -20.1864 
          -5      4.28217 -2.89886e-06  4.19023e-05     -20.1865 
          -5      4.34582 -3.82239e-06  4.24726e-05     -20.1865 
          -5      4.40998 -4.74304e-06  4.29711e-05     -20.1865 
          -5      4.47457 -5.63923e-06  4.34097e-05     -20.1866 
          -5      4.53968 -6.49532e-06  4.38037e-05     -20.1866 
          -5      4.60525 -7.30084e-06  4.41665e-05     -20.1866 
          -5      4.67125 -8.05529e-06  4.45088e-05     -20.1866 
          -5      4.73777 -8.77026e-06  4.48386e-05     -20.1867 
          -5       4.8047 -9.46343e-06  4.51583e-05     -20.1867 
          -5      4.87216 -1.01585e-05   4.5467e-05     -20.1867 
          -5      4.94003 -1.08732e-05  4.57607e-05     -20.1868 
          -5      5.00843 -1.16124e-05  4.60357e-05     -20.1868 
          -5      5.07724 -1.23484e-05  4.62915e-05     -20.1868 
          -5      5.14658 -1.30063e-05  4.65375e-05     -20.1869 
          -5      5.21639 -1.35728e-05  4.67048e-05     -20.1869 
          -5      5.28661 -1.41675e-05  4.68244e-05     -20.1869 
          -5      5.35736    -1.47e-05    4.704e-05     -20.1869 
          -5      5.42852 -1.53072e-05  4.70973e-05      -20.187 
          -5      5.50021 -1.59106e-05  4.71872e-05      -20.187 
          -5      5.57231 -1.64628e-05  4.72355e-05      -20.187 
          -5      5.64493 -1.69801e-05  4.72406e-05      -20.187 
          -5      5.71803 -1.74741e-05  4.72023e-05     -20.1871 
          -5      5.79154 -1.79532e-05  4.71219e-05     -20.1871 
          -5      5.86558 -1.84244e-05  4.70018e-05     -20.1871 
          -5      5.94003 -1.88906e-05  4.68456e-05     -20.1871 
          -5      6.01501 -1.93545e-05  4.66576e-05     -20.1871 
          -5       6.0904 -1.98154e-05  4.64431e-05     -20.1872 
          -5      6.16632 -2.02731e-05  4.62074e-05     -20.1872 
          -5      6.24271 -2.07252e-05  4.59563e-05     -20.1872 
          -5       6.3195 -2.11688e-05  4.56951e-05     -20.1872 
          -5      6.39683 -2.16016e-05   4.5428e-05     -20.1872 
          -5      6.47457   -2.202e-05  4.51586e-05     -20.1872 
          -5      6.55284 -2.24218e-05  4.48874e-05     -20.1873 
          -5      6.63152 -2.28038e-05  4.46137e-05     -20.1873 
          -5      6.71073 -2.31645e-05  4.43322e-05     -20.1873 
          -5      6.79034 -2.35016e-05  4.40341e-05     -20.1873 
          -5      6.87049 -2.38143e-05  4.37048e-05     -20.1873 
          -5      6.95111 -2.41013e-05  4.33237e-05     -20.1873 
          -5      7.03214 -2.43525e-05  4.28729e-05     -20.1873 
          -5       7.1137 -2.44705e-05  4.26171e-05     -20.1873 
          -5      7.19566 -2.47501e-05  4.23362e-05     -20.1873 
          -5      7.27816 -2.51197e-05  4.20248e-05     -20.1873 
          -5      7.36106 -2.55251e-05  4.16874e-05     -20.1873 
          -5      7.44451 -2.59294e-05  4.13335e-05     -20.1873 
          -5      7.52842 -2.63082e-05  4.09761e-05     -20.1873 
          -5      7.61273 -2.66488e-05  4.06289e-05     -20.1873 
          -5      7.69758 -2.69481e-05  4.03026e-05     -20.1873 
          -5      7.78283 -2.72089e-05  4.00055e-05     -20.1873 
          -5      7.86862 -2.74396e-05  3.97395e-05     -20.1873 
          -5      7.95481   -2.765e-05  3.95011e-05     -20.1873 
          -5      8.04155 -2.78516e-05  3.92793e-05     -20.1872 
          -5      8.12868  -2.8054e-05  3.90572e-05     -20.1872 
          -5      8.21635 -2.82644e-05  3.88112e-05     -20.1872 
          -5      8.30449 -2.84858e-05  3.85143e-05     -20.1872 
          -5      8.39303 -2.87157e-05  3.81375e-05     -20.1872 
          -5      8.48211 -2.89462e-05  3.76529e-05     -20.1872 
          -5      8.57159 -2.90723e-05  3.72508e-05     -20.1871 
          -5      8.66161 -2.91186e-05  3.70085e-05     -20.1871 
          -5      8.75203 -2.92007e-05  3.67772e-05     -20.1871 
          -5      8.84299 -2.93516e-05  3.65406e-05      -20.187 
          -5      8.93443 -2.96088e-05  3.62347e-05      -20.187 
          -5      9.02626 -3.00137e-05  3.57326e-05      -20.187 
          -5      9.11863 -3.02149e-05  3.53611e-05     -20.1869 
          -5      9.21139 -3.02912e-05   3.5129e-05     -20.1869 
          -5      9.30471 -3.04191e-05  3.48516e-05     -20.1869 
          -5      9.39841 -3.05752e-05  3.45532e-05     -20.1868 
          -5      9.49267 -3.07292e-05  3.42529e-05     -20.1868 
          -5      9.58739 -3.08461e-05  3.39673e-05     -20.1867 
          -5      9.68251 -3.09277e-05  3.37022e-05     -20.1867 
          -5      9.77817 -3.11485e-05  3.34469e-05     -20.1866 
          -5      9.87422 -3.12998e-05  3.32555e-05     -20.1866 
          -5      9.97083 -3.13873e-05  3.31011e-05     -20.1865 
          -5      10.0678 -3.14214e-05  3.29598e-05     -20.1864 
          -5      10.1654 -3.14168e-05  3.28106e-05     -20.1864 
          -5      10.2633 -3.13904e-05  3.26364e-05     -20.1863 
          -5      10.3618 -3.13592e-05  3.24244e-05     -20.1863 
          -5      10.4607 -3.13395e-05  3.21676e-05     -20.1862 
          -5      10.5601 -3.13449e-05  3.18663e-05     -20.1861 
          -5        10.66 -3.13847e-05  3.15289e-05      -20.186 
          -5      10.7603  -3.1463e-05  3.11757e-05      -20.186 
          -5      10.8611  -3.1577e-05   3.0839e-05     -20.1859 
          -5      10.9623 -3.17161e-05  3.05687e-05     -20.1858 
          -5      11.0641 -3.18609e-05  3.04329e-05     -20.1857 
          -5      11.1663 -3.19822e-05   3.0524e-05     -20.1856 
          -5       11.269 -3.20733e-05  3.05512e-05     -20.1855 
          -5      11.3721 -3.22418e-05  2.98805e-05     -20.1854 
          -5      11.4757 -3.24394e-05  2.92957e-05     -20.1854 
          -5      11.5798 -3.26452e-05  2.87657e-05     -20.1853 
          -5      11.6844 -3.28453e-05  2.82736e-05     -20.1852 
          -5      11.7894 -3.30324e-05  2.78089e-05      -20.185 
          -5       11.895 -3.32027e-05  2.73677e-05     -20.1849 
          -5      12.0009 -3.33543e-05  2.69482e-05     -20.1848 
          -5      12.1073 -3.34867e-05  2.65472e-05     -20.1847 
          -5      12.2142 -3.35976e-05    2.616e-05     -20.1846 
          -5      12.3216 -3.36831e-05  2.57762e-05     -20.1845 
          -5      12.4294 -3.37356e-05  2.53807e-05     -20.1844 
          -5      12.5378 -3.37435e-05  2.49505e-05     -20.1842 
          -5      12.6465 -3.36901e-05   2.4457e-05     -20.1841 
          -5      12.7558 -3.35538e-05  2.38633e-05      -20.184 
          -5      12.8656 -3.36055e-05  2.30214e-05     -20.1839 
          -5      12.9757 -3.36486e-05  2.23648e-05     -20.1837 
          -5      13.0864 -3.36509e-05  2.18833e-05     -20.1836 
          -5      13.1975  -3.3617e-05  2.15298e-05     -20.1834 
          -5      13.3092 -3.35605e-05  2.12491e-05     -20.1833 
          -5      13.4212 -3.35016e-05  2.09838e-05     -20.1831 
          -5      13.5338 -3.34644e-05  2.06771e-05      -20.183 
          -5      13.6468 -3.34729e-05  2.02807e-05     -20.1828 
          -5      13.7603 -3.35457e-05  1.97626e-05     -20.1827 
          -5      13.8743 -3.36904e-05  1.91149e-05     -20.1825 
          -5      13.9886 -3.38962e-05  1.83689e-05     -20.1823 
          -5      14.1036 -3.41263e-05  1.76047e-05     -20.1822 
          -5      14.2189 -3.39885e-05  1.72409e-05      -20.182 
          -5      14.3348  -3.3563e-05   1.7298e-05     -20.1818 
          -5       14.451 -3.33747e-05  1.72891e-05     -20.1817 
          -5      14.5678 -3.33556e-05  1.72144e-05     -20.1815 
          -5      14.6851 -3.34476e-05  1.70784e-05     -20.1813 
          -5      14.8028 -3.36014e-05  1.68888e-05     -20.1811 
          -5       14.921 -3.37774e-05  1.66554e-05     -20.1809 
          -5      15.0396 -3.39439e-05  1.63898e-05     -20.1807 
          -5      15.1588 -3.40787e-05  1.61041e-05     -20.1805 
          -5      15.2783 -3.41667e-05  1.58109e-05     -20.1803 
          -5      15.3984 -3.42013e-05  1.55219e-05     -20.1801 
          -5       15.519 -3.41823e-05   1.5248e-05     -20.1799 
          -5        15.64 -3.41165e-05  1.49987e-05     -20.1797 
          -5      15.7615 -3.40161e-05  1.47809e-05     -20.1795 
          -5      15.8834 -3.38985e-05     1.46e-05     -20.1793 
          -5      16.0058 -3.37847e-05  1.44581e-05      -20.179 
          -5      16.1286 -3.38243e-05   1.4016e-05     -20.1788 
          -5       16.252 -3.38991e-05  1.34749e-05     -20.1786 
          -5      16.3759  -3.3921e-05   1.3047e-05     -20.1783 
          -5      16.5002 -3.38995e-05  1.27142e-05     -20.1781 
          -5       16.625 -3.38459e-05  1.24526e-05     -20.1779 
          -5      16.7501 -3.37734e-05  1.22367e-05     -20.1776 
          -5      16.8759 -3.36971e-05  1.20392e-05     -20.1774 
          -5       17.002 -3.36352e-05  1.18361e-05     -20.1771 
          -5      17.1287 -3.36078e-05  1.16095e-05     -20.1769 
          -5      17.2557 -3.36381e-05   1.1354e-05     -20.1766 
          -5      17.3834 -3.37514e-05  1.10816e-05     -20.1763 
          -5      17.5115 -3.39754e-05  1.08306e-05     -20.1761 
          -5      17.6399 -3.43389e-05  1.06732e-05     -20.1758 
          -5       17.769 -3.48731e-05  1.07256e-05     -20.1755 
          -5      17.8984 -3.46388e-05  1.02916e-05     -20.1752 
          -5      18.0284 -3.43811e-05  1.00154e-05      -20.175 
          -5      18.1587 -3.41722e-05  9.90302e-06     -20.1747 
          -5      18.2896 -3.39968e-05  9.88421e-06     -20.1744 
          -5       18.421 -3.38509e-05  9.90221e-06     -20.1741 
          -5      18.5528 -3.37368e-05   9.9134e-06     -20.1738 
          -5      18.6851 -3.36596e-05  9.88742e-06     -20.1735 
          -5      18.8178 -3.36244e-05   9.8071e-06     -20.1732 
          -5      18.9511 -3.36325e-05  9.66799e-06     -20.1729 
          -5      19.0847 -3.36789e-05  9.47853e-06     -20.1725 
          -5      19.2189   -3.372e-05  9.18336e-06     -20.1722 
          -5      19.3535 -3.37082e-05  8.83639e-06     -20.1719 
          -5      19.4886 -3.36842e-05  8.59468e-06     -20.1716 
          -5      19.6242  -3.3646e-05  8.43148e-06     -20.1712 
          -5      19.7602 -3.35972e-05  8.31967e-06     -20.1709 
          -5      19.8968 -3.35453e-05  8.23364e-06     -20.1706 
          -5      20.0337 -3.35004e-05  8.15138e-06     -20.1702 
          -5      20.1712  -3.3474e-05  8.05516e-06     -20.1699 
          -5      20.3091  -3.3477e-05   7.9331e-06     -20.1695 
          -5      20.4475 -3.35185e-05  7.77908e-06     -20.1692 
          -5      20.5864 -3.36037e-05  7.59369e-06     -20.1688 
          -5      20.7257 -3.37323e-05  7.38387e-06     -20.1685 
          -5      20.8655 -3.38967e-05  7.16177e-06     -20.1681 
          -5      21.0058 -3.40794e-05  6.94488e-06     -20.1677 
          -5      21.1465 -3.42518e-05  6.75323e-06     -20.1673 
          -5      21.2877 -3.43713e-05  6.60861e-06      -20.167 
          -5      21.4294 -3.43794e-05  6.53097e-06     -20.1666 
          -5      21.5716 -3.41987e-05  6.53607e-06     -20.1662 
          -5      21.7142 -3.42865e-05  6.12721e-06     -20.1658 
          -5      21.8573 -3.43887e-05  5.70988e-06     -20.1654 
          -5      22.0008 -3.43946e-05  5.41998e-06      -20.165 
          -5      22.1449 -3.43219e-05  5.26154e-06     -20.1646 
          -5      22.2893 -3.41978e-05  5.23135e-06     -20.1642 
          -5      22.4344 -3.40543e-05  5.31389e-06     -20.1638 
          -5      22.5797  -3.3924e-05  5.47809e-06     -20.1633 
          -5      22.7257 -3.38353e-05  5.67497e-06     -20.1629 
          -5      22.8721 -3.38084e-05  5.83491e-06     -20.1625 
          -5      23.0189  -3.3851e-05  5.86693e-06     -20.1621 
          -5      23.1663 -3.39536e-05  5.65833e-06     -20.1616 
          -5       23.314 -3.40861e-05   5.0756e-06     -20.1612 
          -5      23.4623 -3.41018e-05  4.34523e-06     -20.1607 
          -5       23.611 -3.37467e-05  4.81207e-06     -20.1603 
          -5      23.7602 -3.34749e-05  4.98429e-06     -20.1598 
          -5        23.91 -3.32712e-05  4.93742e-06     -20.1594 
          -5        24.06 -3.31218e-05  4.73965e-06     -20.1589 
          -5      24.2107  -3.3014e-05  4.44998e-06     -20.1584 
          -5      24.3617 -3.29371e-05   4.1188e-06      -20.158 
          -5      24.5133 -3.28811e-05  3.78575e-06     -20.1575 
          -5      24.6653 -3.28377e-05  3.48101e-06      -20.157 
          -5      24.8178 -3.27998e-05  3.22286e-06     -20.1565 
          -5      24.9708 -3.27618e-05  3.01883e-06      -20.156 
          -5      25.1242 -3.27197e-05  2.86434e-06     -20.1555 
          -5      25.2781 -3.26711e-05   2.7421e-06      -20.155 
          -5      25.4324 -3.26161e-05  2.62251e-06     -20.1545 
          -5      25.5873  -3.2557e-05  2.46242e-06      -20.154 
          -5      25.7426  -3.2499e-05  2.20576e-06     -20.1535 
          -5      25.8984 -3.24506e-05  1.78204e-06      -20.153 
          -5      26.0546 -3.24244e-05    1.108e-06     -20.1524 
          -5      26.2114 -3.26745e-05   1.0056e-06     -20.1519 
          -5      26.3686 -3.29757e-05  1.19842e-06     -20.1514 
          -5      26.5262 -3.31666e-05  1.19133e-06     -20.1509 
          -5      26.6844 -3.32787e-05  1.06345e-06     -20.1503 
          -5      26.8429 -3.33363e-05  8.73605e-07     -20.1498 
          -5       27.002 -3.33585e-05  6.62822e-07     -20.1492 
          -5      27.1615 -3.33591e-05  4.58226e-07     -20.1487 
          -5      27.3216 -3.33478e-05   2.7457e-07     -20.1481 
          -5      27.4821 -3.33305e-05  1.17959e-07     -20.1475 
          -5       27.643 -3.33104e-05 -1.23176e-08      -20.147 
          -5      27.8044 -3.32878e-05 -1.21775e-07     -20.1464 
          -5      27.9663 -3.32618e-05  -2.1802e-07     -20.1458 
          -5      28.1287 -3.32299e-05 -3.09677e-07     -20.1452 
          -5      28.2914 -3.31893e-05 -4.04183e-07     -20.1446 
          -5      28.4548 -3.31373e-05 -5.07107e-07      -20.144 
          -5      28.6185 -3.30716e-05 -6.20496e-07     -20.1434 
          -5      28.7828  -3.2991e-05 -7.42816e-07     -20.1428 
          -5      28.9475 -3.28962e-05  -8.6792e-07     -20.1422 
          -5      29.1126 -3.27899e-05 -9.85236e-07     -20.1416 
          -5      29.2784 -3.26771e-05 -1.08033e-06      -20.141 
          -5      29.4444 -3.25661e-05 -1.13498e-06     -20.1404 
          -5       29.611 -3.24683e-05 -1.12874e-06     -20.1397 
          -5       29.778 -3.23991e-05 -1.04017e-06     -20.1391 
          -5      29.9456 -3.23774e-05 -8.48645e-07     -20.1385 
          -5      30.1137 -3.24268e-05 -5.37075e-07     -20.1378 
          -5      30.2821  -3.2575e-05  -9.5009e-08     -20.1372 
          -5      30.4511 -3.28315e-05  4.31613e-07     -20.1365 
          -5      30.6204 -3.26489e-05  2.41094e-08     -20.1359 
          -5      30.7903 -3.24364e-05 -3.43743e-07     -20.1352 
          -5      30.9606 -3.22091e-05 -6.67409e-07     -20.1345 
          -5      31.1315 -3.19816e-05 -9.42864e-07     -20.1339 
          -5      31.3028 -3.17684e-05 -1.16522e-06     -20.1332 
          -5      31.4745 -3.15835e-05 -1.33031e-06     -20.1325 
          -5      31.6468 -3.14396e-05 -1.43555e-06     -20.1318 
          -5      31.8194  -3.1349e-05 -1.47985e-06     -20.1311 
          -5      31.9926 -3.13222e-05 -1.46511e-06     -20.1304 
          -5      32.1662  -3.1368e-05 -1.39675e-06     -20.1297 
          -5      32.3404 -3.14935e-05 -1.28462e-06      -20.129 
          -5      32.5149  -3.1703e-05 -1.14439e-06     -20.1283 
          -5        32.69 -3.19984e-05 -9.98013e-07     -20.1276 
          -5      32.8655 -3.23424e-05 -1.35847e-06     -20.1269 
          -5      33.0414 -3.25604e-05 -1.94164e-06     -20.1262 
          -5       33.218 -3.26557e-05 -2.33377e-06     -20.1254 
          -5      33.3948 -3.26554e-05  -2.5738e-06     -20.1247 
          -5      33.5723 -3.25832e-05  -2.6969e-06      -20.124 
          -5        33.75 -3.24597e-05 -2.73312e-06     -20.1232 
          -5      33.9284  -3.2302e-05 -2.70858e-06     -20.1225 
          -5      34.1073 -3.21249e-05 -2.64531e-06     -20.1217 
          -5      34.2865 -3.19405e-05 -2.56179e-06     -20.1209 
          -5      34.4663  -3.1758e-05 -2.47286e-06     -20.1202 
          -5      34.6465 -3.15853e-05 -2.39052e-06     -20.1194 
          -5      34.8272 -3.14275e-05 -2.32367e-06     -20.1186 
          -5      35.0083 -3.12887e-05 -2.27886e-06     -20.1179 
          -5        35.19 -3.11709e-05 -2.26024e-06     -20.1171 
          -5      35.3721 -3.10751e-05 -2.27006e-06     -20.1163 
          -5      35.5546  -3.1001e-05  -2.3088e-06     -20.1155 
          -5      35.7377 -3.09474e-05 -2.37563e-06     -20.1147 
          -5      35.9211  -3.0912e-05 -2.46842e-06     -20.1139 
          -5      36.1052 -3.08922e-05 -2.58446e-06     -20.1131 
          -5      36.2895 -3.08847e-05 -2.72013e-06     -20.1123 
          -5      36.4745 -3.08856e-05 -2.87192e-06     -20.1114 
          -5      36.6598 -3.08911e-05 -3.03586e-06     -20.1106 
          -5      36.8457  -3.0897e-05 -3.20873e-06     -20.1098 
          -5      37.0321  -3.0899e-05 -3.38743e-06      -20.109 
          -5      37.2188 -3.08928e-05 -3.56963e-06     -20.1081 
          -5      37.4062 -3.08741e-05 -3.75447e-06     -20.1073 
          -5      37.5938 -3.08389e-05  -3.9418e-06     -20.1064 
          -5      37.7821 -3.07829e-05 -4.13358e-06     -20.1056 
          -5      37.9707 -3.07022e-05 -4.33291e-06     -20.1047 
          -5      38.1599 -3.06322e-05 -4.01296e-06     -20.1038 
          -5      38.3496 -3.05498e-05 -3.75696e-06      -20.103 
          -5      38.5396  -3.0469e-05 -3.56785e-06     -20.1021 
          -5      38.7302 -3.04022e-05 -3.44589e-06     -20.1012 
          -5      38.9211 -3.03598e-05 -3.39045e-06     -20.1003 
          -5      39.1127 -3.03506e-05 -3.39868e-06     -20.0995 
          -5      39.3046 -3.03816e-05 -3.46541e-06     -20.0986 
          -5      39.4971 -3.04583e-05 -3.58251e-06     -20.0977 
          -5      39.6899 -3.05847e-05 -3.73786e-06     -20.0968 
          -5      39.8833 -3.07639e-05 -3.91531e-06     -20.0959 
          -5      40.0772 -3.09978e-05 -4.09311e-06     -20.0949 
          -5      40.2714 -3.12877e-05 -4.24333e-06      -20.094 
          -5      40.4663  -3.1635e-05 -4.33137e-06     -20.0931 
          -5      40.6615 -3.20408e-05 -4.31412e-06     -20.0922 
          -5      40.8573 -3.25077e-05 -4.13934e-06     -20.0912 
          -5      41.0534 -3.23026e-05 -3.88955e-06     -20.0903 
          -5      41.2501 -3.19051e-05 -3.75932e-06     -20.0894 
          -5      41.4473  -3.1541e-05 -3.77267e-06     -20.0884 
          -5      41.6448 -3.12163e-05 -3.95517e-06     -20.0875 
          -5      41.8429 -3.09467e-05 -4.33136e-06     -20.0865 
          -5      42.0414 -3.07596e-05 -4.92401e-06     -20.0856 
          -5      42.2405 -3.06926e-05 -5.75729e-06     -20.0846 
          -5      42.4399 -3.06938e-05  -6.4731e-06     -20.0836 
          -5      42.6399 -3.04214e-05 -5.96109e-06     -20.0826 
          -5      42.8404 -3.01858e-05 -5.58046e-06     -20.0817 
          -5      43.0412  -2.9984e-05  -5.3149e-06     -20.0807 
          -5      43.2426 -2.98125e-05 -5.14805e-06     -20.0797 
          -5      43.4444  -2.9669e-05 -5.06493e-06     -20.0787 
          -5      43.6467 -2.95505e-05  -5.0509e-06     -20.0777 
          -5      43.8494 -2.94551e-05 -5.09236e-06     -20.0767 
          -5      44.0527 -2.93802e-05 -5.17674e-06     -20.0757 
          -5      44.2563  -2.9324e-05 -5.29232e-06     -20.0747 
          -5      44.4606 -2.92843e-05 -5.42882e-06     -20.0737 
          -5      44.6653 -2.92592e-05 -5.57687e-06     -20.0726 
          -5      44.8704 -2.92469e-05 -5.72827e-06     -20.0716 
          -5       45.076 -2.92453e-05 -5.87648e-06     -20.0706 
          -5       45.282 -2.92525e-05 -6.01571e-06     -20.0696 
          -5      45.4886 -2.92668e-05  -6.1419e-06     -20.0685 
          -5      45.6955 -2.92861e-05 -6.25182e-06     -20.0675 
          -5       45.903 -2.93086e-05 -6.34378e-06     -20.0664 
          -5      46.1111 -2.93323e-05 -6.41699e-06     -20.0654 
          -5      46.3194 -2.93552e-05 -6.47176e-06     -20.0643 
          -5      46.5283 -2.93756e-05 -6.50947e-06     -20.0633 
          -5      46.7376 -2.93916e-05 -6.53221e-06     -20.0622 
          -5      46.9475 -2.94014e-05 -6.54287e-06     -20.0611 
          -5      47.1577 -2.94035e-05 -6.54479e-06       -20.06 
          -5      47.3685 -2.93964e-05 -6.54168e-06      -20.059 
          -5      47.5798 -2.93788e-05 -6.53738e-06     -20.0579 
          -5      47.7914 -2.93498e-05  -6.5356e-06     -20.0568 
          -5      48.0037 -2.93089e-05 -6.53966e-06     -20.0557 