Variables = x, y, u, v, p

Zone, I=800, F=POINT
        1000            0           -0           -0    -0.524042 
        1000     0.000234 -1.44659e-06  7.85089e-12    -0.524042 
        1000     0.000939 -5.65221e-06 -3.32387e-11    -0.524042 
        1000     0.002113 -1.22037e-05 -3.19483e-10    -0.524042 
        1000     0.003759 -2.06209e-05 -1.18636e-09    -0.524042 
        1000     0.005872  -3.0489e-05  -3.1128e-09    -0.524042 
        1000     0.008457 -4.17317e-05  -6.7462e-09    -0.524042 
        1000      0.01151 -5.46113e-05 -1.29017e-08    -0.524042 
        1000     0.015036 -6.97613e-05 -2.26078e-08    -0.524042 
        1000     0.019031 -8.79052e-05 -3.70894e-08    -0.524042 
        1000     0.023493 -0.000109584  -5.7804e-08    -0.524042 
        1000     0.028429 -0.000134871 -8.65136e-08    -0.524042 
        1000     0.033831 -0.000163057 -1.25175e-07    -0.524042 
        1000     0.039706 -0.000192918 -1.76136e-07    -0.524042 
        1000     0.046047 -0.000223069 -2.41937e-07    -0.524042 
        1000     0.052863 -0.000252939   -3.256e-07    -0.524042 
        1000      0.06015 -0.000283365 -4.30343e-07    -0.524042 
        1000       0.0679 -0.000316284 -5.59605e-07    -0.524042 
        1000     0.076126 -0.000351506 -7.17487e-07    -0.524042 
        1000     0.084816 -0.000380623 -9.07952e-07    -0.524042 
        1000     0.093982 -0.000414939 -1.13576e-06    -0.524042 
        1000     0.103611 -0.000447721 -1.40533e-06    -0.524042 
        1000     0.113718 -0.000479439 -1.72206e-06    -0.524042 
        1000     0.124286 -0.000510281 -2.09059e-06    -0.524042 
        1000     0.135333 -0.000540339 -2.51688e-06    -0.524042 
        1000      0.14685 -0.000569448 -3.00607e-06    -0.524042 
        1000     0.158827 -0.000597318 -3.56318e-06    -0.524042 
        1000     0.171284 -0.000623687 -4.19465e-06    -0.524042 
        1000     0.184201 -0.000648256  -4.9049e-06    -0.524042 
        1000     0.197599 -0.000670944 -5.70041e-06    -0.524042 
        1000     0.211455 -0.000691743 -6.58497e-06    -0.524042 
        1000     0.225792 -0.000710769 -7.56499e-06    -0.524042 
        1000       0.2406 -0.000727796  -8.6446e-06    -0.524042 
        1000     0.255865 -0.000742278 -9.82711e-06    -0.524042 
        1000     0.271613 -0.000754919 -1.11183e-05    -0.524042 
        1000     0.287818 -0.000765356 -1.25197e-05    -0.524042 
        1000     0.304506  -0.00077364 -1.40368e-05    -0.524042 
        1000      0.32165 -0.000779807 -1.56699e-05    -0.524042 
        1000     0.339278 -0.000783928  -1.7424e-05    -0.524042 
        1000     0.357377 -0.000786075 -1.92994e-05    -0.524042 
        1000      0.37593 -0.000786338 -2.12958e-05    -0.524042 
        1000     0.394968 -0.000784818  -2.3417e-05    -0.524042 
        1000     0.414461 -0.000781631   -2.566e-05    -0.524042 
        1000      0.43444 -0.000776892 -2.80282e-05    -0.524042 
        1000     0.454872 -0.000770741 -3.05173e-05    -0.524042 
        1000     0.475791 -0.000763309 -3.31304e-05    -0.524042 
        1000     0.497163 -0.000754752  -3.5862e-05    -0.524042 
        1000     0.519021 -0.000745208 -3.87148e-05    -0.524042 
        1000      0.54135 -0.000734833 -4.16851e-05    -0.524042 
        1000     0.564131 -0.000723785 -4.47678e-05    -0.524042 
        1000       0.5874 -0.000712182 -4.79652e-05    -0.524042 
        1000     0.611121 -0.000700164 -5.12686e-05    -0.524042 
        1000      0.63533 -0.000687871 -5.46819e-05    -0.524043 
        1000      0.65999 -0.000675457 -5.81986e-05    -0.524043 
        1000     0.685139 -0.000663012 -6.18204e-05    -0.524043 
        1000     0.710759 -0.000650651 -6.55412e-05    -0.524043 
        1000     0.736828  -0.00063848 -6.93544e-05    -0.524043 
        1000     0.763387  -0.00062657 -7.32626e-05    -0.524043 
        1000     0.790396 -0.000615018 -7.72568e-05    -0.524043 
        1000     0.817896 -0.000603878 -8.13401e-05    -0.524043 
        1000     0.845843 -0.000593227  -8.5503e-05    -0.524043 
        1000     0.874283 -0.000583097 -8.97497e-05    -0.524043 
        1000      0.90317 -0.000573541 -9.40705e-05    -0.524043 
        1000     0.932551 -0.000564568 -9.84696e-05    -0.524043 
        1000     0.962401 -0.000556202 -0.000102941    -0.524043 
        1000     0.992697 -0.000548449 -0.000107477    -0.524043 
        1000      1.02349 -0.000541286 -0.000112083    -0.524043 
        1000      1.05472 -0.000534705 -0.000116749    -0.524043 
        1000      1.08645 -0.000528663 -0.000121477    -0.524043 
        1000      1.11863  -0.00052313 -0.000126257    -0.524043 
        1000       1.1513 -0.000518047 -0.000131092    -0.524042 
        1000      1.18444 -0.000513362 -0.000135974    -0.524042 
        1000      1.21802 -0.000509014 -0.000140895    -0.524042 
        1000      1.25211 -0.000504928 -0.000145857    -0.524042 
        1000      1.28663 -0.000501036 -0.000150847    -0.524042 
        1000      1.32165 -0.000497256  -0.00015587    -0.524042 
        1000      1.35712 -0.000493514 -0.000160912    -0.524042 
        1000      1.39308 -0.000489722 -0.000165979    -0.524042 
        1000      1.42951 -0.000485799 -0.000171063    -0.524042 
        1000      1.46638  -0.00048166 -0.000176161    -0.524042 
        1000      1.50375 -0.000477209 -0.000181283    -0.524042 
        1000      1.54156 -0.000472804 -0.000186381    -0.524042 
        1000      1.57987 -0.000467747  -0.00019147    -0.524041 
        1000      1.61863  -0.00046204 -0.000196541    -0.524041 
        1000      1.65788 -0.000455713 -0.000201598    -0.524041 
        1000      1.69757 -0.000448811 -0.000206629    -0.524041 
        1000      1.73776  -0.00044136 -0.000211641    -0.524041 
        1000      1.77842 -0.000433399 -0.000216625    -0.524041 
        1000      1.81952  -0.00042497 -0.000221573     -0.52404 
        1000      1.86113 -0.000416091 -0.000226492     -0.52404 
        1000      1.90316 -0.000406808 -0.000231368     -0.52404 
        1000      1.94571 -0.000397135 -0.000236207     -0.52404 
        1000      1.98869 -0.000387115 -0.000240997    -0.524039 
        1000      2.03217  -0.00037676 -0.000245742    -0.524039 
        1000      2.07612 -0.000366101 -0.000250435    -0.524039 
        1000      2.12051 -0.000355171 -0.000255069    -0.524038 
        1000       2.1654 -0.000343974 -0.000259647    -0.524038 
        1000      2.21073 -0.000332548 -0.000264159    -0.524038 
        1000      2.25656 -0.000320892 -0.000268608    -0.524037 
        1000      2.30283 -0.000309042 -0.000272983    -0.524037 
        1000       2.3496 -0.000296995 -0.000277289    -0.524036 
        1000      2.39685 -0.000284774 -0.000281516    -0.524036 
        1000      2.44452 -0.000272402  -0.00028566    -0.524035 
        1000      2.49271 -0.000259871 -0.000289722    -0.524035 
        1000      2.54132 -0.000247213 -0.000293693    -0.524034 
        1000      2.59044 -0.000234417 -0.000297575    -0.524034 
        1000         2.64 -0.000221514 -0.000301359    -0.524033 
        1000      2.69006 -0.000208493 -0.000305047    -0.524032 
        1000      2.74056 -0.000195384 -0.000308629    -0.524032 
        1000      2.79156 -0.000182177 -0.000312108    -0.524031 
        1000      2.84304 -0.000168891 -0.000315477     -0.52403 
        1000      2.89494 -0.000155548 -0.000318729     -0.52403 
        1000      2.94735 -0.000142137 -0.000321868    -0.524029 
        1000       3.0002 -0.000128693 -0.000324884    -0.524028 
        1000      3.05355 -0.000115207 -0.000327779    -0.524027 
        1000      3.10733 -0.000101715 -0.000330544    -0.524026 
        1000      3.16163 -8.82104e-05  -0.00033318    -0.524025 
        1000      3.21639 -7.47216e-05 -0.000335683    -0.524024 
        1000      3.27158 -6.12773e-05 -0.000338046    -0.524023 
        1000      3.32729 -4.78753e-05  -0.00034027    -0.524022 
        1000      3.38342 -3.45572e-05 -0.000342349    -0.524021 
        1000      3.44007 -2.13232e-05 -0.000344282     -0.52402 
        1000      3.49714 -8.21569e-06 -0.000346063    -0.524019 
        1000      3.55472   4.7643e-06 -0.000347692    -0.524018 
        1000      3.61273  1.75755e-05 -0.000349164    -0.524017 
        1000      3.67125  3.02181e-05 -0.000350477    -0.524016 
        1000      3.73025  4.26646e-05 -0.000351627    -0.524015 
        1000      3.78967  5.50112e-05 -0.000352701    -0.524014 
        1000      3.84961  6.71323e-05 -0.000353656    -0.524012 
        1000      3.90996  7.89219e-05 -0.000354446    -0.524011 
        1000      3.97084  9.03878e-05 -0.000355076     -0.52401 
        1000      4.03214  0.000101501 -0.000355548    -0.524008 
        1000      4.09395   0.00011227 -0.000355868    -0.524007 
        1000      4.15624  0.000122677 -0.000356039    -0.524006 
        1000      4.21895  0.000132705 -0.000356064    -0.524004 
        1000      4.28217  0.000142365 -0.000355949    -0.524003 
        1000      4.34582  0.000151633 -0.000355696    -0.524002 
        1000      4.40998   0.00016052 -0.000355311       -0.524 
        1000      4.47457  0.000169007 -0.000354799    -0.523999 
        1000      4.53968  0.000177104 -0.000354163    -0.523997 
        1000      4.60525  0.000184801 -0.000353409    -0.523996 
        1000      4.67125  0.000192091 -0.000352541    -0.523994 
        1000      4.73777  0.000198985 -0.000351565    -0.523993 
        1000       4.8047  0.000205471 -0.000350485    -0.523991 
        1000      4.87216  0.000211561 -0.000349306     -0.52399 
        1000      4.94003  0.000217248 -0.000348034    -0.523988 
        1000      5.00843  0.000222542 -0.000346672    -0.523987 
        1000      5.07724   0.00022744 -0.000345228    -0.523985 
        1000      5.14658  0.000231952 -0.000343705    -0.523983 
        1000      5.21639  0.000236081 -0.000342109    -0.523982 
        1000      5.28661   0.00023983 -0.000340446     -0.52398 
        1000      5.35736  0.000243211 -0.000338719    -0.523979 
        1000      5.42852  0.000246226 -0.000336936    -0.523977 
        1000      5.50021  0.000248889 -0.000335099    -0.523975 
        1000      5.57231  0.000251205 -0.000333216    -0.523974 
        1000      5.64493  0.000253186 -0.000331289    -0.523972 
        1000      5.71803  0.000254841 -0.000329324     -0.52397 
        1000      5.79154   0.00025618 -0.000327327    -0.523969 
        1000      5.86558  0.000257216 -0.000325301    -0.523967 
        1000      5.94003  0.000257959 -0.000323253    -0.523965 
        1000      6.01501  0.000258423 -0.000321183    -0.523964 
        1000       6.0904  0.000258621   -0.0003191    -0.523962 
        1000      6.16632  0.000258564 -0.000317003    -0.523961 
        1000      6.24271  0.000258268 -0.000314899    -0.523959 
        1000       6.3195  0.000257744 -0.000312793    -0.523957 
        1000      6.39683  0.000257008 -0.000310685    -0.523956 
        1000      6.47457  0.000256074 -0.000308581    -0.523954 
        1000      6.55284  0.000254954 -0.000306481    -0.523952 
        1000      6.63152  0.000253665 -0.000304391    -0.523951 
        1000      6.71073  0.000252219 -0.000302309    -0.523949 
        1000      6.79034  0.000250634 -0.000300241    -0.523947 
        1000      6.87049   0.00024892 -0.000298185    -0.523946 
        1000      6.95111  0.000247093 -0.000296145    -0.523944 
        1000      7.03214  0.000245169 -0.000294122    -0.523942 
        1000       7.1137   0.00024316 -0.000292114    -0.523941 
        1000      7.19566  0.000241082 -0.000290125    -0.523939 
        1000      7.27816  0.000238946  -0.00028815    -0.523937 
        1000      7.36106  0.000236768 -0.000286193    -0.523936 
        1000      7.44451  0.000234497 -0.000284249    -0.523934 
        1000      7.52842  0.000232179 -0.000282318    -0.523933 
        1000      7.61273  0.000229834   -0.0002804    -0.523931 
        1000      7.69758  0.000227471  -0.00027849    -0.523929 
        1000      7.78283  0.000225103  -0.00027659    -0.523928 
        1000      7.86862  0.000222736 -0.000274694    -0.523926 
        1000      7.95481  0.000220385 -0.000272803    -0.523924 
        1000      8.04155  0.000218056 -0.000270913    -0.523923 
        1000      8.12868  0.000215765 -0.000269022    -0.523921 
        1000      8.21635  0.000213521 -0.000267126     -0.52392 
        1000      8.30449  0.000211339 -0.000265223    -0.523918 
        1000      8.39303  0.000209237 -0.000263309    -0.523917 
        1000      8.48211  0.000207227  -0.00026138    -0.523915 
        1000      8.57159  0.000205333 -0.000259434    -0.523913 
        1000      8.66161  0.000203575 -0.000257463    -0.523912 
        1000      8.75203  0.000201981 -0.000255466     -0.52391 
        1000      8.84299  0.000200579 -0.000253435    -0.523909 
        1000      8.93443  0.000198593 -0.000251629    -0.523907 
        1000      9.02626  0.000196576 -0.000249803    -0.523906 
        1000      9.11863  0.000194579 -0.000247943    -0.523904 
        1000      9.21139  0.000192602  -0.00024606    -0.523903 
        1000      9.30471  0.000190642 -0.000244157    -0.523901 
        1000      9.39841  0.000188702 -0.000242242      -0.5239 
        1000      9.49267  0.000186778 -0.000240317    -0.523898 
        1000      9.58739  0.000184869 -0.000238388    -0.523897 
        1000      9.68251  0.000182977  -0.00023646    -0.523895 
        1000      9.77817  0.000181096 -0.000234531    -0.523894 
        1000      9.87422   0.00017923 -0.000232609    -0.523892 
        1000      9.97083  0.000177373  -0.00023069    -0.523891 
        1000      10.0678  0.000175527  -0.00022878    -0.523889 
        1000      10.1654  0.000173689 -0.000226875    -0.523888 
        1000      10.2633  0.000171861  -0.00022498    -0.523886 
        1000      10.3618  0.000170037 -0.000223092    -0.523885 
        1000      10.4607  0.000168227 -0.000221227    -0.523883 
        1000      10.5601  0.000166435 -0.000219386    -0.523882 
        1000        10.66  0.000164651 -0.000217552     -0.52388 
        1000      10.7603  0.000162876 -0.000215728    -0.523879 
        1000      10.8611  0.000161109  -0.00021391    -0.523878 
        1000      10.9623  0.000159353 -0.000212103    -0.523876 
        1000      11.0641  0.000157604 -0.000210301    -0.523875 
        1000      11.1663  0.000155866 -0.000208508    -0.523873 
        1000       11.269  0.000154138 -0.000206724    -0.523872 
        1000      11.3721  0.000152421 -0.000204946    -0.523871 
        1000      11.4757  0.000150715 -0.000203177    -0.523869 
        1000      11.5798   0.00014902 -0.000201413    -0.523868 
        1000      11.6844  0.000147338 -0.000199658    -0.523866 
        1000      11.7894  0.000145666 -0.000197908    -0.523865 
        1000       11.895  0.000144007 -0.000196165    -0.523864 
        1000      12.0009  0.000142363  -0.00019443    -0.523862 
        1000      12.1073   0.00014073 -0.000192702    -0.523861 
        1000      12.2142  0.000139111 -0.000190981     -0.52386 
        1000      12.3216  0.000137505 -0.000189267    -0.523859 
        1000      12.4294  0.000135913 -0.000187562    -0.523857 
        1000      12.5378  0.000134334 -0.000185864    -0.523856 
        1000      12.6465  0.000132769 -0.000184176    -0.523855 
        1000      12.7558  0.000131216 -0.000182497    -0.523853 
        1000      12.8656  0.000129675 -0.000180827    -0.523852 
        1000      12.9757  0.000128149 -0.000179169    -0.523851 
        1000      13.0864  0.000126633 -0.000177521     -0.52385 
        1000      13.1975   0.00012513 -0.000175886    -0.523849 
        1000      13.3092  0.000123636 -0.000174263    -0.523847 
        1000      13.4212  0.000122154 -0.000172654    -0.523846 
        1000      13.5338   0.00012068 -0.000171057    -0.523845 
        1000      13.6468  0.000119214 -0.000169473    -0.523844 
        1000      13.7603  0.000117757 -0.000167905    -0.523843 
        1000      13.8743  0.000116306 -0.000166349    -0.523841 
        1000      13.9886  0.000114863 -0.000164806     -0.52384 
        1000      14.1036  0.000113423 -0.000163274    -0.523839 
        1000      14.2189  0.000111988 -0.000161754    -0.523838 
        1000      14.3348  0.000110556 -0.000160241    -0.523837 
        1000       14.451  0.000109128 -0.000158734    -0.523836 
        1000      14.5678  0.000107701 -0.000157227    -0.523834 
        1000      14.6851  0.000106277 -0.000155718    -0.523833 
        1000      14.8028   0.00010489 -0.000154238    -0.523832 
        1000       14.921  0.000103584 -0.000152832    -0.523831 
        1000      15.0396  0.000102263 -0.000151403     -0.52383 
        1000      15.1588  0.000100933  -0.00014996    -0.523829 
        1000      15.2783  9.96034e-05 -0.000148515    -0.523828 
        1000      15.3984   9.8276e-05 -0.000147072    -0.523827 
        1000       15.519  9.69558e-05  -0.00014564    -0.523826 
        1000        15.64  9.56469e-05 -0.000144223    -0.523825 
        1000      15.7615  9.43487e-05 -0.000142821    -0.523824 
        1000      15.8834  9.30646e-05 -0.000141439    -0.523823 
        1000      16.0058  9.17927e-05 -0.000140073    -0.523822 
        1000      16.1286  9.05352e-05 -0.000138727    -0.523821 
        1000       16.252  8.92896e-05 -0.000137396     -0.52382 
        1000      16.3759  8.80561e-05 -0.000136081    -0.523819 
        1000      16.5002   8.6835e-05  -0.00013478    -0.523818 
        1000       16.625  8.56234e-05  -0.00013349    -0.523817 
        1000      16.7501  8.44225e-05 -0.000132211    -0.523816 
        1000      16.8759  8.32296e-05 -0.000130939    -0.523815 
        1000       17.002  8.20462e-05 -0.000129674    -0.523814 
        1000      17.1287  8.08702e-05 -0.000128414    -0.523813 
        1000      17.2557  7.97033e-05 -0.000127159    -0.523813 
        1000      17.3834   7.8544e-05 -0.000125907    -0.523812 
        1000      17.5115  7.73939e-05  -0.00012466    -0.523811 
        1000      17.6399  7.62544e-05 -0.000123419     -0.52381 
        1000       17.769  7.51249e-05 -0.000122184    -0.523809 
        1000      17.8984  7.40082e-05 -0.000120958    -0.523808 
        1000      18.0284  7.29034e-05 -0.000119742    -0.523807 
        1000      18.1587  7.18135e-05 -0.000118539    -0.523807 
        1000      18.2896  7.07373e-05  -0.00011735    -0.523806 
        1000       18.421  6.96758e-05 -0.000116178    -0.523805 
        1000      18.5528  6.86295e-05 -0.000115027    -0.523804 
        1000      18.6851  6.75951e-05 -0.000113895    -0.523804 
        1000      18.8178  6.65716e-05 -0.000112786    -0.523803 
        1000      18.9511  6.55532e-05 -0.000111697    -0.523802 
        1000      19.0847  6.45351e-05 -0.000110627    -0.523801 
        1000      19.2189  6.35071e-05 -0.000109569    -0.523801 
        1000      19.3535  6.24594e-05 -0.000108519      -0.5238 
        1000      19.4886  6.13754e-05 -0.000107463    -0.523799 
        1000      19.6242  6.03571e-05 -0.000106333    -0.523798 
        1000      19.7602  5.94541e-05 -0.000105166    -0.523798 
        1000      19.8968  5.85486e-05 -0.000104043    -0.523797 
        1000      20.0337  5.76444e-05 -0.000102967    -0.523796 
        1000      20.1712  5.68602e-05 -0.000101999    -0.523796 
        1000      20.3091  5.60422e-05 -0.000101023    -0.523795 
        1000      20.4475  5.51916e-05 -0.000100034    -0.523795 
        1000      20.5864  5.43195e-05 -9.90402e-05    -0.523794 
        1000      20.7257  5.34351e-05  -9.8045e-05    -0.523793 
        1000      20.8655  5.25444e-05 -9.70505e-05    -0.523793 
        1000      21.0058  5.16545e-05 -9.60613e-05    -0.523792 
        1000      21.1465  5.07687e-05 -9.50779e-05    -0.523792 
        1000      21.2877   4.9892e-05 -9.41036e-05    -0.523791 
        1000      21.4294  4.90257e-05 -9.31381e-05    -0.523791 
        1000      21.5716  4.81721e-05 -9.21832e-05     -0.52379 
        1000      21.7142   4.7333e-05 -9.12399e-05    -0.523789 
        1000      21.8573  4.65077e-05 -9.03072e-05    -0.523789 
        1000      22.0008  4.56974e-05 -8.93863e-05    -0.523788 
        1000      22.1449  4.49006e-05 -8.84755e-05    -0.523788 
        1000      22.2893  4.41178e-05 -8.75758e-05    -0.523788 
        1000      22.4344  4.33471e-05 -8.66854e-05    -0.523787 
        1000      22.5797  4.25887e-05 -8.58048e-05    -0.523787 
        1000      22.7257  4.18406e-05 -8.49322e-05    -0.523786 
        1000      22.8721  4.11024e-05 -8.40673e-05    -0.523786 
        1000      23.0189  4.03742e-05 -8.32104e-05    -0.523785 
        1000      23.1663   3.9654e-05 -8.23595e-05    -0.523785 
        1000       23.314  3.89426e-05 -8.15152e-05    -0.523784 
        1000      23.4623  3.82386e-05  -8.0676e-05    -0.523784 
        1000       23.611  3.75433e-05 -7.98429e-05    -0.523784 
        1000      23.7602  3.68556e-05 -7.90143e-05    -0.523783 
        1000        23.91  3.61767e-05  -7.8191e-05    -0.523783 
        1000        24.06  3.55074e-05 -7.73738e-05    -0.523783 
        1000      24.2107  3.48475e-05 -7.65617e-05    -0.523782 
        1000      24.3617  3.41985e-05 -7.57564e-05    -0.523782 
        1000      24.5133  3.35601e-05 -7.49572e-05    -0.523782 
        1000      24.6653  3.29335e-05 -7.41661e-05    -0.523781 
        1000      24.8178  3.23178e-05 -7.33827e-05    -0.523781 
        1000      24.9708  3.17131e-05 -7.26083e-05    -0.523781 
        1000      25.1242  3.11186e-05 -7.18445e-05    -0.523781 
        1000      25.2781  3.05313e-05 -7.10909e-05     -0.52378 
        1000      25.4324   2.9949e-05 -7.03494e-05     -0.52378 
        1000      25.5873   2.9366e-05 -6.96193e-05     -0.52378 
        1000      25.7426   2.8777e-05 -6.89021e-05     -0.52378 
        1000      25.8984  2.81728e-05 -6.81966e-05    -0.523779 
        1000      26.0546  2.75434e-05 -6.75035e-05    -0.523779 
        1000      26.2114  2.69969e-05 -6.67967e-05    -0.523779 
        1000      26.3686  2.65365e-05 -6.60911e-05    -0.523779 
        1000      26.5262  2.60707e-05 -6.54036e-05    -0.523779 
        1000      26.6844  2.55964e-05 -6.47269e-05    -0.523779 
        1000      26.8429  2.51131e-05 -6.40568e-05    -0.523779 
        1000       27.002  2.46191e-05 -6.33886e-05    -0.523778 
        1000      27.1615  2.41152e-05 -6.27208e-05    -0.523778 
        1000      27.3216  2.36014e-05 -6.20514e-05    -0.523778 
        1000      27.4821  2.30799e-05 -6.13809e-05    -0.523778 
        1000       27.643  2.25542e-05 -6.07114e-05    -0.523778 
        1000      27.8044  2.20276e-05 -6.00444e-05    -0.523778 
        1000      27.9663  2.15066e-05 -5.93852e-05    -0.523778 
        1000      28.1287  2.09975e-05 -5.87381e-05    -0.523778 
        1000      28.2914  2.05134e-05 -5.81079e-05    -0.523778 
        1000      28.4548  2.00898e-05 -5.74611e-05    -0.523778 
        1000      28.6185  1.96763e-05 -5.68273e-05    -0.523778 
        1000      28.7828  1.92718e-05 -5.62041e-05    -0.523778 
        1000      28.9475  1.88767e-05 -5.55905e-05    -0.523778 
        1000      29.1126  1.84908e-05 -5.49858e-05    -0.523778 
        1000      29.2784  1.81133e-05 -5.43879e-05    -0.523778 
        1000      29.4444  1.77444e-05 -5.37966e-05    -0.523778 
        1000       29.611  1.73833e-05   -5.321e-05    -0.523778 
        1000       29.778    1.703e-05 -5.26282e-05    -0.523778 
        1000      29.9456  1.66837e-05 -5.20495e-05    -0.523778 
        1000      30.1137  1.63441e-05 -5.14738e-05    -0.523778 
        1000      30.2821  1.60111e-05 -5.09011e-05    -0.523778 
        1000      30.4511  1.56837e-05 -5.03302e-05    -0.523778 
        1000      30.6204  1.53619e-05 -4.97616e-05    -0.523778 
        1000      30.7903  1.50449e-05 -4.91943e-05    -0.523779 
        1000      30.9606  1.47326e-05 -4.86294e-05    -0.523779 
        1000      31.1315   1.4424e-05 -4.80659e-05    -0.523779 
        1000      31.3028  1.41192e-05 -4.75045e-05    -0.523779 
        1000      31.4745  1.38178e-05 -4.69461e-05    -0.523779 
        1000      31.6468  1.35191e-05 -4.63901e-05    -0.523779 
        1000      31.8194  1.32232e-05  -4.5838e-05     -0.52378 
        1000      31.9926  1.29293e-05 -4.52893e-05     -0.52378 
        1000      32.1662  1.26378e-05 -4.47456e-05     -0.52378 
        1000      32.3404   1.2348e-05 -4.42067e-05     -0.52378 
        1000      32.5149  1.20602e-05 -4.36741e-05    -0.523781 
        1000        32.69   1.1774e-05 -4.31475e-05    -0.523781 
        1000      32.8655  1.14897e-05 -4.26282e-05    -0.523781 
        1000      33.0414  1.12078e-05 -4.21171e-05    -0.523781 
        1000       33.218  1.09281e-05  -4.1614e-05    -0.523782 
        1000      33.3948  1.06513e-05   -4.112e-05    -0.523782 
        1000      33.5723  1.03777e-05 -4.06348e-05    -0.523782 
        1000        33.75  1.01084e-05 -4.01591e-05    -0.523783 
        1000      33.9284  9.84367e-06 -3.96923e-05    -0.523783 
        1000      34.1073  9.58482e-06 -3.92344e-05    -0.523783 
        1000      34.2865  9.33322e-06 -3.87852e-05    -0.523784 
        1000      34.4663  9.08984e-06 -3.83431e-05    -0.523784 
        1000      34.6465  8.85662e-06 -3.79075e-05    -0.523784 
        1000      34.8272  8.63499e-06 -3.74761e-05    -0.523785 
        1000      35.0083  8.42732e-06 -3.70474e-05    -0.523785 
        1000        35.19  8.23555e-06 -3.66181e-05    -0.523786 
        1000      35.3721  8.06239e-06 -3.61852e-05    -0.523786 
        1000      35.5546  7.91076e-06  -3.5745e-05    -0.523787 
        1000      35.7377  7.78352e-06 -3.52924e-05    -0.523787 
        1000      35.9211  7.68431e-06 -3.48225e-05    -0.523788 
        1000      36.1052   7.6167e-06 -3.43283e-05    -0.523788 
        1000      36.2895  7.49159e-06 -3.39789e-05    -0.523788 
        1000      36.4745  7.35889e-06 -3.36295e-05    -0.523789 
        1000      36.6598  7.22831e-06 -3.32663e-05    -0.523789 
        1000      36.8457   7.1017e-06 -3.28903e-05     -0.52379 
        1000      37.0321  6.98047e-06 -3.25039e-05     -0.52379 
        1000      37.2188  6.86524e-06 -3.21097e-05    -0.523791 
        1000      37.4062  6.75541e-06 -3.17102e-05    -0.523792 
        1000      37.5938  6.64974e-06  -3.1309e-05    -0.523792 
        1000      37.7821  6.54552e-06  -3.0909e-05    -0.523793 
        1000      37.9707  6.43911e-06 -3.05141e-05    -0.523793 
        1000      38.1599  6.10315e-06 -3.01141e-05    -0.523794 
        1000      38.3496  5.82988e-06 -2.97283e-05    -0.523795 
        1000      38.5396  5.63341e-06  -2.9356e-05    -0.523795 
        1000      38.7302  5.49024e-06 -2.89934e-05    -0.523796 
        1000      38.9211  5.38036e-06 -2.86386e-05    -0.523796 
        1000      39.1127  5.28616e-06 -2.82891e-05    -0.523797 
        1000      39.3046  5.19302e-06 -2.79442e-05    -0.523798 
        1000      39.4971  5.08857e-06 -2.76026e-05    -0.523798 
        1000      39.6899  4.96316e-06 -2.72646e-05    -0.523799 
        1000      39.8833   4.8091e-06 -2.69301e-05      -0.5238 
        1000      40.0772  4.78744e-06  -2.6601e-05    -0.523801 
        1000      40.2714  4.77392e-06 -2.62734e-05    -0.523801 
        1000      40.4663  4.74478e-06 -2.59467e-05    -0.523802 
        1000      40.6615  4.70116e-06 -2.56215e-05    -0.523803 
        1000      40.8573  4.64451e-06 -2.52976e-05    -0.523804 
        1000      41.0534  4.57672e-06 -2.49756e-05    -0.523804 
        1000      41.2501  4.49975e-06 -2.46551e-05    -0.523805 
        1000      41.4473  4.41587e-06 -2.43364e-05    -0.523806 
        1000      41.6448  4.32745e-06 -2.40198e-05    -0.523807 
        1000      41.8429  4.23669e-06 -2.37049e-05    -0.523808 
        1000      42.0414  4.14603e-06 -2.33923e-05    -0.523808 
        1000      42.2405  4.05753e-06 -2.30814e-05    -0.523809 
        1000      42.4399  3.97335e-06 -2.27728e-05     -0.52381 
        1000      42.6399  3.89522e-06  -2.2466e-05    -0.523811 
        1000      42.8404  3.82481e-06 -2.21613e-05    -0.523812 
        1000      43.0412  3.76349e-06  -2.1859e-05    -0.523813 
        1000      43.2426  3.71218e-06 -2.15588e-05    -0.523814 
        1000      43.4444  3.67165e-06 -2.12611e-05    -0.523815 
        1000      43.6467  3.64217e-06 -2.09656e-05    -0.523816 
        1000      43.8494  3.62378e-06 -2.06729e-05    -0.523817 
        1000      44.0527  3.61606e-06 -2.03827e-05    -0.523817 
        1000      44.2563  3.61829e-06 -2.00955e-05    -0.523818 
        1000      44.4606  3.62943e-06  -1.9811e-05    -0.523819 
        1000      44.6653  3.64809e-06 -1.95297e-05     -0.52382 
        1000      44.8704   3.6726e-06 -1.92519e-05    -0.523821 
        1000       45.076   3.7011e-06 -1.89775e-05    -0.523822 
        1000       45.282  3.73149e-06 -1.87069e-05    -0.523823 
        1000      45.4886  3.76162e-06   -1.844e-05    -0.523825 
        1000      45.6955  3.78923e-06 -1.81773e-05    -0.523826 
        1000       45.903  3.81218e-06 -1.79186e-05    -0.523827 
        1000      46.1111  3.82841e-06 -1.76641e-05    -0.523828 
        1000      46.3194  3.83613e-06 -1.74141e-05    -0.523829 
        1000      46.5283  3.83396e-06 -1.71682e-05     -0.52383 
        1000      46.7376  3.82103e-06 -1.69267e-05    -0.523831 
        1000      46.9475  3.79711e-06 -1.66891e-05    -0.523832 
        1000      47.1577  3.76286e-06 -1.64555e-05    -0.523833 
        1000      47.3685  3.71989e-06 -1.62253e-05    -0.523835 
        1000      47.5798  3.67107e-06  -1.5998e-05    -0.523836 
        1000      47.7914  3.62075e-06 -1.57733e-05    -0.523837 
        1000      48.0037  3.57481e-06 -1.55499e-05    -0.523838 