Variables = x, y, u, v, p

Zone, I=800, F=POINT
         950            0           -0           -0      8.46869 
         950     0.000234  4.98714e-06  6.20364e-12      8.46869 
         950     0.000939  1.81658e-05  2.38579e-10      8.46869 
         950     0.002113  3.44642e-05  1.32891e-09      8.46869 
         950     0.003759  4.70792e-05  4.30732e-09      8.46869 
         950     0.005872  4.92648e-05  1.05396e-08      8.46869 
         950     0.008457  3.63583e-05  2.17079e-08      8.46869 
         950      0.01151  7.10361e-06  3.96835e-08      8.46869 
         950     0.015036 -3.60619e-05  6.65224e-08      8.46869 
         950     0.019031  -8.7726e-05  1.04263e-07      8.46869 
         950     0.023493 -0.000141591  1.54873e-07      8.46869 
         950     0.028429 -0.000193076  2.20257e-07      8.46869 
         950     0.033831 -0.000241156  3.01843e-07      8.46869 
         950     0.039706 -0.000289276  4.00864e-07      8.46869 
         950     0.046047  -0.00034324  5.17812e-07      8.46869 
         950     0.052863 -0.000407111  6.52846e-07      8.46869 
         950      0.06015 -0.000477813  8.05171e-07      8.46869 
         950       0.0679 -0.000544166  9.73075e-07      8.46869 
         950     0.076126 -0.000600106  1.15443e-06      8.46869 
         950     0.084816 -0.000676694  1.34566e-06      8.46869 
         950     0.093982 -0.000741544  1.54268e-06      8.46869 
         950     0.103611 -0.000808765  1.73994e-06      8.46869 
         950     0.113718 -0.000876775  1.93151e-06      8.46869 
         950     0.124286 -0.000944116  2.10988e-06      8.46869 
         950     0.135333  -0.00100995  2.26726e-06      8.46869 
         950      0.14685  -0.00107364  2.39455e-06      8.46869 
         950     0.158827  -0.00113482  2.48205e-06      8.46869 
         950     0.171284  -0.00119343  2.51968e-06      8.46869 
         950     0.184201  -0.00124919  2.49668e-06      8.46869 
         950     0.197599   -0.0013018  2.40199e-06      8.46869 
         950     0.211455  -0.00135061   2.2246e-06      8.46869 
         950     0.225792  -0.00139511  1.95302e-06      8.46869 
         950       0.2406  -0.00143529  1.57617e-06      8.46869 
         950     0.255865  -0.00147184  1.08359e-06      8.46869 
         950     0.271613  -0.00150347  4.64797e-07      8.46869 
         950     0.287818  -0.00153066 -2.88923e-07      8.46869 
         950     0.304506  -0.00155342 -1.18783e-06      8.46869 
         950      0.32165  -0.00157177  -2.2385e-06      8.46869 
         950     0.339278  -0.00158582  -3.4496e-06      8.46869 
         950     0.357377   -0.0015957 -4.82614e-06      8.46869 
         950      0.37593  -0.00160161 -6.37121e-06      8.46869 
         950     0.394968  -0.00160379 -8.09066e-06      8.46869 
         950     0.414461  -0.00160249 -9.98385e-06      8.46869 
         950      0.43444  -0.00159802 -1.20547e-05      8.46869 
         950     0.454872  -0.00159068 -1.42995e-05      8.46869 
         950     0.475791  -0.00158079 -1.67206e-05      8.46869 
         950     0.497163  -0.00156868 -1.93118e-05      8.46869 
         950     0.519021  -0.00155465 -2.20735e-05      8.46869 
         950      0.54135  -0.00153902 -2.49995e-05      8.46869 
         950     0.564131   -0.0015221 -2.80811e-05      8.46869 
         950       0.5874  -0.00150416 -3.13156e-05      8.46869 
         950     0.611121  -0.00148552 -3.46882e-05      8.46869 
         950      0.63533  -0.00146632 -3.82009e-05      8.46869 
         950      0.65999  -0.00144689 -4.18431e-05      8.46869 
         950     0.685139  -0.00142738 -4.56096e-05      8.46869 
         950     0.710759  -0.00140792 -4.94872e-05      8.46869 
         950     0.736828  -0.00138865 -5.34621e-05      8.46869 
         950     0.763387  -0.00136963 -5.75304e-05      8.46869 
         950     0.790396  -0.00135094 -6.16759e-05      8.46869 
         950     0.817896  -0.00133259 -6.58953e-05      8.46869 
         950     0.845843  -0.00131462 -7.01725e-05      8.46869 
         950     0.874283  -0.00129699 -7.45055e-05      8.46869 
         950      0.90317   -0.0012797 -7.88788e-05      8.46869 
         950     0.932551  -0.00126265 -8.32912e-05      8.46869 
         950     0.962401   -0.0012458 -8.77309e-05      8.46869 
         950     0.992697  -0.00122907 -9.21869e-05      8.46869 
         950      1.02349  -0.00121236 -9.66593e-05      8.46869 
         950      1.05472  -0.00119558 -0.000101134      8.46869 
         950      1.08645  -0.00117864 -0.000105611      8.46869 
         950      1.11863  -0.00116145 -0.000110077      8.46869 
         950       1.1513  -0.00114393 -0.000114534      8.46869 
         950      1.18444  -0.00112602 -0.000118973      8.46869 
         950      1.21802   -0.0011077 -0.000123385      8.46869 
         950      1.25211  -0.00108891 -0.000127774      8.46869 
         950      1.28663  -0.00106968  -0.00013213      8.46869 
         950      1.32165     -0.00105  -0.00013646      8.46869 
         950      1.35712  -0.00102993 -0.000140758      8.46869 
         950      1.39308  -0.00100948 -0.000145034      8.46869 
         950      1.42951 -0.000988714 -0.000149291      8.46869 
         950      1.46638 -0.000967664  -0.00015354      8.46869 
         950      1.50375 -0.000946288 -0.000157804      8.46869 
         950      1.54156  -0.00092452 -0.000161987      8.46869 
         950      1.57987 -0.000902822  -0.00016615       8.4687 
         950      1.61863 -0.000881229 -0.000170294       8.4687 
         950      1.65788 -0.000859686 -0.000174424       8.4687 
         950      1.69757 -0.000838206 -0.000178534       8.4687 
         950      1.73776 -0.000816733 -0.000182628       8.4687 
         950      1.77842  -0.00079526 -0.000186702       8.4687 
         950      1.81952 -0.000773785 -0.000190751       8.4687 
         950      1.86113 -0.000752248 -0.000194778       8.4687 
         950      1.90316 -0.000730664 -0.000198774       8.4687 
         950      1.94571 -0.000708975 -0.000202744       8.4687 
         950      1.98869 -0.000687196 -0.000206677       8.4687 
         950      2.03217 -0.000665273 -0.000210575       8.4687 
         950      2.07612 -0.000643203 -0.000214433       8.4687 
         950      2.12051 -0.000620987 -0.000218243       8.4687 
         950       2.1654 -0.000598576 -0.000222006       8.4687 
         950      2.21073  -0.00057599 -0.000225713       8.4687 
         950      2.25656 -0.000553183 -0.000229365      8.46871 
         950      2.30283 -0.000530182 -0.000232951      8.46871 
         950       2.3496 -0.000506944 -0.000236473      8.46871 
         950      2.39685 -0.000483483 -0.000239924      8.46871 
         950      2.44452 -0.000459819 -0.000243296      8.46871 
         950      2.49271 -0.000435917 -0.000246589      8.46871 
         950      2.54132 -0.000411821 -0.000249797      8.46871 
         950      2.59044 -0.000387501 -0.000252918      8.46872 
         950         2.64 -0.000363009 -0.000255945      8.46872 
         950      2.69006 -0.000338325 -0.000258879      8.46872 
         950      2.74056 -0.000313507 -0.000261712      8.46872 
         950      2.79156 -0.000288541 -0.000264446      8.46872 
         950      2.84304 -0.000263474 -0.000267077      8.46872 
         950      2.89494 -0.000238356   -0.0002696      8.46873 
         950      2.94735 -0.000213181 -0.000272016      8.46873 
         950       3.0002 -0.000188028 -0.000274321      8.46873 
         950      3.05355 -0.000162896 -0.000276517      8.46873 
         950      3.10733 -0.000137865 -0.000278598      8.46873 
         950      3.16163 -0.000112938 -0.000280565      8.46874 
         950      3.21639   -8.818e-05 -0.000282416      8.46874 
         950      3.27158 -6.36523e-05 -0.000284146      8.46874 
         950      3.32729  -3.9358e-05 -0.000285754      8.46874 
         950      3.38342 -1.53749e-05 -0.000287235      8.46875 
         950      3.44007  8.29903e-06 -0.000288585      8.46875 
         950      3.49714   3.1596e-05 -0.000289794      8.46875 
         950      3.55472  5.45291e-05 -0.000290856      8.46875 
         950      3.61273  7.70479e-05 -0.000291757      8.46876 
         950      3.67125  9.91834e-05 -0.000292483      8.46876 
         950      3.73025  0.000120928 -0.000293015      8.46876 
         950      3.78967  0.000142152 -0.000293529      8.46876 
         950      3.84961  0.000162759 -0.000293981      8.46877 
         950      3.90996  0.000182716 -0.000294285      8.46877 
         950      3.97084  0.000202028 -0.000294445      8.46877 
         950      4.03214  0.000220638 -0.000294466      8.46878 
         950      4.09395  0.000238551 -0.000294351      8.46878 
         950      4.15624  0.000255733 -0.000294105      8.46878 
         950      4.21895  0.000272153 -0.000293733      8.46879 
         950      4.28217  0.000287822 -0.000293237      8.46879 
         950      4.34582  0.000302704 -0.000292625      8.46879 
         950      4.40998  0.000316812 -0.000291898       8.4688 
         950      4.47457  0.000330118 -0.000291063       8.4688 
         950      4.53968  0.000342638 -0.000290123       8.4688 
         950      4.60525   0.00035436 -0.000289083      8.46881 
         950      4.67125  0.000365278 -0.000287948      8.46881 
         950      4.73777  0.000375413 -0.000286722      8.46881 
         950       4.8047  0.000384755 -0.000285411      8.46882 
         950      4.87216  0.000393328 -0.000284017      8.46882 
         950      4.94003  0.000401131 -0.000282548      8.46882 
         950      5.00843  0.000408189 -0.000281004      8.46883 
         950      5.07724  0.000414506 -0.000279394      8.46883 
         950      5.14658  0.000420112 -0.000277718      8.46884 
         950      5.21639  0.000425021 -0.000275983      8.46884 
         950      5.28661  0.000429251 -0.000274194      8.46884 
         950      5.35736  0.000432833 -0.000272352      8.46885 
         950      5.42852  0.000435787 -0.000270465      8.46885 
         950      5.50021  0.000438142 -0.000268533      8.46885 
         950      5.57231  0.000439924 -0.000266563      8.46886 
         950      5.64493  0.000441164 -0.000264556      8.46886 
         950      5.71803   0.00044189 -0.000262516      8.46886 
         950      5.79154  0.000442132  -0.00026045      8.46887 
         950      5.86558  0.000441921 -0.000258356      8.46887 
         950      5.94003  0.000441289 -0.000256242      8.46888 
         950      6.01501  0.000440265 -0.000254106      8.46888 
         950       6.0904  0.000438883 -0.000251955      8.46888 
         950      6.16632  0.000437171 -0.000249789      8.46889 
         950      6.24271  0.000435161 -0.000247611      8.46889 
         950       6.3195  0.000432883 -0.000245426      8.46889 
         950      6.39683  0.000430364 -0.000243231       8.4689 
         950      6.47457  0.000427635 -0.000241033       8.4689 
         950      6.55284  0.000424717  -0.00023883       8.4689 
         950      6.63152  0.000421641 -0.000236626      8.46891 
         950      6.71073  0.000418427  -0.00023442      8.46891 
         950      6.79034  0.000415099 -0.000232216      8.46892 
         950      6.87049  0.000411675 -0.000230012      8.46892 
         950      6.95111  0.000408174  -0.00022781      8.46892 
         950      7.03214  0.000404616 -0.000225613      8.46893 
         950       7.1137   0.00040101 -0.000223417      8.46893 
         950      7.19566  0.000397373 -0.000221227      8.46893 
         950      7.27816  0.000393712 -0.000219039      8.46894 
         950      7.36106  0.000390039 -0.000216856      8.46894 
         950      7.44451  0.000386356 -0.000214675      8.46894 
         950      7.52842  0.000382671 -0.000212498      8.46895 
         950      7.61273  0.000378989 -0.000210326      8.46895 
         950      7.69758  0.000375308 -0.000208155      8.46895 
         950      7.78283  0.000371633 -0.000205989      8.46896 
         950      7.86862  0.000367959 -0.000203822      8.46896 
         950      7.95481  0.000364293 -0.000201659      8.46897 
         950      8.04155  0.000360627 -0.000199495      8.46897 
         950      8.12868   0.00035697 -0.000197334      8.46897 
         950      8.21635  0.000353316 -0.000195171      8.46898 
         950      8.30449  0.000349674 -0.000193009      8.46898 
         950      8.39303  0.000346053 -0.000190848      8.46898 
         950      8.48211  0.000342458 -0.000188687      8.46899 
         950      8.57159  0.000338911 -0.000186527      8.46899 
         950      8.66161  0.000335427 -0.000184368      8.46899 
         950      8.75203  0.000332041 -0.000182212        8.469 
         950      8.84299  0.000328783 -0.000180059        8.469 
         950      8.93443  0.000325706 -0.000177911        8.469 
         950      9.02626  0.000323005 -0.000175646      8.46901 
         950      9.11863  0.000319785 -0.000173592      8.46901 
         950      9.21139  0.000316433 -0.000171561      8.46901 
         950      9.30471  0.000313012 -0.000169453      8.46902 
         950      9.39841  0.000309613 -0.000167345      8.46902 
         950      9.49267  0.000306282 -0.000165258      8.46902 
         950      9.58739  0.000303016  -0.00016319      8.46903 
         950      9.68251  0.000299813 -0.000161141      8.46903 
         950      9.77817  0.000296663 -0.000159102      8.46903 
         950      9.87422  0.000293567 -0.000157076      8.46904 
         950      9.97083  0.000290517 -0.000155058      8.46904 
         950      10.0678  0.000287514 -0.000153049      8.46904 
         950      10.1654  0.000284549 -0.000151045      8.46905 
         950      10.2633  0.000281626 -0.000149051      8.46905 
         950      10.3618  0.000278736 -0.000147061      8.46905 
         950      10.4607  0.000275879 -0.000145078      8.46906 
         950      10.5601  0.000273057 -0.000143105      8.46906 
         950        10.66  0.000270263 -0.000141139      8.46906 
         950      10.7603    0.0002675 -0.000139183      8.46907 
         950      10.8611  0.000264763 -0.000137238      8.46907 
         950      10.9623  0.000262055 -0.000135305      8.46907 
         950      11.0641  0.000259372 -0.000133385      8.46908 
         950      11.1663  0.000256715 -0.000131479      8.46908 
         950       11.269  0.000254085  -0.00012959      8.46908 
         950      11.3721   0.00025148 -0.000127718      8.46909 
         950      11.4757  0.000248902 -0.000125865      8.46909 
         950      11.5798  0.000246349  -0.00012403      8.46909 
         950      11.6844  0.000243825 -0.000122216       8.4691 
         950      11.7894  0.000241325 -0.000120422       8.4691 
         950       11.895  0.000238854  -0.00011865       8.4691 
         950      12.0009  0.000236412   -0.0001169      8.46911 
         950      12.1073  0.000233997  -0.00011517      8.46911 
         950      12.2142  0.000231614 -0.000113463      8.46911 
         950      12.3216  0.000229259 -0.000111775      8.46912 
         950      12.4294  0.000226937 -0.000110108      8.46912 
         950      12.5378  0.000224644 -0.000108459      8.46912 
         950      12.6465  0.000222385 -0.000106828      8.46912 
         950      12.7558  0.000220157 -0.000105213      8.46913 
         950      12.8656  0.000217961 -0.000103613      8.46913 
         950      12.9757  0.000215801 -0.000102027      8.46913 
         950      13.0864  0.000213672 -0.000100451      8.46914 
         950      13.1975  0.000211578 -9.88859e-05      8.46914 
         950      13.3092  0.000209516 -9.73282e-05      8.46914 
         950      13.4212  0.000207488 -9.57786e-05      8.46915 
         950      13.5338  0.000205491 -9.42337e-05      8.46915 
         950      13.6468  0.000203527 -9.26944e-05      8.46915 
         950      13.7603  0.000201596 -9.11616e-05      8.46916 
         950      13.8743  0.000199693 -8.96339e-05      8.46916 
         950      13.9886  0.000197822 -8.81152e-05      8.46916 
         950      14.1036  0.000195977  -8.6606e-05      8.46917 
         950      14.2189  0.000194161 -8.51126e-05      8.46917 
         950      14.3348  0.000192368 -8.36383e-05      8.46917 
         950       14.451  0.000190601 -8.21928e-05      8.46918 
         950      14.5678  0.000188855 -8.07832e-05      8.46918 
         950      14.6851  0.000187129 -7.94226e-05      8.46918 
         950      14.8028  0.000185422 -7.81265e-05      8.46919 
         950       14.921  0.000183731 -7.69103e-05      8.46919 
         950      15.0396  0.000182055 -7.57969e-05      8.46919 
         950      15.1588  0.000180393 -7.43522e-05       8.4692 
         950      15.2783  0.000178743 -7.27713e-05       8.4692 
         950      15.3984  0.000177107 -7.12941e-05       8.4692 
         950       15.519  0.000175497 -6.99006e-05      8.46921 
         950        15.64  0.000173923 -6.85725e-05      8.46921 
         950      15.7615  0.000172392 -6.72911e-05      8.46921 
         950      15.8834  0.000170915 -6.60439e-05      8.46922 
         950      16.0058  0.000169493 -6.48173e-05      8.46922 
         950      16.1286   0.00016813 -6.36041e-05      8.46922 
         950       16.252   0.00016682 -6.23962e-05      8.46923 
         950      16.3759  0.000165553 -6.11913e-05      8.46923 
         950      16.5002  0.000164313 -5.99898e-05      8.46923 
         950       16.625   0.00016307 -5.87926e-05      8.46924 
         950      16.7501  0.000161787 -5.76071e-05      8.46924 
         950      16.8759   0.00016041 -5.64403e-05      8.46924 
         950       17.002  0.000158875 -5.53057e-05      8.46925 
         950      17.1287   0.00015759 -5.42119e-05      8.46925 
         950      17.2557  0.000156385 -5.31253e-05      8.46926 
         950      17.3834  0.000155183 -5.20439e-05      8.46926 
         950      17.5115  0.000153992 -5.09712e-05      8.46926 
         950      17.6399  0.000152816 -4.99104e-05      8.46927 
         950       17.769  0.000151656 -4.88612e-05      8.46927 
         950      17.8984  0.000150517 -4.78268e-05      8.46927 
         950      18.0284  0.000149399 -4.68062e-05      8.46928 
         950      18.1587  0.000148304 -4.58018e-05      8.46928 
         950      18.2896   0.00014723  -4.4812e-05      8.46928 
         950       18.421   0.00014618 -4.38377e-05      8.46929 
         950      18.5528  0.000145153 -4.28796e-05      8.46929 
         950      18.6851  0.000144147 -4.19355e-05       8.4693 
         950      18.8178  0.000143164 -4.10067e-05       8.4693 
         950      18.9511    0.0001422 -4.00909e-05       8.4693 
         950      19.0847  0.000141256 -3.91889e-05      8.46931 
         950      19.2189  0.000140331 -3.82987e-05      8.46931 
         950      19.3535  0.000139423  -3.7421e-05      8.46931 
         950      19.4886  0.000138532 -3.65536e-05      8.46932 
         950      19.6242  0.000137658 -3.56967e-05      8.46932 
         950      19.7602    0.0001368 -3.48505e-05      8.46933 
         950      19.8968  0.000135957  -3.4013e-05      8.46933 
         950      20.0337   0.00013513 -3.31853e-05      8.46933 
         950      20.1712  0.000134319 -3.23657e-05      8.46934 
         950      20.3091  0.000133524 -3.15555e-05      8.46934 
         950      20.4475  0.000132745 -3.07532e-05      8.46935 
         950      20.5864  0.000131983 -2.99595e-05      8.46935 
         950      20.7257  0.000131239 -2.91752e-05      8.46935 
         950      20.8655  0.000130512 -2.83991e-05      8.46936 
         950      21.0058  0.000129805 -2.76325e-05      8.46936 
         950      21.1465  0.000129108 -2.68727e-05      8.46937 
         950      21.2877  0.000128418 -2.61239e-05      8.46937 
         950      21.4294  0.000127744 -2.53886e-05      8.46938 
         950      21.5716  0.000127085 -2.46682e-05      8.46938 
         950      21.7142  0.000126442 -2.39639e-05      8.46938 
         950      21.8573  0.000125814 -2.32758e-05      8.46939 
         950      22.0008  0.000125203 -2.26056e-05      8.46939 
         950      22.1449  0.000124606 -2.19529e-05       8.4694 
         950      22.2893  0.000124025 -2.13192e-05       8.4694 
         950      22.4344  0.000123458  -2.0703e-05      8.46941 
         950      22.5797  0.000122905 -2.01046e-05      8.46941 
         950      22.7257  0.000122366 -1.95209e-05      8.46942 
         950      22.8721   0.00012184 -1.89496e-05      8.46942 
         950      23.0189  0.000121327 -1.83868e-05      8.46942 
         950      23.1663  0.000120827 -1.78255e-05      8.46943 
         950       23.314  0.000120339 -1.72587e-05      8.46943 
         950      23.4623  0.000119865 -1.66755e-05      8.46944 
         950       23.611  0.000119403 -1.60641e-05      8.46944 
         950      23.7602  0.000118956 -1.54079e-05      8.46945 
         950        23.91  0.000118524 -1.46885e-05      8.46945 
         950        24.06  0.000118109  -1.3884e-05      8.46946 
         950      24.2107  0.000117713 -1.29664e-05      8.46946 
         950      24.3617  0.000117194 -1.28509e-05      8.46947 
         950      24.5133  0.000116702 -1.26551e-05      8.46947 
         950      24.6653  0.000116242 -1.23472e-05      8.46948 
         950      24.8178  0.000115807 -1.19538e-05      8.46948 
         950      24.9708  0.000115395 -1.14982e-05      8.46949 
         950      25.1242  0.000115001 -1.10009e-05      8.46949 
         950      25.2781  0.000114623 -1.04776e-05       8.4695 
         950      25.4324  0.000114259  -9.9428e-06       8.4695 
         950      25.5873  0.000113906 -9.40685e-06      8.46951 
         950      25.7426  0.000113564 -8.87918e-06      8.46951 
         950      25.8984  0.000113232 -8.36543e-06      8.46952 
         950      26.0546  0.000112909 -7.87094e-06      8.46952 
         950      26.2114  0.000112594 -7.39776e-06      8.46953 
         950      26.3686  0.000112288 -6.94767e-06      8.46953 
         950      26.5262  0.000111991 -6.52111e-06      8.46954 
         950      26.6844  0.000111702 -6.11651e-06      8.46955 
         950      26.8429  0.000111421 -5.73277e-06      8.46955 
         950       27.002   0.00011115 -5.36696e-06      8.46956 
         950      27.1615  0.000110887 -5.01686e-06      8.46956 
         950      27.3216  0.000110632 -4.67886e-06      8.46957 
         950      27.4821  0.000110386 -4.35012e-06      8.46957 
         950       27.643  0.000110148  -4.0278e-06      8.46958 
         950      27.8044  0.000109917 -3.70847e-06      8.46959 
         950      27.9663  0.000109694 -3.39004e-06      8.46959 
         950      28.1287  0.000109477 -3.06981e-06       8.4696 
         950      28.2914  0.000109266 -2.74657e-06       8.4696 
         950      28.4548  0.000109059 -2.41865e-06      8.46961 
         950      28.6185  0.000108857 -2.08598e-06      8.46962 
         950      28.7828  0.000108658 -1.74806e-06      8.46962 
         950      28.9475  0.000108461 -1.40577e-06      8.46963 
         950      29.1126  0.000108266 -1.06058e-06      8.46963 
         950      29.2784  0.000108072 -7.13629e-07      8.46964 
         950      29.4444   0.00010788 -3.67576e-07      8.46965 
         950       29.611  0.000107689 -2.42767e-08      8.46965 
         950       29.778  0.000107502  3.13174e-07      8.46966 
         950      29.9456  0.000107319  6.42794e-07      8.46967 
         950      30.1137  0.000107143  9.62051e-07      8.46967 
         950      30.2821  0.000106978  1.26896e-06      8.46968 
         950      30.4511  0.000106828  1.56307e-06      8.46969 
         950      30.6204  0.000106701  1.84413e-06      8.46969 
         950      30.7903  0.000106604  2.11433e-06       8.4697 
         950      30.9606  0.000106546  2.37692e-06      8.46971 
         950      31.1315   0.00010654  2.63843e-06      8.46971 
         950      31.3028  0.000106602  2.90773e-06      8.46972 
         950      31.4745  0.000106747  3.19714e-06      8.46973 
         950      31.6468  0.000106987  3.52197e-06      8.46973 
         950      31.8194  0.000106766  3.78508e-06      8.46974 
         950      31.9926  0.000106487  4.07998e-06      8.46975 
         950      32.1662  0.000106142  4.42968e-06      8.46976 
         950      32.3404   0.00010583  4.69798e-06      8.46976 
         950      32.5149   0.00010568  4.78526e-06      8.46977 
         950        32.69  0.000105557   4.9139e-06      8.46978 
         950      32.8655  0.000105458  5.07517e-06      8.46979 
         950      33.0414  0.000105379   5.2612e-06      8.46979 
         950       33.218  0.000105316  5.46553e-06       8.4698 
         950      33.3948  0.000105266  5.68195e-06      8.46981 
         950      33.5723  0.000105227  5.90576e-06      8.46982 
         950        33.75  0.000105195   6.1323e-06      8.46982 
         950      33.9284   0.00010517  6.35837e-06      8.46983 
         950      34.1073  0.000105149  6.58085e-06      8.46984 
         950      34.2865  0.000105131  6.79727e-06      8.46985 
         950      34.4663  0.000105114  7.00623e-06      8.46986 
         950      34.6465  0.000105099  7.20612e-06      8.46986 
         950      34.8272  0.000105084  7.39646e-06      8.46987 
         950      35.0083  0.000105069  7.57655e-06      8.46988 
         950        35.19  0.000105054  7.74661e-06      8.46989 
         950      35.3721  0.000105038  7.90673e-06       8.4699 
         950      35.5546  0.000105022  8.05728e-06      8.46991 
         950      35.7377  0.000105005  8.19922e-06      8.46991 
         950      35.9211  0.000104989  8.33317e-06      8.46992 
         950      36.1052  0.000104972  8.46033e-06      8.46993 
         950      36.2895  0.000104956  8.58155e-06      8.46994 
         950      36.4745  0.000104942  8.69814e-06      8.46995 
         950      36.6598  0.000104928  8.81102e-06      8.46996 
         950      36.8457  0.000104917  8.92144e-06      8.46997 
         950      37.0321  0.000104907  9.03033e-06      8.46998 
         950      37.2188  0.000104901  9.13855e-06      8.46998 
         950      37.4062  0.000104897  9.24708e-06      8.46999 
         950      37.5938  0.000104896  9.35643e-06         8.47 
         950      37.7821  0.000104899  9.46732e-06      8.47001 
         950      37.9707  0.000104905  9.57992e-06      8.47002 
         950      38.1599  0.000104915  9.69461e-06      8.47003 
         950      38.3496  0.000104928  9.81129e-06      8.47004 
         950      38.5396  0.000104945  9.92968e-06      8.47005 
         950      38.7302  0.000104965  1.00496e-05      8.47006 
         950      38.9211  0.000104987  1.01703e-05      8.47007 
         950      39.1127  0.000105013  1.02912e-05      8.47008 
         950      39.3046   0.00010504  1.04113e-05      8.47009 
         950      39.4971  0.000105069  1.05297e-05       8.4701 
         950      39.6899  0.000105099  1.06452e-05      8.47011 
         950      39.8833  0.000105129  1.07567e-05      8.47012 
         950      40.0772  0.000105158   1.0863e-05      8.47013 
         950      40.2714  0.000105186  1.09628e-05      8.47014 
         950      40.4663  0.000105212  1.10551e-05      8.47015 
         950      40.6615  0.000105236  1.11388e-05      8.47016 
         950      40.8573  0.000105255  1.12133e-05      8.47017 
         950      41.0534   0.00010527  1.12779e-05      8.47018 
         950      41.2501  0.000105281  1.13326e-05      8.47019 
         950      41.4473  0.000105286  1.13777e-05       8.4702 
         950      41.6448  0.000105286   1.1414e-05      8.47022 
         950      41.8429  0.000105281   1.1443e-05      8.47023 
         950      42.0414   0.00010527  1.14672e-05      8.47024 
         950      42.2405  0.000105255  1.14896e-05      8.47025 
         950      42.4399  0.000105235  1.15146e-05      8.47026 
         950      42.6399  0.000105214  1.15477e-05      8.47027 
         950      42.8404  0.000105191  1.15958e-05      8.47028 
         950      43.0412  0.000105171   1.1667e-05      8.47029 
         950      43.2426  0.000105155  1.17717e-05      8.47031 
         950      43.4444  0.000105148  1.19217e-05      8.47032 
         950      43.6467  0.000105154  1.21314e-05      8.47033 
         950      43.8494  0.000105423  1.21313e-05      8.47034 
         950      44.0527  0.000105806  1.21998e-05      8.47035 
         950      44.2563  0.000106244  1.23889e-05      8.47037 
         950      44.4606  0.000106134  1.24325e-05      8.47038 
         950      44.6653  0.000106024  1.24458e-05      8.47039 
         950      44.8704  0.000106007   1.2462e-05       8.4704 
         950       45.076  0.000106069  1.24768e-05      8.47041 
         950       45.282  0.000106201  1.24864e-05      8.47043 
         950      45.4886  0.000106392  1.24877e-05      8.47044 
         950      45.6955  0.000106434  1.24709e-05      8.47045 
         950       45.903  0.000106342  1.24608e-05      8.47047 
         950      46.1111  0.000106254  1.24664e-05      8.47048 
         950      46.3194  0.000106178  1.24846e-05      8.47049 
         950      46.5283  0.000106116  1.25124e-05      8.47051 
         950      46.7376  0.000106072  1.25475e-05      8.47052 
         950      46.9475  0.000106049  1.25877e-05      8.47053 
         950      47.1577  0.000106046  1.26308e-05      8.47055 
         950      47.3685  0.000106065  1.26754e-05      8.47056 
         950      47.5798  0.000106104    1.272e-05      8.47057 
         950      47.7914  0.000106162  1.27633e-05      8.47059 
         950      48.0037  0.000106238  1.28044e-05       8.4706 