Variables = x, y, u, v, p

Zone, I=800, F=POINT
         950            0           -0           -0    -0.747535 
         950     0.000234 -1.14699e-05 -6.30935e-12    -0.747535 
         950     0.000939 -4.36354e-05 -4.74476e-11    -0.747535 
         950     0.002113 -8.98728e-05 -1.94785e-10    -0.747535 
         950     0.003759 -0.000141374 -5.84914e-10    -0.747535 
         950     0.005872 -0.000189134  -1.4415e-09    -0.747535 
         950     0.008457  -0.00022692 -3.11358e-09    -0.747535 
         950      0.01151 -0.000252559 -6.10822e-09    -0.747535 
         950     0.015036 -0.000268707 -1.11497e-08    -0.747535 
         950     0.019031 -0.000281597 -1.92115e-08    -0.747535 
         950     0.023493 -0.000298652 -3.15746e-08    -0.747535 
         950     0.028429  -0.00032533 -4.99121e-08    -0.747535 
         950     0.033831 -0.000362328 -7.62593e-08    -0.747535 
         950     0.039706 -0.000404947 -1.13173e-07    -0.747535 
         950     0.046047 -0.000445168 -1.63629e-07    -0.747535 
         950     0.052863 -0.000477279 -2.31253e-07    -0.747535 
         950      0.06015  -0.00050417 -3.20123e-07    -0.747535 
         950       0.0679 -0.000538835 -4.34776e-07    -0.747535 
         950     0.076126 -0.000588437 -5.80604e-07    -0.747535 
         950     0.084816 -0.000613546 -7.63124e-07    -0.747535 
         950     0.093982 -0.000652414 -9.88824e-07    -0.747535 
         950     0.103611 -0.000687476 -1.26405e-06    -0.747535 
         950     0.113718 -0.000719836  -1.5963e-06    -0.747535 
         950     0.124286 -0.000750124 -1.99236e-06    -0.747535 
         950     0.135333  -0.00077867 -2.46048e-06    -0.747535 
         950      0.14685 -0.000805355 -3.00808e-06    -0.747535 
         950     0.158827 -0.000829803  -3.6423e-06    -0.747535 
         950     0.171284 -0.000851602 -4.37182e-06    -0.747535 
         950     0.184201 -0.000870372 -5.20289e-06    -0.747535 
         950     0.197599 -0.000886067 -6.14393e-06    -0.747535 
         950     0.211455 -0.000898902 -7.19996e-06    -0.747535 
         950     0.225792  -0.00090924 -8.37884e-06    -0.747535 
         950       0.2406  -0.00091684 -9.68535e-06    -0.747535 
         950     0.255865 -0.000920768 -1.11229e-05    -0.747535 
         950     0.271613 -0.000922498 -1.26978e-05    -0.747535 
         950     0.287818 -0.000921526 -1.44108e-05    -0.747535 
         950     0.304506 -0.000918041 -1.62667e-05    -0.747535 
         950      0.32165 -0.000912258 -1.82639e-05    -0.747535 
         950     0.339278 -0.000904392  -2.0406e-05    -0.747535 
         950     0.357377 -0.000894681 -2.26912e-05    -0.747535 
         950      0.37593 -0.000883381 -2.51158e-05    -0.747535 
         950     0.394968 -0.000870722 -2.76817e-05    -0.747535 
         950     0.414461 -0.000856973 -3.03819e-05    -0.747535 
         950      0.43444 -0.000842365 -3.32171e-05    -0.747535 
         950     0.454872 -0.000827166  -3.6178e-05    -0.747535 
         950     0.475791 -0.000811592 -3.92649e-05    -0.747535 
         950     0.497163   -0.0007959 -4.24673e-05    -0.747535 
         950     0.519021 -0.000780284 -4.57843e-05    -0.747535 
         950      0.54135 -0.000764955 -4.92077e-05    -0.747535 
         950     0.564131 -0.000750101  -5.2728e-05    -0.747536 
         950       0.5874  -0.00073584 -5.63444e-05    -0.747536 
         950     0.611121 -0.000722293 -6.00447e-05    -0.747536 
         950      0.63533 -0.000709586 -6.38318e-05    -0.747536 
         950      0.65999 -0.000697836 -6.76868e-05    -0.747536 
         950     0.685139 -0.000687065   -7.161e-05    -0.747536 
         950     0.710759 -0.000677307 -7.55927e-05    -0.747536 
         950     0.736828 -0.000668574 -7.96254e-05    -0.747536 
         950     0.763387 -0.000660843 -8.37083e-05    -0.747536 
         950     0.790396 -0.000654094 -8.78287e-05    -0.747536 
         950     0.817896 -0.000648272 -9.19865e-05    -0.747536 
         950     0.845843  -0.00064332 -9.61686e-05    -0.747536 
         950     0.874283 -0.000639151 -0.000100375    -0.747536 
         950      0.90317 -0.000635677 -0.000104593    -0.747536 
         950     0.932551 -0.000632785 -0.000108822    -0.747536 
         950     0.962401 -0.000630361 -0.000113053    -0.747536 
         950     0.992697 -0.000628279 -0.000117276    -0.747536 
         950      1.02349 -0.000626405 -0.000121491    -0.747536 
         950      1.05472 -0.000624607 -0.000125687    -0.747536 
         950      1.08645 -0.000622748 -0.000129863    -0.747536 
         950      1.11863 -0.000620703 -0.000134008    -0.747536 
         950       1.1513 -0.000618344 -0.000138123    -0.747536 
         950      1.18444 -0.000615561   -0.0001422    -0.747536 
         950      1.21802 -0.000612258 -0.000146231    -0.747536 
         950      1.25211 -0.000608346 -0.000150218    -0.747536 
         950      1.28663 -0.000603768  -0.00015415    -0.747536 
         950      1.32165  -0.00059847 -0.000158031    -0.747536 
         950      1.35712 -0.000592436  -0.00016185    -0.747536 
         950      1.39308  -0.00058565  -0.00016561    -0.747536 
         950      1.42951 -0.000578126 -0.000169305    -0.747536 
         950      1.46638 -0.000569896  -0.00017293    -0.747536 
         950      1.50375 -0.000560973 -0.000176488    -0.747536 
         950      1.54156 -0.000551407  -0.00017995    -0.747535 
         950      1.57987 -0.000541329 -0.000183365    -0.747535 
         950      1.61863 -0.000530857 -0.000186726    -0.747535 
         950      1.65788 -0.000520066 -0.000190037    -0.747535 
         950      1.69757 -0.000509059 -0.000193292    -0.747535 
         950      1.73776 -0.000497895 -0.000196495    -0.747535 
         950      1.77842  -0.00048665 -0.000199641    -0.747534 
         950      1.81952 -0.000475393 -0.000202727    -0.747534 
         950      1.86113 -0.000464156 -0.000205757    -0.747534 
         950      1.90316    -0.000453 -0.000208725    -0.747533 
         950      1.94571 -0.000441941 -0.000211634    -0.747533 
         950      1.98869 -0.000431021 -0.000214479    -0.747533 
         950      2.03217 -0.000420242 -0.000217263    -0.747532 
         950      2.07612 -0.000409621 -0.000219983    -0.747532 
         950      2.12051 -0.000399171 -0.000222636    -0.747532 
         950       2.1654 -0.000388872 -0.000225224    -0.747531 
         950      2.21073 -0.000378732 -0.000227742    -0.747531 
         950      2.25656 -0.000368722 -0.000230193     -0.74753 
         950      2.30283  -0.00035884  -0.00023257     -0.74753 
         950       2.3496 -0.000349051 -0.000234877    -0.747529 
         950      2.39685 -0.000339342 -0.000237108    -0.747528 
         950      2.44452 -0.000329697  -0.00023926    -0.747528 
         950      2.49271 -0.000320077 -0.000241334    -0.747527 
         950      2.54132 -0.000310478 -0.000243324    -0.747526 
         950      2.59044 -0.000300863  -0.00024523    -0.747526 
         950         2.64 -0.000291234 -0.000247046    -0.747525 
         950      2.69006 -0.000281561 -0.000248771    -0.747524 
         950      2.74056 -0.000271853   -0.0002504    -0.747523 
         950      2.79156 -0.000262094 -0.000251932    -0.747522 
         950      2.84304 -0.000252295 -0.000253361    -0.747522 
         950      2.89494 -0.000242474 -0.000254682    -0.747521 
         950      2.94735 -0.000232634 -0.000255895     -0.74752 
         950       3.0002 -0.000222813 -0.000256993    -0.747519 
         950      3.05355 -0.000213025 -0.000257975    -0.747518 
         950      3.10733 -0.000203317 -0.000258838    -0.747517 
         950      3.16163 -0.000193711 -0.000259579    -0.747515 
         950      3.21639 -0.000184252 -0.000260197    -0.747514 
         950      3.27158 -0.000174982 -0.000260692    -0.747513 
         950      3.32729 -0.000165917 -0.000261063    -0.747512 
         950      3.38342 -0.000157092 -0.000261314    -0.747511 
         950      3.44007 -0.000148501 -0.000261448    -0.747509 
         950      3.49714 -0.000140143 -0.000261472    -0.747508 
         950      3.55472 -0.000131966 -0.000261394    -0.747507 
         950      3.61273 -0.000123906 -0.000261226    -0.747505 
         950      3.67125 -0.000115832 -0.000260983    -0.747504 
         950      3.73025 -0.000107573 -0.000260685    -0.747503 
         950      3.78967  -9.9728e-05 -0.000260183    -0.747501 
         950      3.84961 -9.24613e-05 -0.000259499      -0.7475 
         950      3.90996   -8.551e-05 -0.000258708    -0.747498 
         950      3.97084 -7.88623e-05  -0.00025781    -0.747497 
         950      4.03214 -7.25275e-05 -0.000256809    -0.747495 
         950      4.09395 -6.64943e-05 -0.000255706    -0.747493 
         950      4.15624  -6.0766e-05 -0.000254505    -0.747492 
         950      4.21895 -5.53442e-05 -0.000253208     -0.74749 
         950      4.28217 -5.02178e-05 -0.000251817    -0.747489 
         950      4.34582 -4.53919e-05 -0.000250336    -0.747487 
         950      4.40998 -4.08552e-05 -0.000248766    -0.747485 
         950      4.47457 -3.66112e-05 -0.000247113    -0.747484 
         950      4.53968 -3.26489e-05 -0.000245376    -0.747482 
         950      4.60525 -2.89673e-05 -0.000243561     -0.74748 
         950      4.67125 -2.55641e-05 -0.000241671    -0.747479 
         950      4.73777 -2.24287e-05 -0.000239708    -0.747477 
         950       4.8047 -1.95605e-05 -0.000237677    -0.747475 
         950      4.87216 -1.69493e-05 -0.000235578    -0.747473 
         950      4.94003 -1.45931e-05 -0.000233419    -0.747472 
         950      5.00843 -1.24817e-05 -0.000231199     -0.74747 
         950      5.07724  -1.0612e-05 -0.000228925    -0.747468 
         950      5.14658 -8.97421e-06 -0.000226597    -0.747467 
         950      5.21639  -7.5629e-06  -0.00022422    -0.747465 
         950      5.28661 -6.37174e-06   -0.0002218    -0.747463 
         950      5.35736 -5.39149e-06 -0.000219337    -0.747461 
         950      5.42852 -4.61623e-06 -0.000216837     -0.74746 
         950      5.50021 -4.03714e-06 -0.000214301    -0.747458 
         950      5.57231 -3.64746e-06 -0.000211736    -0.747456 
         950      5.64493 -3.43881e-06 -0.000209141    -0.747454 
         950      5.71803 -3.40379e-06 -0.000206522    -0.747453 
         950      5.79154 -3.53439e-06 -0.000203885    -0.747451 
         950      5.86558 -3.82303e-06 -0.000201229    -0.747449 
         950      5.94003 -4.26147e-06 -0.000198561    -0.747447 
         950      6.01501 -4.84268e-06 -0.000195881    -0.747446 
         950       6.0904  -5.5581e-06 -0.000193196    -0.747444 
         950      6.16632 -6.40132e-06 -0.000190506    -0.747442 
         950      6.24271 -7.36441e-06 -0.000187814    -0.747441 
         950       6.3195 -8.43915e-06 -0.000185127    -0.747439 
         950      6.39683 -9.62018e-06 -0.000182444    -0.747437 
         950      6.47457 -1.08987e-05 -0.000179771    -0.747436 
         950      6.55284 -1.22699e-05 -0.000177106    -0.747434 
         950      6.63152 -1.37252e-05 -0.000174458    -0.747432 
         950      6.71073 -1.52607e-05 -0.000171823    -0.747431 
         950      6.79034 -1.68678e-05  -0.00016921    -0.747429 
         950      6.87049 -1.85433e-05 -0.000166614    -0.747427 
         950      6.95111 -2.02805e-05 -0.000164042    -0.747426 
         950      7.03214 -2.20725e-05 -0.000161496    -0.747424 
         950       7.1137 -2.39174e-05 -0.000158974    -0.747423 
         950      7.19566 -2.58073e-05 -0.000156481    -0.747421 
         950      7.27816 -2.77408e-05 -0.000154015     -0.74742 
         950      7.36106 -2.97106e-05 -0.000151581    -0.747418 
         950      7.44451 -3.17156e-05 -0.000149176    -0.747416 
         950      7.52842 -3.37506e-05 -0.000146801    -0.747415 
         950      7.61273 -3.58102e-05 -0.000144459    -0.747413 
         950      7.69758  -3.7894e-05 -0.000142146    -0.747412 
         950      7.78283 -3.99953e-05 -0.000139865     -0.74741 
         950      7.86862 -4.21139e-05 -0.000137612    -0.747409 
         950      7.95481  -4.4243e-05 -0.000135389    -0.747407 
         950      8.04155 -4.63824e-05 -0.000133192    -0.747406 
         950      8.12868  -4.8525e-05 -0.000131021    -0.747404 
         950      8.21635 -5.06702e-05 -0.000128871    -0.747403 
         950      8.30449  -5.2812e-05 -0.000126742    -0.747402 
         950      8.39303 -5.49438e-05 -0.000124631      -0.7474 
         950      8.48211 -5.70636e-05 -0.000122532    -0.747399 
         950      8.57159 -5.91621e-05 -0.000120443    -0.747397 
         950      8.66161 -6.12356e-05 -0.000118358    -0.747396 
         950      8.75203  -6.3273e-05 -0.000116274    -0.747394 
         950      8.84299 -6.52683e-05 -0.000114182    -0.747393 
         950      8.93443 -6.72096e-05 -0.000112078    -0.747392 
         950      9.02626 -6.88631e-05 -0.000109852     -0.74739 
         950      9.11863 -7.05862e-05  -0.00010789    -0.747389 
         950      9.21139 -7.23375e-05 -0.000105995    -0.747388 
         950      9.30471 -7.40809e-05  -0.00010417    -0.747386 
         950      9.39841 -7.58237e-05 -0.000102396    -0.747385 
         950      9.49267 -7.75648e-05 -0.000100637    -0.747384 
         950      9.58739 -7.92969e-05 -9.88918e-05    -0.747382 
         950      9.68251 -8.10138e-05 -9.71602e-05    -0.747381 
         950      9.77817 -8.27138e-05 -9.54387e-05     -0.74738 
         950      9.87422 -8.43909e-05 -9.37296e-05    -0.747379 
         950      9.97083 -8.60447e-05 -9.20298e-05    -0.747377 
         950      10.0678 -8.76705e-05 -9.03421e-05    -0.747376 
         950      10.1654 -8.92691e-05 -8.86639e-05    -0.747375 
         950      10.2633  -9.0837e-05 -8.69985e-05    -0.747374 
         950      10.3618  -9.2376e-05 -8.53437e-05    -0.747372 
         950      10.4607 -9.38846e-05 -8.37018e-05    -0.747371 
         950      10.5601  -9.5362e-05 -8.20748e-05     -0.74737 
         950        10.66 -9.68109e-05 -8.04612e-05    -0.747369 
         950      10.7603 -9.82299e-05 -7.88647e-05    -0.747368 
         950      10.8611 -9.96223e-05 -7.72836e-05    -0.747366 
         950      10.9623 -0.000100987 -7.57216e-05    -0.747365 
         950      11.0641 -0.000102328 -7.41773e-05    -0.747364 
         950      11.1663 -0.000103645 -7.26529e-05    -0.747363 
         950       11.269 -0.000104939 -7.11505e-05    -0.747362 
         950      11.3721 -0.000106214 -6.96685e-05    -0.747361 
         950      11.4757 -0.000107468 -6.82098e-05    -0.747359 
         950      11.5798 -0.000108706 -6.67729e-05    -0.747358 
         950      11.6844 -0.000109926 -6.53602e-05    -0.747357 
         950      11.7894 -0.000111131 -6.39697e-05    -0.747356 
         950       11.895 -0.000112322 -6.26026e-05    -0.747355 
         950      12.0009 -0.000113498 -6.12598e-05    -0.747354 
         950      12.1073 -0.000114662 -5.99387e-05    -0.747353 
         950      12.2142 -0.000115811  -5.8641e-05    -0.747352 
         950      12.3216 -0.000116947 -5.73637e-05    -0.747351 
         950      12.4294 -0.000118069 -5.61079e-05     -0.74735 
         950      12.5378 -0.000119177 -5.48707e-05    -0.747348 
         950      12.6465 -0.000120269 -5.36527e-05    -0.747347 
         950      12.7558 -0.000121345 -5.24507e-05    -0.747346 
         950      12.8656 -0.000122403 -5.12644e-05    -0.747345 
         950      12.9757 -0.000123441 -5.00931e-05    -0.747344 
         950      13.0864 -0.000124458 -4.89337e-05    -0.747343 
         950      13.1975 -0.000125451 -4.77867e-05    -0.747342 
         950      13.3092 -0.000126421 -4.66491e-05    -0.747341 
         950      13.4212 -0.000127363  -4.5522e-05     -0.74734 
         950      13.5338 -0.000128279 -4.44029e-05    -0.747339 
         950      13.6468 -0.000129165 -4.32925e-05    -0.747338 
         950      13.7603 -0.000130021 -4.21923e-05    -0.747337 
         950      13.8743 -0.000130847 -4.11015e-05    -0.747336 
         950      13.9886 -0.000131644 -4.00237e-05    -0.747335 
         950      14.1036 -0.000132414   -3.896e-05    -0.747334 
         950      14.2189 -0.000133158 -3.79162e-05    -0.747333 
         950      14.3348 -0.000133881 -3.68958e-05    -0.747332 
         950       14.451 -0.000134589 -3.59071e-05    -0.747331 
         950      14.5678 -0.000135288 -3.49573e-05     -0.74733 
         950      14.6851  -0.00013599 -3.40573e-05    -0.747329 
         950      14.8028 -0.000136705 -3.32206e-05    -0.747328 
         950       14.921 -0.000137449 -3.24609e-05    -0.747327 
         950      15.0396 -0.000138239 -3.17973e-05    -0.747326 
         950      15.1588 -0.000138883  -3.0846e-05    -0.747325 
         950      15.2783 -0.000139434 -2.97669e-05    -0.747324 
         950      15.3984 -0.000140008 -2.87742e-05    -0.747323 
         950       15.519 -0.000140604 -2.78548e-05    -0.747323 
         950        15.64 -0.000141219 -2.69966e-05    -0.747322 
         950      15.7615 -0.000141851 -2.61873e-05    -0.747321 
         950      15.8834 -0.000142493 -2.54181e-05     -0.74732 
         950      16.0058 -0.000143141 -2.46788e-05    -0.747319 
         950      16.1286 -0.000143785 -2.39619e-05    -0.747318 
         950       16.252 -0.000144417 -2.32579e-05    -0.747317 
         950      16.3759 -0.000145024 -2.25583e-05    -0.747316 
         950      16.5002 -0.000145594 -2.18533e-05    -0.747315 
         950       16.625 -0.000146112 -2.11295e-05    -0.747314 
         950      16.7501 -0.000146559 -2.03728e-05    -0.747313 
         950      16.8759 -0.000146918 -1.95626e-05    -0.747312 
         950       17.002 -0.000147166 -1.86757e-05    -0.747311 
         950      17.1287 -0.000147771 -1.80814e-05     -0.74731 
         950      17.2557 -0.000148371 -1.75239e-05    -0.747309 
         950      17.3834 -0.000148888  -1.6936e-05    -0.747308 
         950      17.5115 -0.000149341 -1.63264e-05    -0.747307 
         950      17.6399 -0.000149744 -1.57031e-05    -0.747306 
         950       17.769 -0.000150111 -1.50718e-05    -0.747305 
         950      17.8984 -0.000150452 -1.44391e-05    -0.747304 
         950      18.0284 -0.000150776 -1.38089e-05    -0.747304 
         950      18.1587  -0.00015109 -1.31862e-05    -0.747303 
         950      18.2896 -0.000151399 -1.25735e-05    -0.747302 
         950       18.421 -0.000151706 -1.19738e-05    -0.747301 
         950      18.5528 -0.000152014 -1.13897e-05      -0.7473 
         950      18.6851 -0.000152325 -1.08215e-05    -0.747299 
         950      18.8178 -0.000152637  -1.0271e-05    -0.747298 
         950      18.9511 -0.000152952 -9.73761e-06    -0.747297 
         950      19.0847 -0.000153266 -9.22196e-06    -0.747296 
         950      19.2189 -0.000153579 -8.72266e-06    -0.747295 
         950      19.3535 -0.000153888 -8.23957e-06    -0.747294 
         950      19.4886  -0.00015419 -7.77063e-06    -0.747293 
         950      19.6242 -0.000154483  -7.3147e-06    -0.747292 
         950      19.7602 -0.000154764  -6.8704e-06    -0.747291 
         950      19.8968 -0.000155032 -6.43512e-06     -0.74729 
         950      20.0337 -0.000155284 -6.00754e-06    -0.747289 
         950      20.1712 -0.000155519 -5.58493e-06    -0.747288 
         950      20.3091 -0.000155736 -5.16592e-06    -0.747287 
         950      20.4475 -0.000155934 -4.74782e-06    -0.747286 
         950      20.5864 -0.000156113 -4.32909e-06    -0.747285 
         950      20.7257 -0.000156276 -3.90833e-06    -0.747284 
         950      20.8655 -0.000156424 -3.48332e-06    -0.747283 
         950      21.0058 -0.000156561  -3.0535e-06    -0.747282 
         950      21.1465 -0.000156717  -2.6345e-06    -0.747281 
         950      21.2877 -0.000156894 -2.23961e-06     -0.74728 
         950      21.4294  -0.00015706 -1.85436e-06    -0.747279 
         950      21.5716 -0.000157217 -1.47967e-06    -0.747278 
         950      21.7142 -0.000157367 -1.11645e-06    -0.747277 
         950      21.8573 -0.000157514 -7.64614e-07    -0.747276 
         950      22.0008 -0.000157657 -4.25147e-07    -0.747275 
         950      22.1449 -0.000157798 -9.77446e-08    -0.747274 
         950      22.2893 -0.000157939  2.17049e-07    -0.747273 
         950      22.4344 -0.000158078  5.19977e-07    -0.747272 
         950      22.5797 -0.000158215  8.11144e-07     -0.74727 
         950      22.7257  -0.00015835  1.09199e-06    -0.747269 
         950      22.8721  -0.00015848  1.36375e-06    -0.747268 
         950      23.0189 -0.000158602   1.6282e-06    -0.747267 
         950      23.1663 -0.000158713   1.8884e-06    -0.747266 
         950       23.314 -0.000158806   2.1473e-06    -0.747265 
         950      23.4623 -0.000158877  2.40946e-06    -0.747264 
         950       23.611 -0.000158918  2.67953e-06    -0.747263 
         950      23.7602  -0.00015892  2.96404e-06    -0.747261 
         950        23.91 -0.000158871     3.27e-06     -0.74726 
         950        24.06 -0.000158762   3.6056e-06    -0.747259 
         950      24.2107 -0.000158577  3.98122e-06    -0.747258 
         950      24.3617 -0.000158808  4.04289e-06    -0.747257 
         950      24.5133 -0.000159016  4.14943e-06    -0.747256 
         950      24.6653 -0.000159175  4.30911e-06    -0.747254 
         950      24.8178 -0.000159296  4.50786e-06    -0.747253 
         950      24.9708 -0.000159383  4.73334e-06    -0.747252 
         950      25.1242 -0.000159443  4.97507e-06    -0.747251 
         950      25.2781 -0.000159482  5.22492e-06     -0.74725 
         950      25.4324 -0.000159503  5.47563e-06    -0.747248 
         950      25.5873 -0.000159511  5.72222e-06    -0.747247 
         950      25.7426 -0.000159508  5.96023e-06    -0.747246 
         950      25.8984 -0.000159497  6.18719e-06    -0.747245 
         950      26.0546  -0.00015948  6.40093e-06    -0.747243 
         950      26.2114 -0.000159458  6.60088e-06    -0.747242 
         950      26.3686 -0.000159434  6.78673e-06    -0.747241 
         950      26.5262 -0.000159407  6.95886e-06    -0.747239 
         950      26.6844  -0.00015938  7.11857e-06    -0.747238 
         950      26.8429 -0.000159352  7.26703e-06    -0.747237 
         950       27.002 -0.000159325  7.40617e-06    -0.747235 
         950      27.1615 -0.000159299  7.53765e-06    -0.747234 
         950      27.3216 -0.000159273  7.66362e-06    -0.747233 
         950      27.4821 -0.000159249  7.78591e-06    -0.747231 
         950       27.643 -0.000159228  7.90623e-06     -0.74723 
         950      27.8044 -0.000159208  8.02643e-06    -0.747228 
         950      27.9663 -0.000159192  8.14771e-06    -0.747227 
         950      28.1287 -0.000159178  8.27136e-06    -0.747226 
         950      28.2914 -0.000159169  8.39796e-06    -0.747224 
         950      28.4548 -0.000159163  8.52809e-06    -0.747223 
         950      28.6185 -0.000159161  8.66157e-06    -0.747221 
         950      28.7828 -0.000159164  8.79823e-06     -0.74722 
         950      28.9475 -0.000159171  8.93722e-06    -0.747218 
         950      29.1126 -0.000159183  9.07732e-06    -0.747217 
         950      29.2784 -0.000159199  9.21739e-06    -0.747215 
         950      29.4444 -0.000159217  9.35556e-06    -0.747214 
         950       29.611 -0.000159237  9.49029e-06    -0.747212 
         950       29.778 -0.000159257  9.61952e-06    -0.747211 
         950      29.9456 -0.000159273  9.74171e-06    -0.747209 
         950      30.1137 -0.000159283  9.85522e-06    -0.747207 
         950      30.2821  -0.00015928  9.95881e-06    -0.747206 
         950      30.4511 -0.000159261  1.00521e-05    -0.747204 
         950      30.6204 -0.000159216   1.0135e-05    -0.747203 
         950      30.7903 -0.000159137  1.02091e-05    -0.747201 
         950      30.9606 -0.000159013  1.02768e-05    -0.747199 
         950      31.1315  -0.00015883  1.03422e-05    -0.747198 
         950      31.3028 -0.000158573  1.04116e-05    -0.747196 
         950      31.4745 -0.000158224  1.04931e-05    -0.747194 
         950      31.6468  -0.00015777  1.05981e-05    -0.747193 
         950      31.8194  -0.00015769  1.07378e-05    -0.747191 
         950      31.9926 -0.000157623  1.09096e-05    -0.747189 
         950      32.1662 -0.000157578   1.1122e-05    -0.747187 
         950      32.3404 -0.000157676  1.12489e-05    -0.747186 
         950      32.5149 -0.000157875  1.12147e-05    -0.747184 
         950        32.69 -0.000157984  1.12131e-05    -0.747182 
         950      32.8655 -0.000158021   1.1238e-05     -0.74718 
         950      33.0414    -0.000158  1.12837e-05    -0.747178 
         950       33.218 -0.000157936  1.13455e-05    -0.747177 
         950      33.3948 -0.000157839  1.14189e-05    -0.747175 
         950      33.5723  -0.00015772  1.15001e-05    -0.747173 
         950        33.75 -0.000157587   1.1586e-05    -0.747171 
         950      33.9284 -0.000157446  1.16738e-05    -0.747169 
         950      34.1073 -0.000157305  1.17611e-05    -0.747167 
         950      34.2865 -0.000157166  1.18461e-05    -0.747165 
         950      34.4663 -0.000157033  1.19274e-05    -0.747163 
         950      34.6465 -0.000156908  1.20037e-05    -0.747161 
         950      34.8272 -0.000156793  1.20743e-05    -0.747159 
         950      35.0083 -0.000156689  1.21387e-05    -0.747157 
         950        35.19 -0.000156596  1.21967e-05    -0.747155 
         950      35.3721 -0.000156512  1.22481e-05    -0.747153 
         950      35.5546 -0.000156437  1.22932e-05    -0.747151 
         950      35.7377  -0.00015637  1.23324e-05    -0.747149 
         950      35.9211 -0.000156309   1.2366e-05    -0.747147 
         950      36.1052 -0.000156252  1.23948e-05    -0.747145 
         950      36.2895 -0.000156197  1.24192e-05    -0.747142 
         950      36.4745 -0.000156142  1.24402e-05     -0.74714 
         950      36.6598 -0.000156085  1.24585e-05    -0.747138 
         950      36.8457 -0.000156025  1.24748e-05    -0.747136 
         950      37.0321 -0.000155959  1.24898e-05    -0.747134 
         950      37.2188 -0.000155887  1.25044e-05    -0.747131 
         950      37.4062 -0.000155807  1.25192e-05    -0.747129 
         950      37.5938 -0.000155718  1.25347e-05    -0.747127 
         950      37.7821  -0.00015562  1.25515e-05    -0.747125 
         950      37.9707 -0.000155513    1.257e-05    -0.747122 
         950      38.1599 -0.000155396  1.25905e-05     -0.74712 
         950      38.3496 -0.000155271  1.26133e-05    -0.747118 
         950      38.5396 -0.000155139  1.26382e-05    -0.747115 
         950      38.7302 -0.000155001  1.26654e-05    -0.747113 
         950      38.9211 -0.000154859  1.26946e-05     -0.74711 
         950      39.1127 -0.000154715  1.27254e-05    -0.747108 
         950      39.3046 -0.000154571  1.27574e-05    -0.747105 
         950      39.4971  -0.00015443  1.27901e-05    -0.747103 
         950      39.6899 -0.000154295  1.28227e-05      -0.7471 
         950      39.8833 -0.000154168  1.28545e-05    -0.747098 
         950      40.0772 -0.000154052  1.28847e-05    -0.747095 
         950      40.2714  -0.00015395  1.29123e-05    -0.747093 
         950      40.4663 -0.000153863  1.29364e-05     -0.74709 
         950      40.6615 -0.000153794  1.29561e-05    -0.747087 
         950      40.8573 -0.000153744  1.29706e-05    -0.747085 
         950      41.0534 -0.000153713  1.29789e-05    -0.747082 
         950      41.2501 -0.000153701  1.29804e-05    -0.747079 
         950      41.4473 -0.000153706  1.29745e-05    -0.747077 
         950      41.6448 -0.000153725   1.2961e-05    -0.747074 
         950      41.8429 -0.000153753  1.29397e-05    -0.747071 
         950      42.0414 -0.000153782   1.2911e-05    -0.747068 
         950      42.2405 -0.000153805  1.28755e-05    -0.747065 
         950      42.4399 -0.000153808  1.28344e-05    -0.747063 
         950      42.6399 -0.000153779  1.27894e-05     -0.74706 
         950      42.8404 -0.000153697  1.27428e-05    -0.747057 
         950      43.0412 -0.000153543  1.26979e-05    -0.747054 
         950      43.2426  -0.00015329  1.26584e-05    -0.747051 
         950      43.4444 -0.000152909  1.26294e-05    -0.747048 
         950      43.6467 -0.000152362  1.26166e-05    -0.747045 
         950      43.8494 -0.000152247  1.27905e-05    -0.747042 
         950      44.0527 -0.000152103  1.30642e-05    -0.747039 
         950      44.2563 -0.000151885  1.34193e-05    -0.747036 
         950      44.4606 -0.000151928  1.33376e-05    -0.747033 
         950      44.6653 -0.000152005  1.31918e-05     -0.74703 
         950      44.8704 -0.000152058  1.30644e-05    -0.747027 
         950       45.076 -0.000152084  1.29548e-05    -0.747024 
         950       45.282  -0.00015208  1.28625e-05     -0.74702 
         950      45.4886 -0.000152043   1.2787e-05    -0.747017 
         950      45.6955  -0.00015203  1.27332e-05    -0.747014 
         950       45.903 -0.000152042  1.26969e-05    -0.747011 
         950      46.1111 -0.000152038  1.26716e-05    -0.747007 
         950      46.3194 -0.000152018   1.2655e-05    -0.747004 
         950      46.5283 -0.000151983  1.26453e-05    -0.747001 
         950      46.7376 -0.000151931  1.26408e-05    -0.746997 
         950      46.9475 -0.000151865  1.26399e-05    -0.746994 
         950      47.1577 -0.000151786  1.26414e-05     -0.74699 
         950      47.3685 -0.000151693  1.26441e-05    -0.746987 
         950      47.5798  -0.00015159  1.26473e-05    -0.746983 
         950      47.7914 -0.000151477    1.265e-05     -0.74698 
         950      48.0037 -0.000151357  1.26518e-05    -0.746976 