Variables = x, y, u, v, p

Zone, I=800, F=POINT
         -10            0 -2.75977e-19 -1.28627e-24     -12.0506 
         -10     0.000234 -1.36731e-05 -6.28114e-11     -12.0506 
         -10     0.000939 -5.15235e-05 -2.24501e-10     -12.0506 
         -10     0.002113 -0.000104312 -3.99773e-10     -12.0506 
         -10     0.003759 -0.000159715 -4.40662e-10     -12.0506 
         -10     0.005872 -0.000205257 -1.27551e-10     -12.0506 
         -10     0.008457 -0.000232297  8.39513e-10     -12.0506 
         -10      0.01151 -0.000238044  2.84377e-09     -12.0506 
         -10     0.015036 -0.000226447  6.36033e-09     -12.0506 
         -10     0.019031  -0.00020662  1.19394e-08     -12.0506 
         -10     0.023493 -0.000189361  2.02004e-08     -12.0506 
         -10     0.028429 -0.000182656    3.184e-08     -12.0506 
         -10     0.033831 -0.000187959  4.75668e-08     -12.0506 
         -10     0.039706 -0.000199021  6.81642e-08     -12.0506 
         -10     0.046047 -0.000205067  9.44036e-08     -12.0506 
         -10     0.052863 -0.000198457  1.27159e-07     -12.0506 
         -10      0.06015  -0.00018378  1.67292e-07     -12.0506 
         -10       0.0679 -0.000179872  2.15641e-07     -12.0506 
         -10     0.076126 -0.000197219  2.73093e-07     -12.0506 
         -10     0.084816 -0.000180895  3.40161e-07     -12.0506 
         -10     0.093982 -0.000185161   4.1826e-07     -12.0506 
         -10     0.103611 -0.000185824  5.07825e-07     -12.0506 
         -10     0.113718 -0.000184812   6.0971e-07     -12.0506 
         -10     0.124286 -0.000183503  7.24419e-07     -12.0506 
         -10     0.135333 -0.000182668  8.52779e-07     -12.0506 
         -10      0.14685 -0.000182517  9.95261e-07     -12.0506 
         -10     0.158827 -0.000182839  1.15222e-06     -12.0506 
         -10     0.171284  -0.00018324  1.32432e-06     -12.0506 
         -10     0.184201 -0.000183417  1.51158e-06     -12.0506 
         -10     0.197599 -0.000183395  1.71449e-06     -12.0506 
         -10     0.211455 -0.000183589  1.93279e-06     -12.0506 
         -10     0.225792 -0.000184492  2.16689e-06     -12.0506 
         -10       0.2406  -0.00018574   2.4167e-06     -12.0506 
         -10     0.255865 -0.000185921  2.68166e-06     -12.0506 
         -10     0.271613 -0.000186955  2.96228e-06     -12.0506 
         -10     0.287818 -0.000187933   3.2585e-06     -12.0506 
         -10     0.304506 -0.000188882  3.57024e-06     -12.0506 
         -10      0.32165 -0.000189814  3.89659e-06     -12.0506 
         -10     0.339278 -0.000190736  4.23786e-06     -12.0506 
         -10     0.357377 -0.000191641  4.59368e-06     -12.0506 
         -10      0.37593 -0.000192517  4.96366e-06     -12.0506 
         -10     0.394968  -0.00019335   5.3484e-06     -12.0506 
         -10     0.414461 -0.000194118  5.74721e-06     -12.0506 
         -10      0.43444 -0.000194805  6.16053e-06     -12.0506 
         -10     0.454872 -0.000195394  6.58732e-06     -12.0506 
         -10     0.475791 -0.000195877  7.02774e-06     -12.0506 
         -10     0.497163  -0.00019625  7.48034e-06     -12.0506 
         -10     0.519021 -0.000196519  7.94498e-06     -12.0506 
         -10      0.54135 -0.000196689  8.42059e-06     -12.0506 
         -10     0.564131 -0.000196765  8.90637e-06     -12.0506 
         -10       0.5874 -0.000196732  9.40352e-06     -12.0506 
         -10     0.611121 -0.000196555  9.91258e-06     -12.0506 
         -10      0.63533 -0.000196324  1.04264e-05     -12.0506 
         -10      0.65999 -0.000195994  1.09466e-05     -12.0506 
         -10     0.685139 -0.000195589  1.14738e-05     -12.0506 
         -10     0.710759 -0.000195136  1.20071e-05     -12.0506 
         -10     0.736828 -0.000194659   1.2545e-05     -12.0506 
         -10     0.763387 -0.000194179  1.30874e-05     -12.0506 
         -10     0.790396  -0.00019372  1.36319e-05     -12.0506 
         -10     0.817896 -0.000193301  1.41777e-05     -12.0506 
         -10     0.845843 -0.000192941   1.4722e-05     -12.0506 
         -10     0.874283 -0.000192655  1.52638e-05     -12.0506 
         -10      0.90317 -0.000192458  1.58001e-05     -12.0506 
         -10     0.932551  -0.00019236    1.633e-05     -12.0506 
         -10     0.962401 -0.000192368   1.6851e-05     -12.0506 
         -10     0.992697 -0.000192488  1.73611e-05     -12.0506 
         -10      1.02349  -0.00019272  1.78597e-05     -12.0506 
         -10      1.05472 -0.000193062  1.83446e-05     -12.0506 
         -10      1.08645  -0.00019351   1.8816e-05     -12.0506 
         -10      1.11863 -0.000194056  1.92725e-05     -12.0506 
         -10       1.1513 -0.000194688  1.97147e-05     -12.0506 
         -10      1.18444 -0.000195394  2.01424e-05     -12.0506 
         -10      1.21802 -0.000196157  2.05555e-05     -12.0506 
         -10      1.25211 -0.000196965   2.0955e-05     -12.0506 
         -10      1.28663   -0.0001978  2.13402e-05     -12.0506 
         -10      1.32165 -0.000198648  2.17113e-05     -12.0506 
         -10      1.35712 -0.000199496  2.20661e-05     -12.0506 
         -10      1.39308 -0.000200338  2.24021e-05     -12.0506 
         -10      1.42951  -0.00020117  2.27137e-05     -12.0506 
         -10      1.46638    -0.000202  2.29921e-05     -12.0506 
         -10      1.50375 -0.000202845  2.32252e-05     -12.0506 
         -10      1.54156 -0.000203616  2.35091e-05     -12.0506 
         -10      1.57987 -0.000204501    2.375e-05     -12.0506 
         -10      1.61863 -0.000205488  2.39474e-05     -12.0506 
         -10      1.65788 -0.000206559  2.41085e-05     -12.0506 
         -10      1.69757 -0.000207693  2.42386e-05     -12.0506 
         -10      1.73776 -0.000208874  2.43429e-05     -12.0506 
         -10      1.77842 -0.000210085  2.44249e-05     -12.0506 
         -10      1.81952 -0.000211312  2.44872e-05     -12.0506 
         -10      1.86113 -0.000212543  2.45317e-05     -12.0506 
         -10      1.90316 -0.000213766  2.45592e-05     -12.0506 
         -10      1.94571 -0.000214973  2.45698e-05     -12.0506 
         -10      1.98869 -0.000216153   2.4563e-05     -12.0506 
         -10      2.03217 -0.000217301  2.45376e-05     -12.0506 
         -10      2.07612 -0.000218411   2.4492e-05     -12.0506 
         -10      2.12051 -0.000219475  2.44243e-05     -12.0505 
         -10       2.1654 -0.000220493  2.43326e-05     -12.0505 
         -10      2.21073 -0.000221458  2.42149e-05     -12.0505 
         -10      2.25656  -0.00022237  2.40691e-05     -12.0505 
         -10      2.30283 -0.000223224  2.38942e-05     -12.0505 
         -10       2.3496  -0.00022402  2.36888e-05     -12.0505 
         -10      2.39685 -0.000224754  2.34528e-05     -12.0505 
         -10      2.44452 -0.000225424   2.3187e-05     -12.0505 
         -10      2.49271 -0.000226027  2.28925e-05     -12.0505 
         -10      2.54132  -0.00022656  2.25726e-05     -12.0505 
         -10      2.59044 -0.000227018  2.22307e-05     -12.0505 
         -10         2.64 -0.000227398  2.18726e-05     -12.0505 
         -10      2.69006 -0.000227693  2.15045e-05     -12.0505 
         -10      2.74056 -0.000227899  2.11351e-05     -12.0505 
         -10      2.79156 -0.000228007  2.07732e-05     -12.0505 
         -10      2.84304 -0.000228012  2.04301e-05     -12.0505 
         -10      2.89494 -0.000227905  2.01179e-05     -12.0505 
         -10      2.94735 -0.000227679  1.98491e-05     -12.0505 
         -10       3.0002 -0.000227327  1.96376e-05     -12.0505 
         -10      3.05355 -0.000226843   1.9497e-05     -12.0505 
         -10      3.10733 -0.000226223  1.94408e-05     -12.0504 
         -10      3.16163 -0.000225463  1.94817e-05     -12.0504 
         -10      3.21639 -0.000224567  1.96307e-05     -12.0504 
         -10      3.27158 -0.000223542  1.98958e-05     -12.0504 
         -10      3.32729 -0.000222399  2.02821e-05     -12.0504 
         -10      3.38342  -0.00022116  2.07886e-05     -12.0504 
         -10      3.44007 -0.000219854  2.14093e-05     -12.0504 
         -10      3.49714 -0.000218525  2.21284e-05     -12.0504 
         -10      3.55472 -0.000217231   2.2922e-05     -12.0504 
         -10      3.61273 -0.000216048  2.37513e-05     -12.0504 
         -10      3.67125  -0.00021507  2.45656e-05     -12.0504 
         -10      3.73025 -0.000214421  2.52941e-05     -12.0504 
         -10      3.78967 -0.000214118  2.59453e-05     -12.0503 
         -10      3.84961  -0.00021373  2.66023e-05     -12.0503 
         -10      3.90996  -0.00021327  2.72371e-05     -12.0503 
         -10      3.97084  -0.00021279  2.78414e-05     -12.0503 
         -10      4.03214 -0.000212328  2.84101e-05     -12.0503 
         -10      4.09395  -0.00021191  2.89459e-05     -12.0503 
         -10      4.15624 -0.000211548  2.94548e-05     -12.0503 
         -10      4.21895 -0.000211248  2.99477e-05     -12.0503 
         -10      4.28217 -0.000210996  3.03434e-05     -12.0503 
         -10      4.34582 -0.000210804  3.06836e-05     -12.0502 
         -10      4.40998 -0.000210651  3.09961e-05     -12.0502 
         -10      4.47457 -0.000210519   3.1279e-05     -12.0502 
         -10      4.53968 -0.000210391  3.15286e-05     -12.0502 
         -10      4.60525 -0.000210258  3.17379e-05     -12.0502 
         -10      4.67125 -0.000210114  3.18991e-05     -12.0502 
         -10      4.73777 -0.000209957   3.2005e-05     -12.0502 
         -10       4.8047  -0.00020979  3.20496e-05     -12.0501 
         -10      4.87216 -0.000209619  3.20303e-05     -12.0501 
         -10      4.94003 -0.000209451  3.19498e-05     -12.0501 
         -10      5.00843 -0.000209292  3.18176e-05     -12.0501 
         -10      5.07724 -0.000209142   3.1653e-05     -12.0501 
         -10      5.14658 -0.000208998  3.14865e-05     -12.0501 
         -10      5.21639 -0.000208843  3.13636e-05       -12.05 
         -10      5.28661 -0.000208655  3.12603e-05       -12.05 
         -10      5.35736 -0.000208504  3.08214e-05       -12.05 
         -10      5.42852  -0.00020835  3.05075e-05       -12.05 
         -10      5.50021   -0.0002082  3.02616e-05       -12.05 
         -10      5.57231  -0.00020806   3.0044e-05     -12.0499 
         -10      5.64493 -0.000207928  2.98283e-05     -12.0499 
         -10      5.71803 -0.000207805  2.96008e-05     -12.0499 
         -10      5.79154 -0.000207685  2.93579e-05     -12.0499 
         -10      5.86558 -0.000207565  2.91032e-05     -12.0499 
         -10      5.94003 -0.000207438  2.88464e-05     -12.0498 
         -10      6.01501 -0.000207301  2.86001e-05     -12.0498 
         -10       6.0904 -0.000207148  2.83787e-05     -12.0498 
         -10      6.16632 -0.000206976  2.81948e-05     -12.0498 
         -10      6.24271 -0.000206785  2.80586e-05     -12.0497 
         -10       6.3195 -0.000206575  2.79751e-05     -12.0497 
         -10      6.39683 -0.000206349  2.79423e-05     -12.0497 
         -10      6.47457 -0.000206115  2.79498e-05     -12.0497 
         -10      6.55284 -0.000205881  2.79769e-05     -12.0496 
         -10      6.63152 -0.000205659  2.79918e-05     -12.0496 
         -10      6.71073 -0.000205463  2.79501e-05     -12.0496 
         -10      6.79034 -0.000205311  2.77946e-05     -12.0495 
         -10      6.87049 -0.000205222  2.74544e-05     -12.0495 
         -10      6.95111 -0.000205179  2.70062e-05     -12.0495 
         -10      7.03214 -0.000205225  2.68266e-05     -12.0494 
         -10       7.1137  -0.00020488  2.66563e-05     -12.0494 
         -10      7.19566 -0.000204432  2.63484e-05     -12.0494 
         -10      7.27816 -0.000204154  2.65372e-05     -12.0493 
         -10      7.36106 -0.000203928  2.66027e-05     -12.0493 
         -10      7.44451 -0.000203745  2.65284e-05     -12.0493 
         -10      7.52842 -0.000203594  2.63193e-05     -12.0492 
         -10      7.61273 -0.000203465  2.59957e-05     -12.0492 
         -10      7.69758  -0.00020335  2.55855e-05     -12.0491 
         -10      7.78283 -0.000203246  2.51205e-05     -12.0491 
         -10      7.86862 -0.000203148  2.46294e-05     -12.0491 
         -10      7.95481 -0.000203056  2.41367e-05      -12.049 
         -10      8.04155 -0.000202974  2.36575e-05      -12.049 
         -10      8.12868 -0.000202902  2.31992e-05     -12.0489 
         -10      8.21635 -0.000202845   2.2759e-05     -12.0489 
         -10      8.30449 -0.000202805  2.23284e-05     -12.0488 
         -10      8.39303 -0.000202781  2.18961e-05     -12.0488 
         -10      8.48211 -0.000202764  2.14529e-05     -12.0487 
         -10      8.57159 -0.000202739  2.10025e-05     -12.0487 
         -10      8.66161 -0.000202677  2.05697e-05     -12.0486 
         -10      8.75203 -0.000202531  2.02162e-05     -12.0486 
         -10      8.84299 -0.000202235  2.00549e-05     -12.0485 
         -10      8.93443 -0.000201929  1.99231e-05     -12.0485 
         -10      9.02626 -0.000201835  1.96364e-05     -12.0484 
         -10      9.11863 -0.000201731  1.94301e-05     -12.0484 
         -10      9.21139 -0.000201631  1.92265e-05     -12.0483 
         -10      9.30471 -0.000201542  1.90108e-05     -12.0483 
         -10      9.39841 -0.000201436  1.88118e-05     -12.0482 
         -10      9.49267 -0.000201196  1.86756e-05     -12.0481 
         -10      9.58739 -0.000201186  1.83227e-05     -12.0481 
         -10      9.68251 -0.000201286  1.79451e-05      -12.048 
         -10      9.77817 -0.000201294  1.76594e-05      -12.048 
         -10      9.87422 -0.000201243  1.74178e-05     -12.0479 
         -10      9.97083 -0.000201157  1.71794e-05     -12.0478 
         -10      10.0678 -0.000201049  1.69126e-05     -12.0478 
         -10      10.1654 -0.000200926  1.65939e-05     -12.0477 
         -10      10.2633 -0.000200793  1.62097e-05     -12.0476 
         -10      10.3618 -0.000200651  1.57552e-05     -12.0475 
         -10      10.4607   -0.0002005  1.52368e-05     -12.0475 
         -10      10.5601 -0.000200342  1.46716e-05     -12.0474 
         -10        10.66 -0.000200182  1.40869e-05     -12.0473 
         -10      10.7603 -0.000200029  1.35235e-05     -12.0472 
         -10      10.8611 -0.000199897  1.30328e-05     -12.0472 
         -10      10.9623 -0.000199808  1.26809e-05     -12.0471 
         -10      11.0641 -0.000199791  1.25462e-05      -12.047 
         -10      11.1663 -0.000199875   1.2687e-05     -12.0469 
         -10       11.269 -0.000199798  1.18722e-05     -12.0468 
         -10      11.3721 -0.000199765   1.1147e-05     -12.0467 
         -10      11.4757 -0.000199748  1.05216e-05     -12.0467 
         -10      11.5798 -0.000199723  1.00031e-05     -12.0466 
         -10      11.6844 -0.000199675  9.59502e-06     -12.0465 
         -10      11.7894 -0.000199598  9.29106e-06     -12.0464 
         -10       11.895 -0.000199494   9.0737e-06     -12.0463 
         -10      12.0009 -0.000199369  8.91023e-06     -12.0462 
         -10      12.1073 -0.000199241  8.74991e-06     -12.0461 
         -10      12.2142  -0.00019913  8.52264e-06      -12.046 
         -10      12.3216 -0.000199064  8.13596e-06     -12.0459 
         -10      12.4294 -0.000199077   7.4754e-06     -12.0458 
         -10      12.5378 -0.000198902  7.07055e-06     -12.0457 
         -10      12.6465 -0.000198532  7.03119e-06     -12.0456 
         -10      12.7558 -0.000198269  6.78755e-06     -12.0455 
         -10      12.8656   -0.0001981  6.41627e-06     -12.0454 
         -10      12.9757 -0.000198007  5.97886e-06     -12.0453 
         -10      13.0864 -0.000197971  5.52182e-06     -12.0451 
         -10      13.1975  -0.00019797  5.08057e-06      -12.045 
         -10      13.3092 -0.000197983  4.67773e-06     -12.0449 
         -10      13.4212 -0.000197993  4.32655e-06     -12.0448 
         -10      13.5338 -0.000197983  4.02868e-06     -12.0447 
         -10      13.6468 -0.000197945  3.77612e-06     -12.0445 
         -10      13.7603 -0.000197878  3.54955e-06     -12.0444 
         -10      13.8743 -0.000197792  3.31686e-06     -12.0443 
         -10      13.9886  -0.00019771  3.03269e-06     -12.0442 
         -10      14.1036 -0.000197673  2.63448e-06      -12.044 
         -10      14.2189 -0.000197739  2.04149e-06     -12.0439 
         -10      14.3348 -0.000197934  1.38887e-06     -12.0438 
         -10       14.451 -0.000197938  1.26647e-06     -12.0436 
         -10      14.5678 -0.000197841  1.01117e-06     -12.0435 
         -10      14.6851 -0.000197691  6.76445e-07     -12.0434 
         -10      14.8028 -0.000197525  3.02826e-07     -12.0432 
         -10       14.921 -0.000197367 -8.15114e-08     -12.0431 
         -10      15.0396 -0.000197232 -4.56875e-07     -12.0429 
         -10      15.1588 -0.000197129  -8.1276e-07     -12.0428 
         -10      15.2783 -0.000197057 -1.14388e-06     -12.0426 
         -10      15.3984 -0.000197013 -1.45091e-06     -12.0425 
         -10       15.519 -0.000196988 -1.73718e-06     -12.0423 
         -10        15.64 -0.000196972 -2.00825e-06     -12.0422 
         -10      15.7615 -0.000196954 -2.27131e-06      -12.042 
         -10      15.8834 -0.000196923  -2.5327e-06     -12.0418 
         -10      16.0058  -0.00019687 -2.79872e-06     -12.0417 
         -10      16.1286 -0.000196786 -3.07329e-06     -12.0415 
         -10       16.252 -0.000196667 -3.35918e-06     -12.0413 
         -10      16.3759 -0.000196511 -3.65627e-06     -12.0412 
         -10      16.5002 -0.000196321 -3.96207e-06      -12.041 
         -10       16.625 -0.000196103 -4.27279e-06     -12.0408 
         -10      16.7501 -0.000195867 -4.58211e-06     -12.0407 
         -10      16.8759 -0.000195629 -4.88391e-06     -12.0405 
         -10       17.002 -0.000195407 -5.17146e-06     -12.0403 
         -10      17.1287 -0.000195221 -5.44076e-06     -12.0401 
         -10      17.2557 -0.000195094 -5.69055e-06     -12.0399 
         -10      17.3834  -0.00019505 -5.92621e-06     -12.0397 
         -10      17.5115 -0.000195112 -6.16094e-06     -12.0395 
         -10      17.6399 -0.000195298 -6.41942e-06     -12.0394 
         -10       17.769 -0.000195624 -6.74193e-06     -12.0392 
         -10      17.8984 -0.000196097 -7.18677e-06      -12.039 
         -10      18.0284 -0.000196714   -7.837e-06     -12.0388 
         -10      18.1587 -0.000196055 -8.15557e-06     -12.0386 
         -10      18.2896 -0.000195467 -8.39319e-06     -12.0384 
         -10       18.421 -0.000195141 -8.56964e-06     -12.0381 
         -10      18.5528 -0.000194749 -8.75948e-06     -12.0379 
         -10      18.6851 -0.000194563 -9.05553e-06     -12.0377 
         -10      18.8178 -0.000194499 -9.37849e-06     -12.0375 
         -10      18.9511 -0.000194495 -9.68033e-06     -12.0373 
         -10      19.0847 -0.000194509 -9.93636e-06     -12.0371 
         -10      19.2189 -0.000194512 -1.01415e-05     -12.0369 
         -10      19.3535  -0.00019449 -1.03032e-05     -12.0366 
         -10      19.4886 -0.000194437 -1.04385e-05     -12.0364 
         -10      19.6242 -0.000194355  -1.0568e-05     -12.0362 
         -10      19.7602 -0.000194249  -1.0713e-05     -12.0359 
         -10      19.8968 -0.000194129 -1.08927e-05     -12.0357 
         -10      20.0337 -0.000194003 -1.11204e-05     -12.0355 
         -10      20.1712 -0.000193879 -1.14032e-05     -12.0352 
         -10      20.3091 -0.000193764 -1.17391e-05      -12.035 
         -10      20.4475 -0.000193661 -1.21188e-05     -12.0347 
         -10      20.5864  -0.00019357 -1.25246e-05     -12.0345 
         -10      20.7257 -0.000193487 -1.29324e-05     -12.0342 
         -10      20.8655 -0.000193406 -1.33152e-05      -12.034 
         -10      21.0058  -0.00019332 -1.36451e-05     -12.0337 
         -10      21.1465  -0.00019322 -1.38998e-05     -12.0335 
         -10      21.2877 -0.000193101 -1.40665e-05     -12.0332 
         -10      21.4294 -0.000192962 -1.41514e-05     -12.0329 
         -10      21.5716 -0.000192807 -1.41864e-05     -12.0327 
         -10      21.7142 -0.000192657 -1.42404e-05     -12.0324 
         -10      21.8573 -0.000192547 -1.44303e-05     -12.0321 
         -10      22.0008 -0.000192533  -1.4934e-05     -12.0319 
         -10      22.1449 -0.000192701 -1.60066e-05     -12.0316 
         -10      22.2893 -0.000192528 -1.56379e-05     -12.0313 
         -10      22.4344 -0.000192408 -1.55484e-05      -12.031 
         -10      22.5797 -0.000192337 -1.58125e-05     -12.0307 
         -10      22.7257 -0.000192259 -1.62397e-05     -12.0304 
         -10      22.8721  -0.00019214 -1.66929e-05     -12.0301 
         -10      23.0189 -0.000191971 -1.70842e-05     -12.0298 
         -10      23.1663  -0.00019176  -1.7372e-05     -12.0295 
         -10       23.314  -0.00019153 -1.75524e-05     -12.0292 
         -10      23.4623 -0.000191321 -1.76559e-05     -12.0289 
         -10       23.611 -0.000191183  -1.7738e-05     -12.0286 
         -10      23.7602 -0.000191182 -1.78731e-05     -12.0283 
         -10        23.91 -0.000191396 -1.81446e-05      -12.028 
         -10        24.06 -0.000191661 -1.85567e-05     -12.0277 
         -10      24.2107 -0.000191229 -1.87429e-05     -12.0274 
         -10      24.3617 -0.000190847 -1.88556e-05     -12.0271 
         -10      24.5133 -0.000190536 -1.89356e-05     -12.0267 
         -10      24.6653 -0.000190309 -1.90152e-05     -12.0264 
         -10      24.8178 -0.000190165 -1.91192e-05     -12.0261 
         -10      24.9708 -0.000190092 -1.92642e-05     -12.0257 
         -10      25.1242 -0.000190073 -1.94592e-05     -12.0254 
         -10      25.2781 -0.000190082  -1.9707e-05     -12.0251 
         -10      25.4324 -0.000190091 -2.00036e-05     -12.0247 
         -10      25.5873 -0.000190071 -2.03409e-05     -12.0244 
         -10      25.7426 -0.000189995 -2.07062e-05      -12.024 
         -10      25.8984 -0.000189845 -2.10857e-05     -12.0237 
         -10      26.0546  -0.00018961 -2.14643e-05     -12.0233 
         -10      26.2114 -0.000189297 -2.18299e-05      -12.023 
         -10      26.3686 -0.000188932 -2.21739e-05     -12.0226 
         -10      26.5262 -0.000188566 -2.24947e-05     -12.0222 
         -10      26.6844 -0.000188284 -2.28016e-05     -12.0219 
         -10      26.8429 -0.000188207 -2.31165e-05     -12.0215 
         -10       27.002 -0.000188498 -2.34758e-05     -12.0211 
         -10      27.1615  -0.00018845 -2.34303e-05     -12.0208 
         -10      27.3216 -0.000188431 -2.34652e-05     -12.0204 
         -10      27.4821 -0.000188417 -2.35819e-05       -12.02 
         -10       27.643 -0.000188393 -2.37738e-05     -12.0196 
         -10      27.8044 -0.000188347 -2.40292e-05     -12.0192 
         -10      27.9663 -0.000188274  -2.4331e-05     -12.0188 
         -10      28.1287 -0.000188172 -2.46603e-05     -12.0184 
         -10      28.2914 -0.000188045 -2.49962e-05     -12.0181 
         -10      28.4548 -0.000187897 -2.53191e-05     -12.0177 
         -10      28.6185 -0.000187736 -2.56106e-05     -12.0172 
         -10      28.7828 -0.000187568 -2.58577e-05     -12.0168 
         -10      28.9475 -0.000187402 -2.60522e-05     -12.0164 
         -10      29.1126 -0.000187242 -2.61943e-05      -12.016 
         -10      29.2784 -0.000187093 -2.62941e-05     -12.0156 
         -10      29.4444 -0.000186951 -2.63735e-05     -12.0152 
         -10       29.611 -0.000186811 -2.64686e-05     -12.0148 
         -10       29.778 -0.000186657 -2.66315e-05     -12.0143 
         -10      29.9456 -0.000186464 -2.69331e-05     -12.0139 
         -10      30.1137 -0.000186199  -2.7465e-05     -12.0135 
         -10      30.2821 -0.000185814 -2.83412e-05      -12.013 
         -10      30.4511 -0.000185945 -2.82668e-05     -12.0126 
         -10      30.6204 -0.000185932 -2.81723e-05     -12.0122 
         -10      30.7903 -0.000185813 -2.81157e-05     -12.0117 
         -10      30.9606 -0.000185633 -2.81196e-05     -12.0113 
         -10      31.1315 -0.000185425 -2.81968e-05     -12.0108 
         -10      31.3028 -0.000185216 -2.83511e-05     -12.0104 
         -10      31.4745 -0.000185021 -2.85779e-05     -12.0099 
         -10      31.6468 -0.000184847  -2.8865e-05     -12.0094 
         -10      31.8194 -0.000184695 -2.91925e-05      -12.009 
         -10      31.9926 -0.000184557 -2.95359e-05     -12.0085 
         -10      32.1662 -0.000184423 -2.98644e-05      -12.008 
         -10      32.3404 -0.000184276 -3.01452e-05     -12.0076 
         -10      32.5149 -0.000184103 -3.03426e-05     -12.0071 
         -10        32.69 -0.000183887 -3.04216e-05     -12.0066 
         -10      32.8655 -0.000183618 -3.03484e-05     -12.0061 
         -10      33.0414 -0.000183294 -3.00938e-05     -12.0057 
         -10       33.218 -0.000183118   -3.042e-05     -12.0052 
         -10      33.3948 -0.000183007 -3.09568e-05     -12.0047 
         -10      33.5723 -0.000182882 -3.13612e-05     -12.0042 
         -10        33.75 -0.000182754 -3.16517e-05     -12.0037 
         -10      33.9284 -0.000182625 -3.18483e-05     -12.0032 
         -10      34.1073 -0.000182499 -3.19713e-05     -12.0027 
         -10      34.2865 -0.000182375 -3.20407e-05     -12.0022 
         -10      34.4663 -0.000182252 -3.20767e-05     -12.0016 
         -10      34.6465 -0.000182126 -3.20984e-05     -12.0011 
         -10      34.8272 -0.000181995 -3.21235e-05     -12.0006 
         -10      35.0083 -0.000181853  -3.2168e-05     -12.0001 
         -10        35.19 -0.000181697 -3.22456e-05     -11.9996 
         -10      35.3721 -0.000181522 -3.23671e-05      -11.999 
         -10      35.5546 -0.000181326 -3.25394e-05     -11.9985 
         -10      35.7377 -0.000181104 -3.27661e-05      -11.998 
         -10      35.9211 -0.000180856 -3.30453e-05     -11.9974 
         -10      36.1052 -0.000180581 -3.33704e-05     -11.9969 
         -10      36.2895 -0.000180278 -3.37282e-05     -11.9964 
         -10      36.4745 -0.000179949 -3.40994e-05     -11.9958 
         -10      36.6598 -0.000179596 -3.44563e-05     -11.9953 
         -10      36.8457  -0.00017933 -3.46371e-05     -11.9947 
         -10      37.0321 -0.000179346 -3.44692e-05     -11.9942 
         -10      37.2188 -0.000179336 -3.43573e-05     -11.9936 
         -10      37.4062 -0.000179298  -3.4306e-05      -11.993 
         -10      37.5938 -0.000179228 -3.43155e-05     -11.9925 
         -10      37.7821 -0.000179128 -3.43817e-05     -11.9919 
         -10      37.9707    -0.000179 -3.44965e-05     -11.9913 
         -10      38.1599 -0.000178846  -3.4649e-05     -11.9907 
         -10      38.3496 -0.000178674 -3.48254e-05     -11.9902 
         -10      38.5396  -0.00017849 -3.50097e-05     -11.9896 
         -10      38.7302 -0.000178304 -3.51851e-05      -11.989 
         -10      38.9211 -0.000178126 -3.53338e-05     -11.9884 
         -10      39.1127 -0.000177969 -3.54387e-05     -11.9878 
         -10      39.3046 -0.000177846 -3.54836e-05     -11.9872 
         -10      39.4971 -0.000177772 -3.54543e-05     -11.9866 
         -10      39.6899 -0.000177763 -3.53399e-05      -11.986 
         -10      39.8833 -0.000177836 -3.51332e-05     -11.9854 
         -10      40.0772 -0.000177908   -3.494e-05     -11.9848 
         -10      40.2714 -0.000177316 -3.55323e-05     -11.9842 
         -10      40.4663 -0.000176826 -3.60708e-05     -11.9836 
         -10      40.6615 -0.000176426 -3.65482e-05      -11.983 
         -10      40.8573 -0.000176102  -3.6963e-05     -11.9824 
         -10      41.0534 -0.000175841 -3.73159e-05     -11.9817 
         -10      41.2501 -0.000175631  -3.7612e-05     -11.9811 
         -10      41.4473  -0.00017546 -3.78576e-05     -11.9805 
         -10      41.6448 -0.000175316  -3.8061e-05     -11.9798 
         -10      41.8429 -0.000175187 -3.82317e-05     -11.9792 
         -10      42.0414 -0.000175065 -3.83796e-05     -11.9786 
         -10      42.2405 -0.000174941 -3.85148e-05     -11.9779 
         -10      42.4399 -0.000174807 -3.86466e-05     -11.9773 
         -10      42.6399 -0.000174657 -3.87839e-05     -11.9766 
         -10      42.8404 -0.000174488 -3.89342e-05      -11.976 
         -10      43.0412 -0.000174296 -3.91032e-05     -11.9753 
         -10      43.2426  -0.00017408 -3.92956e-05     -11.9747 
         -10      43.4444  -0.00017384 -3.95132e-05      -11.974 
         -10      43.6467 -0.000173578 -3.97567e-05     -11.9734 
         -10      43.8494 -0.000173298 -4.00237e-05     -11.9727 
         -10      44.0527 -0.000173002 -4.03109e-05      -11.972 
         -10      44.2563 -0.000172697 -4.06116e-05     -11.9714 
         -10      44.4606  -0.00017239 -4.09187e-05     -11.9707 
         -10      44.6653 -0.000172086 -4.12224e-05       -11.97 
         -10      44.8704 -0.000171795  -4.1512e-05     -11.9693 
         -10       45.076 -0.000171524 -4.17763e-05     -11.9686 
         -10       45.282  -0.00017128 -4.20032e-05      -11.968 
         -10      45.4886 -0.000171069 -4.21815e-05     -11.9673 
         -10      45.6955 -0.000170898 -4.23005e-05     -11.9666 
         -10       45.903 -0.000170771 -4.23518e-05     -11.9659 
         -10      46.1111  -0.00017069 -4.23293e-05     -11.9652 
         -10      46.3194 -0.000170653 -4.22311e-05     -11.9645 
         -10      46.5283 -0.000170657   -4.206e-05     -11.9638 
         -10      46.7376 -0.000170692 -4.18253e-05     -11.9631 
         -10      46.9475 -0.000170746 -4.15436e-05     -11.9624 
         -10      47.1577 -0.000170798 -4.12411e-05     -11.9617 
         -10      47.3685 -0.000170724 -4.10785e-05      -11.961 
         -10      47.5798 -0.000169769 -4.19789e-05     -11.9602 
         -10      47.7914 -0.000168968  -4.2632e-05     -11.9595 
         -10      48.0037  -0.00016831 -4.30765e-05     -11.9588 