Variables = x, y, u, v, p

Zone, I=800, F=POINT
         300            0            0            0      1.65474 
         300     0.000234  -8.8345e-06 -2.82755e-12      1.65474 
         300     0.000939 -3.36304e-05 -4.02079e-11      1.65474 
         300     0.002113  -6.9325e-05  -2.0355e-10      1.65474 
         300     0.003759  -0.00010913  -6.6234e-10      1.65474 
         300     0.005872 -0.000145989 -1.68457e-09      1.65474 
         300     0.008457 -0.000174802 -3.67445e-09      1.65474 
         300      0.01151  -0.00019342 -7.20125e-09      1.65474 
         300     0.015036 -0.000203295 -1.30575e-08      1.65474 
         300     0.019031 -0.000208668 -2.22833e-08      1.65474 
         300     0.023493 -0.000214914 -3.62194e-08      1.65474 
         300     0.028429 -0.000226265 -5.65877e-08      1.65474 
         300     0.033831 -0.000243769  -8.5441e-08      1.65474 
         300     0.039706  -0.00026464 -1.25322e-07      1.65474 
         300     0.046047 -0.000283571 -1.79128e-07      1.65474 
         300     0.052863 -0.000296495 -2.50345e-07      1.65474 
         300      0.06015 -0.000305063 -3.42807e-07      1.65474 
         300       0.0679 -0.000318001 -4.60692e-07      1.65474 
         300     0.076126 -0.000340768 -6.08906e-07      1.65474 
         300     0.084816 -0.000347795 -7.92321e-07      1.65474 
         300     0.093982 -0.000362417 -1.01654e-06      1.65474 
         300     0.103611 -0.000374508 -1.28685e-06      1.65474 
         300     0.113718 -0.000384688 -1.60948e-06      1.65474 
         300     0.124286 -0.000393349 -1.98969e-06      1.65474 
         300     0.135333 -0.000400704 -2.43391e-06      1.65474 
         300      0.14685 -0.000406748 -2.94743e-06      1.65474 
         300     0.158827 -0.000411342 -3.53509e-06      1.65474 
         300     0.171284 -0.000414317 -4.20286e-06      1.65474 
         300     0.184201 -0.000415552 -4.95421e-06      1.65474 
         300     0.197599 -0.000415088 -5.79437e-06      1.65474 
         300     0.211455 -0.000413145  -6.7253e-06      1.65474 
         300     0.225792 -0.000409994  -7.7512e-06      1.65474 
         300       0.2406 -0.000405604 -8.87325e-06      1.65474 
         300     0.255865 -0.000399558 -1.00912e-05      1.65474 
         300     0.271613 -0.000392722 -1.14083e-05      1.65474 
         300     0.287818 -0.000384915 -1.28218e-05      1.65474 
         300     0.304506 -0.000376294 -1.43326e-05      1.65474 
         300      0.32165 -0.000367042  -1.5936e-05      1.65474 
         300     0.339278 -0.000357311 -1.76323e-05      1.65474 
         300     0.357377  -0.00034727 -1.94172e-05      1.65474 
         300      0.37593 -0.000337081 -2.12854e-05      1.65474 
         300     0.394968 -0.000326868 -2.32361e-05      1.65474 
         300     0.414461 -0.000316778 -2.52617e-05      1.65474 
         300      0.43444 -0.000306911 -2.73608e-05      1.65474 
         300     0.454872 -0.000297386 -2.95245e-05      1.65474 
         300     0.475791 -0.000288275 -3.17511e-05      1.65474 
         300     0.497163 -0.000279665  -3.4031e-05      1.65474 
         300     0.519021 -0.000271601 -3.63621e-05      1.65474 
         300      0.54135 -0.000264129 -3.87372e-05      1.65474 
         300     0.564131 -0.000257276  -4.1149e-05      1.65474 
         300       0.5874  -0.00025103  -4.3597e-05      1.65474 
         300     0.611121 -0.000245364 -4.60743e-05      1.65474 
         300      0.63533 -0.000240252 -4.85731e-05      1.65474 
         300      0.65999 -0.000235725 -5.10824e-05      1.65474 
         300     0.685139 -0.000231698 -5.36024e-05      1.65474 
         300     0.710759 -0.000228094 -5.61276e-05      1.65474 
         300     0.736828 -0.000224837 -5.86517e-05      1.65474 
         300     0.763387 -0.000221843 -6.11741e-05      1.65474 
         300     0.790396 -0.000219043 -6.36863e-05      1.65474 
         300     0.817896  -0.00021636 -6.61874e-05      1.65474 
         300     0.845843 -0.000213735 -6.86685e-05      1.65474 
         300     0.874283 -0.000211102  -7.1129e-05      1.65474 
         300      0.90317 -0.000208416 -7.35605e-05      1.65474 
         300     0.932551 -0.000205627  -7.5963e-05      1.65474 
         300     0.962401 -0.000202704 -7.83307e-05      1.65474 
         300     0.992697 -0.000199627  -8.0659e-05      1.65474 
         300      1.02349 -0.000196376 -8.29496e-05      1.65474 
         300      1.05472 -0.000192954 -8.51972e-05      1.65474 
         300      1.08645 -0.000189365 -8.74051e-05      1.65474 
         300      1.11863 -0.000185633   -8.957e-05      1.65474 
         300       1.1513 -0.000181782 -9.16964e-05      1.65474 
         300      1.18444  -0.00017785 -9.37842e-05      1.65474 
         300      1.21802 -0.000173887 -9.58339e-05      1.65474 
         300      1.25211 -0.000169935 -9.78508e-05      1.65474 
         300      1.28663 -0.000166051 -9.98329e-05      1.65474 
         300      1.32165 -0.000162277 -0.000101784      1.65474 
         300      1.35712 -0.000158663 -0.000103699      1.65474 
         300      1.39308 -0.000155233 -0.000105576      1.65474 
         300      1.42951 -0.000152003 -0.000107404      1.65474 
         300      1.46638 -0.000148961 -0.000109166      1.65474 
         300      1.50375 -0.000146054 -0.000110841      1.65474 
         300      1.54156 -0.000143311 -0.000112551      1.65474 
         300      1.57987 -0.000140667 -0.000114227      1.65474 
         300      1.61863 -0.000138117 -0.000115854      1.65474 
         300      1.65788  -0.00013565  -0.00011743      1.65474 
         300      1.69757 -0.000133263 -0.000118949      1.65474 
         300      1.73776 -0.000130947  -0.00012041      1.65474 
         300      1.77842 -0.000128698 -0.000121808      1.65474 
         300      1.81952  -0.00012651  -0.00012314      1.65474 
         300      1.86113 -0.000124374 -0.000124403      1.65474 
         300      1.90316 -0.000122288 -0.000125595      1.65474 
         300      1.94571 -0.000120242 -0.000126714      1.65474 
         300      1.98869 -0.000118233 -0.000127757      1.65475 
         300      2.03217 -0.000116255 -0.000128722      1.65475 
         300      2.07612 -0.000114304 -0.000129609      1.65475 
         300      2.12051 -0.000112378 -0.000130415      1.65475 
         300       2.1654  -0.00011047  -0.00013114      1.65475 
         300      2.21073 -0.000108581 -0.000131782      1.65475 
         300      2.25656 -0.000106708 -0.000132342      1.65475 
         300      2.30283 -0.000104852 -0.000132818      1.65475 
         300       2.3496 -0.000103011 -0.000133211      1.65475 
         300      2.39685 -0.000101189  -0.00013352      1.65475 
         300      2.44452 -9.93901e-05 -0.000133745      1.65475 
         300      2.49271 -9.76158e-05 -0.000133888      1.65475 
         300      2.54132 -9.58745e-05 -0.000133947      1.65475 
         300      2.59044 -9.41703e-05 -0.000133924      1.65475 
         300         2.64 -9.25144e-05  -0.00013382      1.65475 
         300      2.69006 -9.09137e-05 -0.000133635      1.65475 
         300      2.74056 -8.93818e-05 -0.000133372      1.65476 
         300      2.79156 -8.79283e-05 -0.000133029      1.65476 
         300      2.84304  -8.6568e-05 -0.000132611      1.65476 
         300      2.89494 -8.53162e-05 -0.000132117      1.65476 
         300      2.94735 -8.41862e-05 -0.000131551      1.65476 
         300       3.0002 -8.31957e-05 -0.000130915      1.65476 
         300      3.05355 -8.23597e-05 -0.000130211      1.65476 
         300      3.10733  -8.1696e-05 -0.000129443      1.65476 
         300      3.16163 -8.12199e-05 -0.000128614      1.65476 
         300      3.21639 -8.09477e-05  -0.00012773      1.65476 
         300      3.27158 -8.08941e-05 -0.000126795      1.65476 
         300      3.32729  -8.1072e-05 -0.000125817      1.65476 
         300      3.38342 -8.14918e-05 -0.000124803      1.65477 
         300      3.44007 -8.21621e-05 -0.000123761      1.65477 
         300      3.49714 -8.30855e-05 -0.000122703      1.65477 
         300      3.55472  -8.4263e-05 -0.000121641      1.65477 
         300      3.61273  -8.5686e-05 -0.000120591      1.65477 
         300      3.67125 -8.73435e-05 -0.000119569      1.65477 
         300      3.73025 -8.92129e-05 -0.000118597      1.65477 
         300      3.78967 -9.11846e-05 -0.000117378      1.65477 
         300      3.84961 -9.32941e-05 -0.000116133      1.65477 
         300      3.90996 -9.55254e-05 -0.000114977      1.65477 
         300      3.97084 -9.78265e-05 -0.000113852      1.65477 
         300      4.03214 -0.000100143 -0.000112717      1.65477 
         300      4.09395 -0.000102436  -0.00011154      1.65478 
         300      4.15624 -0.000104666 -0.000110301      1.65478 
         300      4.21895 -0.000106802  -0.00010899      1.65478 
         300      4.28217 -0.000108825 -0.000107603      1.65478 
         300      4.34582 -0.000110715 -0.000106147      1.65478 
         300      4.40998 -0.000112466 -0.000104629      1.65478 
         300      4.47457 -0.000114126 -0.000103224      1.65478 
         300      4.53968 -0.000115644 -0.000101791      1.65478 
         300      4.60525 -0.000117021 -0.000100308      1.65478 
         300      4.67125 -0.000118272 -9.87816e-05      1.65478 
         300      4.73777 -0.000119412 -9.72145e-05      1.65478 
         300       4.8047 -0.000120449 -9.56133e-05      1.65479 
         300      4.87216 -0.000121395 -9.39788e-05      1.65479 
         300      4.94003 -0.000122255 -9.23166e-05      1.65479 
         300      5.00843 -0.000123036 -9.06278e-05      1.65479 
         300      5.07724 -0.000123742   -8.892e-05      1.65479 
         300      5.14658 -0.000124376 -8.71987e-05      1.65479 
         300      5.21639 -0.000124945 -8.54777e-05      1.65479 
         300      5.28661 -0.000125454 -8.37776e-05      1.65479 
         300      5.35736 -0.000125919 -8.21242e-05      1.65479 
         300      5.42852  -0.00012636 -8.05607e-05      1.65479 
         300      5.50021 -0.000126751 -7.89723e-05      1.65479 
         300      5.57231 -0.000127112 -7.71879e-05      1.65479 
         300      5.64493 -0.000127552 -7.55053e-05      1.65479 
         300      5.71803 -0.000128019 -7.38837e-05       1.6548 
         300      5.79154 -0.000128478 -7.22963e-05       1.6548 
         300      5.86558  -0.00012891  -7.0726e-05       1.6548 
         300      5.94003 -0.000129308 -6.91729e-05       1.6548 
         300      6.01501 -0.000129678 -6.76401e-05       1.6548 
         300       6.0904 -0.000130034 -6.61393e-05       1.6548 
         300      6.16632 -0.000130397 -6.46734e-05       1.6548 
         300      6.24271 -0.000130782 -6.32365e-05       1.6548 
         300       6.3195   -0.0001312 -6.17988e-05       1.6548 
         300      6.39683  -0.00013164 -6.02898e-05       1.6548 
         300      6.47457  -0.00013205 -5.88337e-05       1.6548 
         300      6.55284 -0.000132392 -5.75134e-05       1.6548 
         300      6.63152 -0.000132706 -5.61596e-05       1.6548 
         300      6.71073 -0.000133018 -5.47953e-05      1.65481 
         300      6.79034 -0.000133343 -5.34411e-05      1.65481 
         300      6.87049 -0.000133688 -5.21074e-05      1.65481 
         300      6.95111 -0.000134057 -5.08028e-05      1.65481 
         300      7.03214 -0.000134445  -4.9532e-05      1.65481 
         300       7.1137 -0.000134848 -4.82932e-05      1.65481 
         300      7.19566 -0.000135258 -4.70865e-05      1.65481 
         300      7.27816 -0.000135666 -4.59065e-05      1.65481 
         300      7.36106 -0.000136064 -4.47508e-05      1.65481 
         300      7.44451 -0.000136446 -4.36129e-05      1.65481 
         300      7.52842 -0.000136806 -4.24897e-05      1.65481 
         300      7.61273 -0.000137141 -4.13789e-05      1.65481 
         300      7.69758 -0.000137453 -4.02767e-05      1.65481 
         300      7.78283 -0.000137745 -3.91841e-05      1.65482 
         300      7.86862 -0.000138021 -3.81004e-05      1.65482 
         300      7.95481 -0.000138291 -3.70294e-05      1.65482 
         300      8.04155 -0.000138564 -3.59728e-05      1.65482 
         300      8.12868 -0.000138849 -3.49362e-05      1.65482 
         300      8.21635 -0.000139153 -3.39213e-05      1.65482 
         300      8.30449  -0.00013948 -3.29317e-05      1.65482 
         300      8.39303 -0.000139827 -3.19678e-05      1.65482 
         300      8.48211 -0.000140179 -3.10239e-05      1.65482 
         300      8.57159 -0.000140501 -3.00962e-05      1.65482 
         300      8.66161 -0.000140585 -2.92395e-05      1.65482 
         300      8.75203 -0.000140733 -2.81745e-05      1.65482 
         300      8.84299 -0.000141198  -2.7454e-05      1.65482 
         300      8.93443   -0.0001416 -2.67118e-05      1.65482 
         300      9.02626 -0.000141912 -2.58973e-05      1.65483 
         300      9.11863 -0.000142165 -2.50538e-05      1.65483 
         300      9.21139 -0.000142383 -2.42147e-05      1.65483 
         300      9.30471 -0.000142586 -2.34005e-05      1.65483 
         300      9.39841 -0.000142787 -2.26252e-05      1.65483 
         300      9.49267 -0.000142994 -2.18928e-05      1.65483 
         300      9.58739 -0.000143215 -2.11997e-05      1.65483 
         300      9.68251 -0.000143445 -2.04594e-05      1.65483 
         300      9.77817 -0.000143683 -1.97553e-05      1.65483 
         300      9.87422 -0.000143924   -1.908e-05      1.65483 
         300      9.97083 -0.000144164 -1.84238e-05      1.65483 
         300      10.0678 -0.000144396 -1.77801e-05      1.65483 
         300      10.1654 -0.000144619 -1.71419e-05      1.65484 
         300      10.2633 -0.000144826 -1.65061e-05      1.65484 
         300      10.3618 -0.000145016 -1.58706e-05      1.65484 
         300      10.4607 -0.000145189 -1.52368e-05      1.65484 
         300      10.5601 -0.000145345 -1.46088e-05      1.65484 
         300        10.66 -0.000145486 -1.39907e-05      1.65484 
         300      10.7603 -0.000145618 -1.33896e-05      1.65484 
         300      10.8611 -0.000145744 -1.28106e-05      1.65484 
         300      10.9623 -0.000145873 -1.22585e-05      1.65484 
         300      11.0641  -0.00014601 -1.17326e-05      1.65484 
         300      11.1663 -0.000146161  -1.1227e-05      1.65484 
         300       11.269  -0.00014633 -1.07267e-05      1.65484 
         300      11.3721 -0.000146519 -1.02024e-05      1.65485 
         300      11.4757 -0.000146723 -9.60982e-06      1.65485 
         300      11.5798 -0.000146932 -8.88104e-06      1.65485 
         300      11.6844 -0.000147085 -8.64165e-06      1.65485 
         300      11.7894 -0.000147142 -8.35968e-06      1.65485 
         300       11.895  -0.00014715 -8.01939e-06      1.65485 
         300      12.0009 -0.000147146 -7.63919e-06      1.65485 
         300      12.1073 -0.000147188 -7.21547e-06      1.65485 
         300      12.2142  -0.00014731 -6.73474e-06      1.65485 
         300      12.3216 -0.000147421 -6.28222e-06      1.65485 
         300      12.4294  -0.00014752 -5.85509e-06      1.65485 
         300      12.5378 -0.000147609 -5.44951e-06      1.65486 
         300      12.6465 -0.000147691 -5.06333e-06      1.65486 
         300      12.7558 -0.000147765 -4.69348e-06      1.65486 
         300      12.8656 -0.000147834 -4.33815e-06      1.65486 
         300      12.9757 -0.000147899 -3.99578e-06      1.65486 
         300      13.0864 -0.000147961 -3.66431e-06      1.65486 
         300      13.1975 -0.000148021 -3.34301e-06      1.65486 
         300      13.3092 -0.000148081 -3.03035e-06      1.65486 
         300      13.4212 -0.000148141 -2.72607e-06      1.65486 
         300      13.5338 -0.000148201 -2.42908e-06      1.65487 
         300      13.6468 -0.000148261 -2.13922e-06      1.65487 
         300      13.7603 -0.000148322 -1.85647e-06      1.65487 
         300      13.8743 -0.000148382 -1.58024e-06      1.65487 
         300      13.9886 -0.000148441 -1.31092e-06      1.65487 
         300      14.1036 -0.000148499  -1.0481e-06      1.65487 
         300      14.2189 -0.000148553 -7.92275e-07      1.65487 
         300      14.3348 -0.000148602 -5.43087e-07      1.65487 
         300       14.451 -0.000148645 -3.00968e-07      1.65487 
         300      14.5678  -0.00014868 -6.55059e-08      1.65488 
         300      14.6851 -0.000148706  1.63229e-07      1.65488 
         300      14.8028 -0.000148722  3.85312e-07      1.65488 
         300       14.921 -0.000148728  6.01516e-07      1.65488 
         300      15.0396 -0.000148722  8.12113e-07      1.65488 
         300      15.1588 -0.000148707  1.01829e-06      1.65488 
         300      15.2783 -0.000148682  1.22085e-06      1.65488 
         300      15.3984 -0.000148653  1.42157e-06      1.65488 
         300       15.519 -0.000148622  1.62205e-06      1.65489 
         300        15.64 -0.000148596  1.82433e-06      1.65489 
         300      15.7615 -0.000148584  2.03132e-06      1.65489 
         300      15.8834 -0.000148597  2.24579e-06      1.65489 
         300      16.0058 -0.000148648  2.47163e-06      1.65489 
         300      16.1286 -0.000148756  2.71261e-06      1.65489 
         300       16.252 -0.000148838  2.89007e-06      1.65489 
         300      16.3759 -0.000148739  2.83127e-06       1.6549 
         300      16.5002 -0.000148722  2.85453e-06       1.6549 
         300       16.625 -0.000148747   3.1101e-06       1.6549 
         300      16.7501 -0.000148707   3.6424e-06       1.6549 
         300      16.8759 -0.000148367  3.39572e-06       1.6549 
         300       17.002 -0.000148272  3.28191e-06       1.6549 
         300      17.1287 -0.000148275  3.30061e-06       1.6549 
         300      17.2557 -0.000148293  3.48122e-06      1.65491 
         300      17.3834  -0.00014847  3.69145e-06      1.65491 
         300      17.5115 -0.000148586  3.87957e-06      1.65491 
         300      17.6399 -0.000148653  4.04819e-06      1.65491 
         300       17.769 -0.000148681  4.19987e-06      1.65491 
         300      17.8984 -0.000148678  4.33622e-06      1.65491 
         300      18.0284 -0.000148651  4.45903e-06      1.65491 
         300      18.1587 -0.000148608  4.56934e-06      1.65492 
         300      18.2896 -0.000148553  4.66836e-06      1.65492 
         300       18.421  -0.00014849  4.75682e-06      1.65492 
         300      18.5528 -0.000148423  4.83538e-06      1.65492 
         300      18.6851 -0.000148355  4.90475e-06      1.65492 
         300      18.8178 -0.000148287  4.96537e-06      1.65493 
         300      18.9511 -0.000148222  5.01786e-06      1.65493 
         300      19.0847  -0.00014816  5.06265e-06      1.65493 
         300      19.2189 -0.000148102  5.10041e-06      1.65493 
         300      19.3535 -0.000148049  5.13168e-06      1.65493 
         300      19.4886    -0.000148  5.15723e-06      1.65493 
         300      19.6242 -0.000147955  5.17782e-06      1.65494 
         300      19.7602 -0.000147914  5.19431e-06      1.65494 
         300      19.8968 -0.000147878   5.2077e-06      1.65494 
         300      20.0337 -0.000147846    5.219e-06      1.65494 
         300      20.1712 -0.000147817  5.22933e-06      1.65494 
         300      20.3091 -0.000147792  5.23979e-06      1.65495 
         300      20.4475  -0.00014777  5.25151e-06      1.65495 
         300      20.5864 -0.000147753  5.26555e-06      1.65495 
         300      20.7257 -0.000147739  5.28285e-06      1.65495 
         300      20.8655 -0.000147729   5.3042e-06      1.65495 
         300      21.0058 -0.000147724  5.33009e-06      1.65496 
         300      21.1465 -0.000147722  5.36073e-06      1.65496 
         300      21.2877 -0.000147726  5.39577e-06      1.65496 
         300      21.4294 -0.000147734  5.43441e-06      1.65496 
         300      21.5716 -0.000147746  5.47506e-06      1.65496 
         300      21.7142 -0.000147761  5.51527e-06      1.65497 
         300      21.8573 -0.000147779  5.55167e-06      1.65497 
         300      22.0008 -0.000147797  5.57957e-06      1.65497 
         300      22.1449 -0.000147813  5.59299e-06      1.65497 
         300      22.2893 -0.000147823  5.58427e-06      1.65498 
         300      22.4344 -0.000147822  5.54392e-06      1.65498 
         300      22.5797 -0.000147803  5.46041e-06      1.65498 
         300      22.7257 -0.000147663  5.60181e-06      1.65498 
         300      22.8721 -0.000147463  5.59577e-06      1.65498 
         300      23.0189 -0.000147325  5.32612e-06      1.65499 
         300      23.1663 -0.000147277    5.132e-06      1.65499 
         300       23.314 -0.000147204  5.34966e-06      1.65499 
         300      23.4623 -0.000147154  5.54248e-06      1.65499 
         300       23.611 -0.000147104  5.72279e-06        1.655 
         300      23.7602 -0.000147051  5.87649e-06        1.655 
         300        23.91 -0.000147092  5.84968e-06        1.655 
         300        24.06  -0.00014713  5.84012e-06        1.655 
         300      24.2107  -0.00014716  5.84258e-06      1.65501 
         300      24.3617 -0.000147183  5.85295e-06      1.65501 
         300      24.5133 -0.000147197  5.86801e-06      1.65501 
         300      24.6653 -0.000147201  5.88534e-06      1.65501 
         300      24.8178 -0.000147196  5.90325e-06      1.65502 
         300      24.9708 -0.000147182  5.92061e-06      1.65502 
         300      25.1242 -0.000147159  5.93676e-06      1.65502 
         300      25.2781 -0.000147128  5.95146e-06      1.65503 
         300      25.4324 -0.000147091  5.96472e-06      1.65503 
         300      25.5873 -0.000147048  5.97676e-06      1.65503 
         300      25.7426    -0.000147  5.98792e-06      1.65503 
         300      25.8984  -0.00014695  5.99859e-06      1.65504 
         300      26.0546 -0.000146897  6.00912e-06      1.65504 
         300      26.2114 -0.000146844  6.01979e-06      1.65504 
         300      26.3686 -0.000146791  6.03074e-06      1.65505 
         300      26.5262 -0.000146739  6.04195e-06      1.65505 
         300      26.6844  -0.00014669  6.05323e-06      1.65505 
         300      26.8429 -0.000146643  6.06412e-06      1.65505 
         300       27.002 -0.000146599  6.07402e-06      1.65506 
         300      27.1615 -0.000146559  6.08207e-06      1.65506 
         300      27.3216 -0.000146522  6.08726e-06      1.65506 
         300      27.4821 -0.000146489  6.08842e-06      1.65507 
         300       27.643  -0.00014646  6.08431e-06      1.65507 
         300      27.8044 -0.000146433  6.07365e-06      1.65507 
         300      27.9663  -0.00014641  6.05527e-06      1.65508 
         300      28.1287 -0.000146388  6.02811e-06      1.65508 
         300      28.2914 -0.000146368  5.99149e-06      1.65508 
         300      28.4548 -0.000146349  5.94509e-06      1.65509 
         300      28.6185  -0.00014633  5.88932e-06      1.65509 
         300      28.7828 -0.000146313  5.82523e-06      1.65509 
         300      28.9475 -0.000146297  5.75502e-06       1.6551 
         300      29.1126 -0.000146282  5.68217e-06       1.6551 
         300      29.2784  -0.00014627  5.61148e-06       1.6551 
         300      29.4444 -0.000146262  5.54981e-06      1.65511 
         300       29.611 -0.000146262  5.50589e-06      1.65511 
         300       29.778 -0.000146273  5.49112e-06      1.65511 
         300      29.9456 -0.000146299  5.51965e-06      1.65512 
         300      30.1137 -0.000146347  5.60895e-06      1.65512 
         300      30.2821 -0.000146425  5.77998e-06      1.65513 
         300      30.4511 -0.000146361    5.643e-06      1.65513 
         300      30.6204 -0.000146253  5.39287e-06      1.65513 
         300      30.7903  -0.00014618  5.21206e-06      1.65514 
         300      30.9606 -0.000146134  5.08817e-06      1.65514 
         300      31.1315 -0.000146106  5.00954e-06      1.65514 
         300      31.3028 -0.000146092  4.96602e-06      1.65515 
         300      31.4745 -0.000146086  4.94858e-06      1.65515 
         300      31.6468 -0.000146085  4.94936e-06      1.65516 
         300      31.8194 -0.000146084  4.96167e-06      1.65516 
         300      31.9926 -0.000146083  4.97994e-06      1.65516 
         300      32.1662 -0.000146079  4.99964e-06      1.65517 
         300      32.3404 -0.000146073  5.01727e-06      1.65517 
         300      32.5149 -0.000146064  5.03019e-06      1.65518 
         300        32.69 -0.000146055  5.03664e-06      1.65518 
         300      32.8655 -0.000146046  5.03557e-06      1.65518 
         300      33.0414  -0.00014604  5.02656e-06      1.65519 
         300       33.218 -0.000146038  5.00966e-06      1.65519 
         300      33.3948 -0.000146045  4.98534e-06       1.6552 
         300      33.5723 -0.000146062  4.95418e-06       1.6552 
         300        33.75 -0.000146091  4.91689e-06      1.65521 
         300      33.9284 -0.000146136  4.87393e-06      1.65521 
         300      34.1073 -0.000146199   4.8255e-06      1.65521 
         300      34.2865 -0.000146279  4.77124e-06      1.65522 
         300      34.4663 -0.000146377  4.70986e-06      1.65522 
         300      34.6465 -0.000146493  4.63922e-06      1.65523 
         300      34.8272 -0.000146523  4.59093e-06      1.65523 
         300      35.0083   -0.0001463  4.61745e-06      1.65524 
         300        35.19 -0.000146134  4.61225e-06      1.65524 
         300      35.3721 -0.000146021  4.58103e-06      1.65525 
         300      35.5546 -0.000145953  4.52956e-06      1.65525 
         300      35.7377 -0.000145922  4.46332e-06      1.65526 
         300      35.9211 -0.000145921  4.38761e-06      1.65526 
         300      36.1052 -0.000145942  4.30703e-06      1.65526 
         300      36.2895 -0.000145976  4.22577e-06      1.65527 
         300      36.4745 -0.000146017  4.14696e-06      1.65527 
         300      36.6598 -0.000146056   4.0731e-06      1.65528 
         300      36.8457 -0.000146088  4.00542e-06      1.65528 
         300      37.0321 -0.000146107  3.94423e-06      1.65529 
         300      37.2188 -0.000146109  3.88868e-06      1.65529 
         300      37.4062 -0.000146095  3.83654e-06       1.6553 
         300      37.5938 -0.000146066  3.78452e-06      1.65531 
         300      37.7821 -0.000146028  3.72789e-06      1.65531 
         300      37.9707 -0.000145991  3.66087e-06      1.65532 
         300      38.1599  -0.00014597  3.57624e-06      1.65532 
         300      38.3496 -0.000145985  3.46578e-06      1.65533 
         300      38.5396 -0.000146064   3.3203e-06      1.65533 
         300      38.7302 -0.000146026  3.33257e-06      1.65534 
         300      38.9211 -0.000145992  3.35815e-06      1.65534 
         300      39.1127 -0.000145971  3.38298e-06      1.65535 
         300      39.3046  -0.00014596  3.40498e-06      1.65535 
         300      39.4971 -0.000145957  3.42258e-06      1.65536 
         300      39.6899 -0.000145959  3.43461e-06      1.65536 
         300      39.8833 -0.000145965  3.44037e-06      1.65537 
         300      40.0772 -0.000145974  3.43945e-06      1.65538 
         300      40.2714 -0.000145982   3.4318e-06      1.65538 
         300      40.4663  -0.00014599   3.4176e-06      1.65539 
         300      40.6615 -0.000145996  3.39732e-06      1.65539 
         300      40.8573 -0.000145998  3.37157e-06       1.6554 
         300      41.0534 -0.000145997  3.34119e-06       1.6554 
         300      41.2501 -0.000145991  3.30702e-06      1.65541 
         300      41.4473 -0.000145981  3.27009e-06      1.65542 
         300      41.6448 -0.000145966  3.23148e-06      1.65542 
         300      41.8429 -0.000145947  3.19217e-06      1.65543 
         300      42.0414 -0.000145924  3.15328e-06      1.65544 
         300      42.2405 -0.000145898  3.11571e-06      1.65544 
         300      42.4399  -0.00014587  3.08045e-06      1.65545 
         300      42.6399  -0.00014584  3.04824e-06      1.65545 
         300      42.8404  -0.00014581  3.01979e-06      1.65546 
         300      43.0412 -0.000145781  2.99564e-06      1.65547 
         300      43.2426 -0.000145754   2.9761e-06      1.65547 
         300      43.4444 -0.000145731  2.96136e-06      1.65548 
         300      43.6467 -0.000145712  2.95135e-06      1.65549 
         300      43.8494 -0.000145699  2.94581e-06      1.65549 
         300      44.0527 -0.000145693  2.94424e-06       1.6555 
         300      44.2563 -0.000145694  2.94589e-06      1.65551 
         300      44.4606 -0.000145703   2.9498e-06      1.65551 
         300      44.6653  -0.00014572  2.95472e-06      1.65552 
         300      44.8704 -0.000145744  2.95918e-06      1.65553 
         300       45.076 -0.000145775   2.9615e-06      1.65553 
         300       45.282  -0.00014581  2.95972e-06      1.65554 
         300      45.4886 -0.000145847   2.9517e-06      1.65555 
         300      45.6955 -0.000145882  2.93512e-06      1.65555 
         300       45.903 -0.000145912  2.90743e-06      1.65556 
         300      46.1111 -0.000145929  2.86597e-06      1.65557 
         300      46.3194 -0.000145928  2.80801e-06      1.65558 
         300      46.5283   -0.0001459   2.7306e-06      1.65558 
         300      46.7376 -0.000145834  2.63095e-06      1.65559 
         300      46.9475 -0.000145718    2.506e-06       1.6556 
         300      47.1577 -0.000145539  2.35312e-06       1.6556 
         300      47.3685  -0.00014528  2.16931e-06      1.65561 
         300      47.5798 -0.000145208  2.26571e-06      1.65562 
         300      47.7914 -0.000145361   2.5283e-06      1.65563 
         300      48.0037 -0.000145675  2.85047e-06      1.65564 