Variables = x, y, u, v, p

Zone, I=800, F=POINT
         -70            0           -0           -0     -70.9886 
         -70     0.000234 -9.59178e-06 -3.98438e-09     -70.9886 
         -70     0.000939 -3.61224e-05 -1.53566e-08     -70.9886 
         -70     0.002113 -7.30649e-05 -3.23564e-08     -70.9886 
         -70     0.003759 -0.000111751 -5.26621e-08     -70.9886 
         -70     0.005872 -0.000143489 -7.38643e-08     -70.9886 
         -70     0.008457   -0.0001624 -9.43355e-08     -70.9886 
         -70      0.01151 -0.000166823 -1.13525e-07     -70.9886 
         -70     0.015036 -0.000159886 -1.32288e-07     -70.9886 
         -70     0.019031 -0.000148269 -1.52571e-07     -70.9886 
         -70     0.023493 -0.000139628 -1.76922e-07     -70.9886 
         -70     0.028429 -0.000139336 -2.07805e-07     -70.9886 
         -70     0.033831 -0.000147858  -2.4685e-07     -70.9886 
         -70     0.039706 -0.000160119 -2.94873e-07     -70.9886 
         -70     0.046047 -0.000168073 -3.52207e-07     -70.9886 
         -70     0.052863 -0.000166539 -4.20182e-07     -70.9886 
         -70      0.06015  -0.00015977 -5.02154e-07     -70.9886 
         -70       0.0679  -0.00016218 -6.03229e-07     -70.9886 
         -70     0.076126 -0.000179711 -7.25372e-07     -70.9886 
         -70     0.084816 -0.000166771 -8.56035e-07     -70.9886 
         -70     0.093982 -0.000175012 -1.02312e-06     -70.9886 
         -70     0.103611 -0.000178467 -1.22204e-06     -70.9886 
         -70     0.113718 -0.000179475  -1.4498e-06     -70.9885 
         -70     0.124286 -0.000179695   -1.707e-06     -70.9885 
         -70     0.135333 -0.000180046 -1.99854e-06     -70.9885 
         -70      0.14685 -0.000180759 -2.33035e-06     -70.9885 
         -70     0.158827 -0.000181561 -2.70738e-06     -70.9885 
         -70     0.171284 -0.000181974 -3.13175e-06     -70.9885 
         -70     0.184201 -0.000181659 -3.59812e-06     -70.9885 
         -70     0.197599 -0.000180697 -4.09561e-06     -70.9885 
         -70     0.211455 -0.000179666 -4.60754e-06     -70.9884 
         -70     0.225792 -0.000179228 -5.12349e-06     -70.9884 
         -70       0.2406 -0.000178936 -5.65459e-06     -70.9884 
         -70     0.255865 -0.000177085 -6.17393e-06     -70.9884 
         -70     0.271613 -0.000176255  -6.6037e-06     -70.9883 
         -70     0.287818 -0.000175269 -6.99214e-06     -70.9883 
         -70     0.304506 -0.000174248 -7.28753e-06     -70.9883 
         -70      0.32165 -0.000173284 -7.46952e-06     -70.9882 
         -70     0.339278 -0.000172427 -7.54969e-06     -70.9882 
         -70     0.357377 -0.000171701  -7.5668e-06     -70.9882 
         -70      0.37593 -0.000171098 -7.58169e-06     -70.9881 
         -70     0.394968  -0.00017059 -7.66913e-06     -70.9881 
         -70     0.414461 -0.000170133  -7.9078e-06      -70.988 
         -70      0.43444 -0.000169683 -8.36985e-06     -70.9879 
         -70     0.454872 -0.000169201 -9.10724e-06     -70.9879 
         -70     0.475791 -0.000168662 -1.01434e-05     -70.9878 
         -70     0.497163 -0.000168066 -1.14584e-05     -70.9877 
         -70     0.519021 -0.000167434  -1.2989e-05     -70.9877 
         -70      0.54135 -0.000166808 -1.46215e-05     -70.9876 
         -70     0.564131 -0.000166235 -1.62015e-05     -70.9875 
         -70       0.5874  -0.00016573 -1.75574e-05     -70.9874 
         -70     0.611121 -0.000165237 -1.85061e-05     -70.9873 
         -70      0.63533 -0.000164883 -1.90551e-05     -70.9872 
         -70      0.65999 -0.000164755 -1.96348e-05     -70.9871 
         -70     0.685139 -0.000164735 -2.02353e-05      -70.987 
         -70     0.710759 -0.000164721 -2.08487e-05     -70.9869 
         -70     0.736828 -0.000164629 -2.14705e-05     -70.9868 
         -70     0.763387 -0.000164389 -2.21007e-05     -70.9866 
         -70     0.790396 -0.000163954 -2.27397e-05     -70.9865 
         -70     0.817896 -0.000163291 -2.33922e-05     -70.9863 
         -70     0.845843 -0.000162385 -2.40622e-05     -70.9862 
         -70     0.874283 -0.000161236 -2.47565e-05      -70.986 
         -70      0.90317 -0.000159859 -2.54799e-05     -70.9858 
         -70     0.932551 -0.000158279 -2.62384e-05     -70.9857 
         -70     0.962401 -0.000156532 -2.70346e-05     -70.9855 
         -70     0.992697 -0.000154662 -2.78684e-05     -70.9853 
         -70      1.02349 -0.000152711 -2.87385e-05     -70.9851 
         -70      1.05472  -0.00015073 -2.96371e-05     -70.9848 
         -70      1.08645 -0.000148758 -3.05545e-05     -70.9846 
         -70      1.11863 -0.000146838 -3.14741e-05     -70.9844 
         -70       1.1513 -0.000144995 -3.23775e-05     -70.9841 
         -70      1.18444 -0.000143254  -3.3241e-05     -70.9839 
         -70      1.21802 -0.000141624 -3.40383e-05     -70.9836 
         -70      1.25211 -0.000140102 -3.47452e-05     -70.9833 
         -70      1.28663  -0.00013868 -3.53375e-05      -70.983 
         -70      1.32165 -0.000137343 -3.58001e-05     -70.9827 
         -70      1.35712 -0.000136078 -3.61279e-05     -70.9824 
         -70      1.39308 -0.000134881  -3.6336e-05     -70.9821 
         -70      1.42951 -0.000133773 -3.64656e-05     -70.9817 
         -70      1.46638 -0.000132818  -3.6596e-05     -70.9814 
         -70      1.50375 -0.000132137 -3.68569e-05      -70.981 
         -70      1.54156 -0.000131196 -3.73457e-05     -70.9806 
         -70      1.57987 -0.000129514 -3.77776e-05     -70.9802 
         -70      1.61863 -0.000127276 -3.81525e-05     -70.9798 
         -70      1.65788 -0.000124639 -3.84803e-05     -70.9794 
         -70      1.69757 -0.000121755 -3.87694e-05     -70.9789 
         -70      1.73776  -0.00011875 -3.90283e-05     -70.9785 
         -70      1.77842 -0.000115744 -3.92643e-05      -70.978 
         -70      1.81952 -0.000112839 -3.94839e-05     -70.9775 
         -70      1.86113 -0.000110116 -3.96933e-05      -70.977 
         -70      1.90316 -0.000107648 -3.98973e-05     -70.9765 
         -70      1.94571 -0.000105485 -4.01005e-05     -70.9759 
         -70      1.98869 -0.000103668 -4.03059e-05     -70.9753 
         -70      2.03217 -0.000102219 -4.05164e-05     -70.9748 
         -70      2.07612  -0.00010115 -4.07337e-05     -70.9742 
         -70      2.12051 -0.000100458 -4.09584e-05     -70.9735 
         -70       2.1654 -0.000100127  -4.1191e-05     -70.9729 
         -70      2.21073 -0.000100134 -4.14305e-05     -70.9722 
         -70      2.25656 -0.000100445  -4.1676e-05     -70.9716 
         -70      2.30283 -0.000101017 -4.19252e-05     -70.9709 
         -70       2.3496 -0.000101806 -4.21758e-05     -70.9701 
         -70      2.39685 -0.000102759 -4.24246e-05     -70.9694 
         -70      2.44452 -0.000103823 -4.26679e-05     -70.9686 
         -70      2.49271 -0.000104945 -4.29024e-05     -70.9678 
         -70      2.54132 -0.000106073 -4.31238e-05      -70.967 
         -70      2.59044 -0.000107159 -4.33282e-05     -70.9662 
         -70         2.64  -0.00010816 -4.35115e-05     -70.9653 
         -70      2.69006 -0.000109041   -4.367e-05     -70.9644 
         -70      2.74056 -0.000109774    -4.38e-05     -70.9635 
         -70      2.79156 -0.000110343 -4.38987e-05     -70.9626 
         -70      2.84304 -0.000110743 -4.39636e-05     -70.9616 
         -70      2.89494 -0.000110978 -4.39932e-05     -70.9606 
         -70      2.94735 -0.000111068 -4.39867e-05     -70.9596 
         -70       3.0002 -0.000111043 -4.39449e-05     -70.9586 
         -70      3.05355 -0.000110945 -4.38693e-05     -70.9575 
         -70      3.10733 -0.000110825 -4.37636e-05     -70.9564 
         -70      3.16163 -0.000110743 -4.36323e-05     -70.9553 
         -70      3.21639 -0.000110762 -4.34824e-05     -70.9541 
         -70      3.27158 -0.000110946 -4.33227e-05      -70.953 
         -70      3.32729 -0.000111354 -4.31636e-05     -70.9518 
         -70      3.38342 -0.000112032 -4.30185e-05     -70.9505 
         -70      3.44007 -0.000113008 -4.29023e-05     -70.9492 
         -70      3.49714 -0.000114277 -4.28329e-05     -70.9479 
         -70      3.55472 -0.000115798 -4.28304e-05     -70.9466 
         -70      3.61273  -0.00011747 -4.29175e-05     -70.9452 
         -70      3.67125 -0.000119124 -4.31194e-05     -70.9438 
         -70      3.73025 -0.000120502 -4.34638e-05     -70.9424 
         -70      3.78967 -0.000119602 -4.42134e-05     -70.9409 
         -70      3.84961  -0.00011873 -4.46838e-05     -70.9394 
         -70      3.90996 -0.000118795 -4.47631e-05     -70.9379 
         -70      3.97084 -0.000119546 -4.45608e-05     -70.9363 
         -70      4.03214 -0.000120767 -4.41607e-05     -70.9347 
         -70      4.09395  -0.00012227 -4.36246e-05     -70.9331 
         -70      4.15624 -0.000123019 -4.52032e-05     -70.9314 
         -70      4.21895  -0.00012312 -4.78559e-05     -70.9297 
         -70      4.28217 -0.000123168 -4.99852e-05     -70.9279 
         -70      4.34582 -0.000123172 -5.16209e-05     -70.9261 
         -70      4.40998 -0.000123138 -5.28195e-05     -70.9243 
         -70      4.47457 -0.000123064 -5.36468e-05     -70.9224 
         -70      4.53968 -0.000122949 -5.41795e-05     -70.9205 
         -70      4.60525 -0.000122791 -5.44939e-05     -70.9185 
         -70      4.67125  -0.00012259 -5.46628e-05     -70.9166 
         -70      4.73777 -0.000122352 -5.47506e-05     -70.9145 
         -70       4.8047 -0.000122087 -5.48082e-05     -70.9125 
         -70      4.87216  -0.00012181 -5.48707e-05     -70.9103 
         -70      4.94003 -0.000121545  -5.4955e-05     -70.9082 
         -70      5.00843 -0.000121318 -5.50599e-05      -70.906 
         -70      5.07724  -0.00012116 -5.51662e-05     -70.9037 
         -70      5.14658 -0.000121104 -5.52404e-05     -70.9014 
         -70      5.21639 -0.000121179 -5.52387e-05     -70.8991 
         -70      5.28661 -0.000121409 -5.51151e-05     -70.8967 
         -70      5.35736 -0.000121802 -5.48302e-05     -70.8943 
         -70      5.42852 -0.000122349  -5.4365e-05     -70.8918 
         -70      5.50021 -0.000123008 -5.37347e-05     -70.8893 
         -70      5.57231 -0.000123698 -5.30111e-05     -70.8867 
         -70      5.64493 -0.000124285 -5.23419e-05     -70.8841 
         -70      5.71803 -0.000124565 -5.19822e-05     -70.8814 
         -70      5.79154 -0.000124249 -5.23234e-05     -70.8787 
         -70      5.86558  -0.00012484 -5.22255e-05      -70.876 
         -70      5.94003 -0.000126298 -5.11049e-05     -70.8732 
         -70      6.01501 -0.000126743  -5.0633e-05     -70.8703 
         -70       6.0904 -0.000126592  -5.0658e-05     -70.8674 
         -70      6.16632  -0.00012616 -5.10281e-05     -70.8644 
         -70      6.24271  -0.00012567 -5.15993e-05     -70.8614 
         -70       6.3195 -0.000125265 -5.22408e-05     -70.8583 
         -70      6.39683 -0.000125021 -5.28426e-05     -70.8552 
         -70      6.47457 -0.000124959 -5.33173e-05      -70.852 
         -70      6.55284  -0.00012506 -5.36069e-05     -70.8488 
         -70      6.63152 -0.000125275  -5.3683e-05     -70.8455 
         -70      6.71073 -0.000125541 -5.35502e-05     -70.8422 
         -70      6.79034 -0.000125793 -5.32458e-05     -70.8388 
         -70      6.87049 -0.000125974 -5.28377e-05     -70.8354 
         -70      6.95111 -0.000126051 -5.24228e-05     -70.8319 
         -70      7.03214  -0.00012602 -5.21214e-05     -70.8283 
         -70       7.1137 -0.000125924  -5.2069e-05     -70.8247 
         -70      7.19566 -0.000125856 -5.24086e-05      -70.821 
         -70      7.27816 -0.000125973  -5.3278e-05     -70.8173 
         -70      7.36106 -0.000126495 -5.47931e-05     -70.8135 
         -70      7.44451 -0.000127721 -5.70351e-05     -70.8096 
         -70      7.52842 -0.000130022 -6.00226e-05     -70.8057 
         -70      7.61273 -0.000128018 -5.94922e-05     -70.8017 
         -70      7.69758 -0.000126264 -5.83042e-05     -70.7977 
         -70      7.78283 -0.000125375 -5.66932e-05     -70.7936 
         -70      7.86862  -0.00012559 -5.46106e-05     -70.7895 
         -70      7.95481 -0.000126506 -5.44023e-05     -70.7852 
         -70      8.04155 -0.000126341 -5.77525e-05      -70.781 
         -70      8.12868 -0.000126141 -5.98836e-05     -70.7766 
         -70      8.21635 -0.000126162 -6.09559e-05     -70.7722 
         -70      8.30449 -0.000126582 -6.11696e-05     -70.7678 
         -70      8.39303 -0.000127508 -6.07606e-05     -70.7632 
         -70      8.48211 -0.000128896 -6.00451e-05     -70.7586 
         -70      8.57159 -0.000129015 -6.04707e-05      -70.754 
         -70      8.66161 -0.000128937 -6.11866e-05     -70.7492 
         -70      8.75203 -0.000128614 -6.19897e-05     -70.7445 
         -70      8.84299 -0.000128062 -6.27125e-05     -70.7396 
         -70      8.93443 -0.000127342 -6.32343e-05     -70.7347 
         -70      9.02626 -0.000126539 -6.34932e-05     -70.7297 
         -70      9.11863 -0.000125739 -6.34902e-05     -70.7246 
         -70      9.21139 -0.000125021  -6.3286e-05     -70.7195 
         -70      9.30471 -0.000124443 -6.29917e-05     -70.7143 
         -70      9.39841 -0.000124036 -6.27525e-05     -70.7091 
         -70      9.49267 -0.000123805 -6.27205e-05     -70.7037 
         -70      9.58739 -0.000123731 -6.30209e-05     -70.6983 
         -70      9.68251 -0.000123782 -6.37045e-05     -70.6929 
         -70      9.77817 -0.000123931 -6.46938e-05     -70.6873 
         -70      9.87422 -0.000124178 -6.57102e-05     -70.6817 
         -70      9.97083 -0.000124586 -6.61971e-05     -70.6761 
         -70      10.0678 -0.000125317 -6.52196e-05     -70.6703 
         -70      10.1654 -0.000125441 -6.32622e-05     -70.6645 
         -70      10.2633 -0.000123965 -6.38815e-05     -70.6586 
         -70      10.3618  -0.00012309 -6.45623e-05     -70.6527 
         -70      10.4607 -0.000122647 -6.51022e-05     -70.6466 
         -70      10.5601 -0.000122505  -6.5372e-05     -70.6405 
         -70        10.66 -0.000122563 -6.53174e-05     -70.6344 
         -70      10.7603  -0.00012275 -6.49574e-05     -70.6281 
         -70      10.8611 -0.000123014 -6.43841e-05     -70.6218 
         -70      10.9623 -0.000123323 -6.37628e-05     -70.6154 
         -70      11.0641 -0.000123651 -6.33273e-05     -70.6089 
         -70      11.1663 -0.000123523 -6.33491e-05     -70.6024 
         -70       11.269 -0.000123072 -6.35611e-05     -70.5958 
         -70      11.3721 -0.000122829 -6.37935e-05     -70.5891 
         -70      11.4757 -0.000122706 -6.40125e-05     -70.5823 
         -70      11.5798 -0.000122623 -6.42051e-05     -70.5755 
         -70      11.6844 -0.000122508 -6.43712e-05     -70.5686 
         -70      11.7894 -0.000122304 -6.45188e-05     -70.5616 
         -70       11.895 -0.000121971 -6.46584e-05     -70.5546 
         -70      12.0009  -0.00012149 -6.47993e-05     -70.5474 
         -70      12.1073 -0.000120861 -6.49471e-05     -70.5402 
         -70      12.2142 -0.000120107 -6.51009e-05     -70.5329 
         -70      12.3216 -0.000119269 -6.52541e-05     -70.5256 
         -70      12.4294 -0.000118402 -6.53943e-05     -70.5181 
         -70      12.5378 -0.000117572 -6.55067e-05     -70.5106 
         -70      12.6465  -0.00011685 -6.55778e-05      -70.503 
         -70      12.7558 -0.000116297 -6.56015e-05     -70.4954 
         -70      12.8656  -0.00011596 -6.55876e-05     -70.4876 
         -70      12.9757 -0.000115853 -6.55716e-05     -70.4798 
         -70      13.0864 -0.000115944 -6.56274e-05     -70.4719 
         -70      13.1975 -0.000116131 -6.58822e-05      -70.464 
         -70      13.3092 -0.000116229 -6.65349e-05     -70.4559 
         -70      13.4212 -0.000116249 -6.73872e-05     -70.4478 
         -70      13.5338 -0.000116179 -6.78582e-05     -70.4396 
         -70      13.6468 -0.000115892 -6.81454e-05     -70.4314 
         -70      13.7603 -0.000115455 -6.82918e-05      -70.423 
         -70      13.8743 -0.000114927  -6.8334e-05     -70.4146 
         -70      13.9886 -0.000114357 -6.83023e-05     -70.4061 
         -70      14.1036 -0.000113783 -6.82215e-05     -70.3975 
         -70      14.2189 -0.000113237 -6.81117e-05     -70.3889 
         -70      14.3348  -0.00011274 -6.79885e-05     -70.3801 
         -70       14.451 -0.000112309 -6.78641e-05     -70.3713 
         -70      14.5678  -0.00011195 -6.77473e-05     -70.3624 
         -70      14.6851 -0.000111665 -6.76445e-05     -70.3535 
         -70      14.8028  -0.00011145 -6.75598e-05     -70.3444 
         -70       14.921 -0.000111296 -6.74955e-05     -70.3353 
         -70      15.0396  -0.00011119 -6.74527e-05     -70.3261 
         -70      15.1588 -0.000111114 -6.74315e-05     -70.3169 
         -70      15.2783 -0.000111052 -6.74312e-05     -70.3075 
         -70      15.3984 -0.000110982 -6.74505e-05     -70.2981 
         -70       15.519 -0.000110885  -6.7488e-05     -70.2886 
         -70        15.64 -0.000110742 -6.75417e-05      -70.279 
         -70      15.7615 -0.000110535 -6.76096e-05     -70.2694 
         -70      15.8834 -0.000110252 -6.76891e-05     -70.2597 
         -70      16.0058 -0.000109884 -6.77773e-05     -70.2499 
         -70      16.1286  -0.00010943   -6.787e-05       -70.24 
         -70       16.252 -0.000108894 -6.79621e-05     -70.2301 
         -70      16.3759 -0.000108293 -6.80465e-05       -70.22 
         -70      16.5002 -0.000107653 -6.81135e-05     -70.2099 
         -70       16.625 -0.000107014 -6.81505e-05     -70.1998 
         -70      16.7501  -0.00010643 -6.81405e-05     -70.1895 
         -70      16.8759 -0.000105973  -6.8061e-05     -70.1792 
         -70       17.002 -0.000105734 -6.78834e-05     -70.1688 
         -70      17.1287 -0.000105825 -6.75705e-05     -70.1583 
         -70      17.2557 -0.000105587 -6.70796e-05     -70.1478 
         -70      17.3834 -0.000104654 -6.66484e-05     -70.1372 
         -70      17.5115 -0.000103448 -6.61548e-05     -70.1265 
         -70      17.6399  -0.00010247 -6.54898e-05     -70.1157 
         -70       17.769 -0.000102168 -6.64233e-05     -70.1049 
         -70      17.8984 -0.000101852 -6.75007e-05      -70.094 
         -70      18.0284 -0.000101403 -6.85537e-05      -70.083 
         -70      18.1587 -0.000100726  -6.9583e-05      -70.072 
         -70      18.2896 -9.97119e-05  -7.0598e-05     -70.0608 
         -70       18.421  -9.8611e-05 -7.12628e-05     -70.0496 
         -70      18.5528 -9.84483e-05 -7.09419e-05     -70.0384 
         -70      18.6851 -9.83489e-05 -7.06854e-05      -70.027 
         -70      18.8178  -9.8276e-05 -7.04929e-05     -70.0156 
         -70      18.9511 -9.82002e-05 -7.03602e-05     -70.0042 
         -70      19.0847 -9.80992e-05  -7.0281e-05     -69.9926 
         -70      19.2189 -9.79568e-05 -7.02471e-05      -69.981 
         -70      19.3535 -9.77624e-05 -7.02496e-05     -69.9693 
         -70      19.4886   -9.751e-05 -7.02791e-05     -69.9575 
         -70      19.6242 -9.71979e-05 -7.03264e-05     -69.9457 
         -70      19.7602 -9.68283e-05  -7.0383e-05     -69.9338 
         -70      19.8968 -9.64054e-05 -7.04418e-05     -69.9219 
         -70      20.0337 -9.59368e-05 -7.04971e-05     -69.9098 
         -70      20.1712 -9.54305e-05 -7.05451e-05     -69.8978 
         -70      20.3091 -9.48971e-05 -7.05836e-05     -69.8856 
         -70      20.4475 -9.43462e-05 -7.06129e-05     -69.8734 
         -70      20.5864 -9.37888e-05 -7.06349e-05     -69.8611 
         -70      20.7257 -9.32358e-05 -7.06532e-05     -69.8487 
         -70      20.8655 -9.26959e-05 -7.06732e-05     -69.8363 
         -70      21.0058 -9.21785e-05 -7.07009e-05     -69.8238 
         -70      21.1465 -9.16901e-05  -7.0743e-05     -69.8112 
         -70      21.2877 -9.12372e-05 -7.08056e-05     -69.7986 
         -70      21.4294 -9.08231e-05 -7.08938e-05      -69.786 
         -70      21.5716 -9.04506e-05   -7.101e-05     -69.7732 
         -70      21.7142 -9.01202e-05 -7.11532e-05     -69.7604 
         -70      21.8573 -8.98301e-05 -7.13171e-05     -69.7475 
         -70      22.0008 -8.95779e-05 -7.14886e-05     -69.7346 
         -70      22.1449 -8.93589e-05  -7.1646e-05     -69.7216 
         -70      22.2893 -8.91682e-05 -7.17565e-05     -69.7086 
         -70      22.4344 -8.89995e-05 -7.17741e-05     -69.6954 
         -70      22.5797  -8.8847e-05 -7.16371e-05     -69.6823 
         -70      22.7257 -8.87053e-05 -7.12644e-05      -69.669 
         -70      22.8721   -8.829e-05 -7.11199e-05     -69.6557 
         -70      23.0189 -8.77115e-05 -7.13397e-05     -69.6424 
         -70      23.1663   -8.728e-05  -7.1397e-05      -69.629 
         -70       23.314 -8.69491e-05 -7.13391e-05     -69.6155 
         -70      23.4623 -8.66791e-05 -7.12082e-05      -69.602 
         -70       23.611 -8.64389e-05 -7.10415e-05     -69.5884 
         -70      23.7602 -8.62027e-05 -7.08704e-05     -69.5748 
         -70        23.91 -8.59517e-05 -7.07215e-05     -69.5611 
         -70        24.06 -8.56717e-05 -7.06162e-05     -69.5474 
         -70      24.2107 -8.53526e-05 -7.05705e-05     -69.5336 
         -70      24.3617 -8.49885e-05 -7.05955e-05     -69.5197 
         -70      24.5133 -8.45757e-05 -7.06977e-05     -69.5058 
         -70      24.6653 -8.41134e-05 -7.08787e-05     -69.4918 
         -70      24.8178  -8.3601e-05 -7.11358e-05     -69.4778 
         -70      24.9708 -8.30397e-05 -7.14622e-05     -69.4638 
         -70      25.1242 -8.24305e-05 -7.18465e-05     -69.4496 
         -70      25.2781 -8.17722e-05  -7.2275e-05     -69.4355 
         -70      25.4324 -8.10643e-05 -7.27294e-05     -69.4213 
         -70      25.5873 -8.03017e-05 -7.31902e-05      -69.407 
         -70      25.7426 -7.94787e-05 -7.36339e-05     -69.3927 
         -70      25.8984 -7.85838e-05 -7.40368e-05     -69.3783 
         -70      26.0546 -7.76039e-05 -7.43726e-05     -69.3639 
         -70      26.2114 -7.65181e-05 -7.46157e-05     -69.3494 
         -70      26.3686 -7.74345e-05 -7.34161e-05     -69.3349 
         -70      26.5262 -7.81084e-05 -7.23576e-05     -69.3204 
         -70      26.6844 -7.83238e-05 -7.16063e-05     -69.3058 
         -70      26.8429 -7.81884e-05 -7.11105e-05     -69.2911 
         -70       27.002 -7.77984e-05 -7.08187e-05     -69.2764 
         -70      27.1615 -7.72385e-05 -7.06832e-05     -69.2617 
         -70      27.3216 -7.65802e-05 -7.06586e-05     -69.2469 
         -70      27.4821 -7.58838e-05 -7.07036e-05     -69.2321 
         -70       27.643 -7.51982e-05 -7.07806e-05     -69.2172 
         -70      27.8044 -7.45584e-05  -7.0857e-05     -69.2023 
         -70      27.9663 -7.39903e-05 -7.09052e-05     -69.1873 
         -70      28.1287 -7.35063e-05 -7.09033e-05     -69.1723 
         -70      28.2914 -7.31098e-05 -7.08358e-05     -69.1573 
         -70      28.4548 -7.27922e-05 -7.06933e-05     -69.1422 
         -70      28.6185 -7.25364e-05 -7.04744e-05     -69.1271 
         -70      28.7828  -7.2315e-05 -7.01842e-05      -69.112 
         -70      28.9475 -7.20932e-05 -6.98369e-05     -69.0968 
         -70      29.1126 -7.18283e-05  -6.9455e-05     -69.0815 
         -70      29.2784 -7.14707e-05  -6.9069e-05     -69.0663 
         -70      29.4444 -7.09662e-05 -6.87201e-05      -69.051 
         -70       29.611 -7.02553e-05  -6.8458e-05     -69.0356 
         -70       29.778 -6.92422e-05 -6.80308e-05     -69.0203 
         -70      29.9456  -6.8066e-05 -6.68727e-05     -69.0049 
         -70      30.1137 -6.70926e-05 -6.62569e-05     -68.9894 
         -70      30.2821 -6.63543e-05  -6.6025e-05     -68.9739 
         -70      30.4511 -6.58546e-05 -6.60516e-05     -68.9584 
         -70      30.6204 -6.55775e-05 -6.62407e-05     -68.9429 
         -70      30.7903 -6.54896e-05 -6.65211e-05     -68.9273 
         -70      30.9606 -6.55472e-05  -6.6841e-05     -68.9117 
         -70      31.1315 -6.57001e-05 -6.71661e-05      -68.896 
         -70      31.3028 -6.58958e-05 -6.74745e-05     -68.8804 
         -70      31.4745 -6.60835e-05 -6.77536e-05     -68.8647 
         -70      31.6468 -6.62175e-05 -6.79985e-05     -68.8489 
         -70      31.8194 -6.62594e-05 -6.82076e-05     -68.8332 
         -70      31.9926 -6.61809e-05 -6.83821e-05     -68.8174 
         -70      32.1662 -6.59649e-05  -6.8523e-05     -68.8016 
         -70      32.3404 -6.56064e-05 -6.86309e-05     -68.7857 
         -70      32.5149 -6.51137e-05 -6.87043e-05     -68.7699 
         -70        32.69 -6.45057e-05 -6.87402e-05     -68.7539 
         -70      32.8655 -6.38135e-05 -6.87335e-05      -68.738 
         -70      33.0414 -6.30772e-05 -6.86785e-05     -68.7221 
         -70       33.218 -6.23409e-05   -6.857e-05     -68.7061 
         -70      33.3948 -6.16532e-05 -6.84056e-05     -68.6901 
         -70      33.5723 -6.10578e-05 -6.81879e-05     -68.6741 
         -70        33.75 -6.05925e-05  -6.7929e-05      -68.658 
         -70      33.9284 -6.02781e-05 -6.76531e-05      -68.642 
         -70      34.1073 -6.01139e-05 -6.74029e-05     -68.6259 
         -70      34.2865 -6.00671e-05 -6.72451e-05     -68.6098 
         -70      34.4663 -6.00629e-05 -6.72758e-05     -68.5936 
         -70      34.6465 -5.99738e-05 -6.76294e-05     -68.5775 
         -70      34.8272 -5.96061e-05 -6.84869e-05     -68.5613 
         -70      35.0083  -5.9469e-05 -6.79648e-05     -68.5451 
         -70        35.19 -6.07339e-05 -6.84942e-05     -68.5289 
         -70      35.3721 -5.84229e-05 -6.63315e-05     -68.5127 
         -70      35.5546 -5.70623e-05 -6.50974e-05     -68.4964 
         -70      35.7377 -5.63525e-05 -6.45387e-05     -68.4802 
         -70      35.9211 -5.60583e-05 -6.44487e-05     -68.4639 
         -70      36.1052 -5.59966e-05 -6.46587e-05     -68.4476 
         -70      36.2895 -5.60318e-05  -6.5035e-05     -68.4313 
         -70      36.4745 -5.60688e-05 -6.54761e-05      -68.415 
         -70      36.6598 -5.60464e-05 -6.59065e-05     -68.3986 
         -70      36.8457 -5.59319e-05 -6.62757e-05     -68.3823 
         -70      37.0321 -5.57149e-05 -6.65521e-05     -68.3659 
         -70      37.2188 -5.54027e-05 -6.67212e-05     -68.3495 
         -70      37.4062 -5.50143e-05  -6.6782e-05     -68.3331 
         -70      37.5938 -5.45776e-05 -6.67437e-05     -68.3167 
         -70      37.7821  -5.4123e-05 -6.66227e-05     -68.3003 
         -70      37.9707 -5.36824e-05 -6.64403e-05     -68.2839 
         -70      38.1599 -5.32838e-05 -6.62199e-05     -68.2674 
         -70      38.3496 -5.29504e-05 -6.59851e-05     -68.2509 
         -70      38.5396 -5.26981e-05 -6.57579e-05     -68.2345 
         -70      38.7302  -5.2533e-05 -6.55558e-05      -68.218 
         -70      38.9211 -5.24525e-05 -6.53922e-05     -68.2015 
         -70      39.1127 -5.24435e-05 -6.52739e-05      -68.185 
         -70      39.3046 -5.24841e-05 -6.52011e-05     -68.1686 
         -70      39.4971 -5.25442e-05 -6.51665e-05      -68.152 
         -70      39.6899 -5.25877e-05 -6.51555e-05     -68.1355 
         -70      39.8833 -5.25756e-05 -6.51465e-05      -68.119 
         -70      40.0772 -5.24694e-05 -6.51113e-05     -68.1025 
         -70      40.2714 -5.22361e-05 -6.50169e-05      -68.086 
         -70      40.4663 -5.18528e-05 -6.48261e-05     -68.0694 
         -70      40.6615 -5.13147e-05 -6.45006e-05     -68.0529 
         -70      40.8573 -5.06401e-05  -6.4002e-05     -68.0363 
         -70      41.0534 -4.98827e-05  -6.3297e-05     -68.0198 
         -70      41.2501 -4.91365e-05  -6.2358e-05     -68.0032 
         -70      41.4473 -4.85509e-05 -6.11701e-05     -67.9867 
         -70      41.6448 -4.83403e-05 -5.97353e-05     -67.9701 
         -70      41.8429 -4.77681e-05 -5.97838e-05     -67.9536 
         -70      42.0414  -4.7191e-05 -6.01963e-05      -67.937 
         -70      42.2405 -4.75517e-05 -6.10311e-05     -67.9205 
         -70      42.4399 -4.77148e-05 -6.15877e-05     -67.9039 
         -70      42.6399 -4.77284e-05 -6.18939e-05     -67.8873 
         -70      42.8404 -4.76309e-05 -6.19795e-05     -67.8708 
         -70      43.0412 -4.74533e-05 -6.18774e-05     -67.8542 
         -70      43.2426 -4.72188e-05 -6.16212e-05     -67.8377 
         -70      43.4444 -4.69454e-05 -6.12458e-05     -67.8211 
         -70      43.6467 -4.66449e-05 -6.07849e-05     -67.8045 
         -70      43.8494 -4.63257e-05  -6.0272e-05      -67.788 
         -70      44.0527  -4.5992e-05 -5.97375e-05     -67.7714 
         -70      44.2563  -4.5646e-05 -5.92109e-05     -67.7549 
         -70      44.4606 -4.52871e-05 -5.87171e-05     -67.7383 
         -70      44.6653 -4.49141e-05 -5.82786e-05     -67.7218 
         -70      44.8704 -4.45255e-05 -5.79136e-05     -67.7053 
         -70       45.076 -4.41184e-05 -5.76354e-05     -67.6887 
         -70       45.282 -4.36919e-05 -5.74532e-05     -67.6722 
         -70      45.4886 -4.32446e-05 -5.73712e-05     -67.6557 
         -70      45.6955 -4.27778e-05 -5.73886e-05     -67.6392 
         -70       45.903 -4.22928e-05 -5.74998e-05     -67.6227 
         -70      46.1111  -4.1794e-05 -5.76942e-05     -67.6062 
         -70      46.3194 -4.13106e-05 -5.79537e-05     -67.5897 
         -70      46.5283 -4.09464e-05 -5.82245e-05     -67.5732 
         -70      46.7376 -4.06001e-05  -5.8482e-05     -67.5567 
         -70      46.9475  -4.0275e-05 -5.87049e-05     -67.5402 
         -70      47.1577  -3.9976e-05  -5.8871e-05     -67.5238 
         -70      47.3685 -3.97082e-05 -5.89587e-05     -67.5073 
         -70      47.5798 -3.94778e-05 -5.89472e-05     -67.4909 
         -70      47.7914 -3.92913e-05 -5.88185e-05     -67.4745 
         -70      48.0037 -3.91546e-05 -5.85569e-05      -67.458 