Variables = x, y, u, v, p

Zone, I=800, F=POINT
         -25            0  7.63479e-20 -6.35778e-25     -9.92294 
         -25     0.000234  3.78759e-06  -2.7813e-11     -9.92294 
         -25     0.000939  1.43307e-05 -6.02385e-11     -9.92294 
         -25     0.002113  2.92218e-05   4.8366e-11     -9.92294 
         -25     0.003759  4.52319e-05  5.14795e-10     -9.92294 
         -25     0.005872  5.90382e-05  1.59135e-09     -9.92294 
         -25     0.008457  6.82652e-05  3.53874e-09     -9.92294 
         -25      0.01151  7.19962e-05  6.59233e-09     -9.92294 
         -25     0.015036  7.10541e-05  1.09673e-08     -9.92294 
         -25     0.019031  6.76353e-05  1.68527e-08     -9.92294 
         -25     0.023493  6.44821e-05  2.44508e-08     -9.92294 
         -25     0.028429  6.37633e-05  3.40328e-08     -9.92294 
         -25     0.033831  6.61044e-05  4.59287e-08     -9.92294 
         -25     0.039706  7.02115e-05  6.05953e-08     -9.92294 
         -25     0.046047   7.3523e-05  7.85249e-08     -9.92294 
         -25     0.052863  7.39903e-05  1.00255e-07     -9.92294 
         -25      0.06015  7.22948e-05  1.26214e-07     -9.92294 
         -25       0.0679  7.25991e-05  1.56722e-07     -9.92294 
         -25     0.076126   7.7764e-05  1.92329e-07     -9.92294 
         -25     0.084816  7.60977e-05  2.34094e-07     -9.92294 
         -25     0.093982  7.77282e-05  2.81722e-07     -9.92294 
         -25     0.103611  7.86936e-05  3.36081e-07     -9.92294 
         -25     0.113718  7.92772e-05  3.97694e-07     -9.92294 
         -25     0.124286  7.96817e-05  4.66892e-07     -9.92294 
         -25     0.135333  8.00242e-05   5.4422e-07     -9.92294 
         -25      0.14685  8.03383e-05  6.30032e-07     -9.92294 
         -25     0.158827  8.05962e-05  7.24618e-07     -9.92294 
         -25     0.171284  8.07435e-05  8.28461e-07     -9.92294 
         -25     0.184201  8.07382e-05  9.41652e-07     -9.92294 
         -25     0.197599  8.05869e-05  1.06456e-06     -9.92294 
         -25     0.211455  8.03551e-05  1.19708e-06     -9.92294 
         -25     0.225792  8.01259e-05  1.33951e-06     -9.92294 
         -25       0.2406  7.98672e-05  1.49182e-06     -9.92294 
         -25     0.255865  7.93906e-05  1.65441e-06     -9.92294 
         -25     0.271613  7.89634e-05  1.82666e-06     -9.92294 
         -25     0.287818  7.84848e-05  2.00729e-06     -9.92293 
         -25     0.304506  7.79698e-05  2.19665e-06     -9.92293 
         -25      0.32165   7.7434e-05  2.39431e-06     -9.92293 
         -25     0.339278  7.68901e-05  2.60041e-06     -9.92293 
         -25     0.357377   7.6351e-05  2.81449e-06     -9.92293 
         -25      0.37593  7.58282e-05  3.03607e-06     -9.92293 
         -25     0.394968  7.53307e-05  3.26528e-06     -9.92293 
         -25     0.414461   7.4868e-05  3.50161e-06     -9.92293 
         -25      0.43444  7.44468e-05  3.74549e-06     -9.92293 
         -25     0.454872  7.40746e-05  3.99681e-06     -9.92293 
         -25     0.475791  7.37568e-05  4.25653e-06     -9.92293 
         -25     0.497163  7.34992e-05  4.52505e-06     -9.92292 
         -25     0.519021  7.33059e-05  4.80378e-06     -9.92292 
         -25      0.54135  7.31804e-05  5.09363e-06     -9.92292 
         -25     0.564131  7.31241e-05  5.39528e-06     -9.92292 
         -25       0.5874  7.31349e-05  5.70964e-06     -9.92292 
         -25     0.611121   7.3205e-05  6.03389e-06     -9.92292 
         -25      0.63533   7.3333e-05  6.34996e-06     -9.92291 
         -25      0.65999   7.3524e-05  6.67338e-06     -9.92291 
         -25     0.685139  7.37673e-05  7.00423e-06     -9.92291 
         -25     0.710759  7.40522e-05  7.34164e-06     -9.92291 
         -25     0.736828   7.4368e-05  7.68452e-06     -9.92291 
         -25     0.763387  7.47053e-05  8.03242e-06      -9.9229 
         -25     0.790396  7.50544e-05  8.38371e-06      -9.9229 
         -25     0.817896   7.5407e-05  8.73765e-06      -9.9229 
         -25     0.845843  7.57549e-05  9.09234e-06     -9.92289 
         -25     0.874283  7.60918e-05  9.44693e-06     -9.92289 
         -25      0.90317  7.64112e-05  9.79941e-06     -9.92289 
         -25     0.932551   7.6709e-05  1.01489e-05     -9.92289 
         -25     0.962401  7.69812e-05  1.04938e-05     -9.92288 
         -25     0.992697  7.72251e-05  1.08324e-05     -9.92288 
         -25      1.02349  7.74396e-05  1.11643e-05     -9.92287 
         -25      1.05472  7.76242e-05  1.14878e-05     -9.92287 
         -25      1.08645  7.77796e-05  1.18028e-05     -9.92287 
         -25      1.11863   7.7907e-05  1.21082e-05     -9.92286 
         -25       1.1513  7.80086e-05  1.24043e-05     -9.92286 
         -25      1.18444  7.80868e-05  1.26906e-05     -9.92285 
         -25      1.21802  7.81438e-05  1.29671e-05     -9.92285 
         -25      1.25211   7.8182e-05  1.32348e-05     -9.92284 
         -25      1.28663  7.82024e-05  1.34935e-05     -9.92284 
         -25      1.32165  7.82052e-05  1.37441e-05     -9.92283 
         -25      1.35712  7.81882e-05  1.39865e-05     -9.92282 
         -25      1.39308  7.81468e-05   1.4221e-05     -9.92282 
         -25      1.42951  7.80726e-05  1.44465e-05     -9.92281 
         -25      1.46638  7.79533e-05  1.46614e-05     -9.92281 
         -25      1.50375  7.77704e-05  1.48628e-05      -9.9228 
         -25      1.54156  7.76652e-05  1.50633e-05     -9.92279 
         -25      1.57987   7.7606e-05  1.52307e-05     -9.92278 
         -25      1.61863  7.75684e-05  1.53661e-05     -9.92278 
         -25      1.65788  7.75366e-05  1.54731e-05     -9.92277 
         -25      1.69757  7.74966e-05  1.55542e-05     -9.92276 
         -25      1.73776  7.74357e-05   1.5612e-05     -9.92275 
         -25      1.77842  7.73432e-05  1.56485e-05     -9.92274 
         -25      1.81952  7.72101e-05  1.56654e-05     -9.92273 
         -25      1.86113   7.7029e-05  1.56643e-05     -9.92272 
         -25      1.90316  7.67947e-05  1.56461e-05     -9.92271 
         -25      1.94571  7.65032e-05  1.56119e-05      -9.9227 
         -25      1.98869  7.61531e-05  1.55623e-05     -9.92269 
         -25      2.03217   7.5744e-05  1.54978e-05     -9.92268 
         -25      2.07612  7.52777e-05  1.54188e-05     -9.92267 
         -25      2.12051   7.4758e-05  1.53256e-05     -9.92266 
         -25       2.1654  7.41891e-05  1.52184e-05     -9.92265 
         -25      2.21073  7.35782e-05  1.50977e-05     -9.92264 
         -25      2.25656  7.29321e-05  1.49637e-05     -9.92262 
         -25      2.30283  7.22606e-05  1.48172e-05     -9.92261 
         -25       2.3496  7.15727e-05  1.46588e-05      -9.9226 
         -25      2.39685  7.08795e-05  1.44895e-05     -9.92258 
         -25      2.44452  7.01929e-05   1.4311e-05     -9.92257 
         -25      2.49271  6.95235e-05  1.41247e-05     -9.92255 
         -25      2.54132  6.88843e-05   1.3933e-05     -9.92254 
         -25      2.59044  6.82861e-05  1.37383e-05     -9.92252 
         -25         2.64  6.77411e-05   1.3544e-05     -9.92251 
         -25      2.69006  6.72593e-05  1.33532e-05     -9.92249 
         -25      2.74056  6.68513e-05  1.31703e-05     -9.92247 
         -25      2.79156  6.65252e-05  1.29994e-05     -9.92246 
         -25      2.84304  6.62885e-05  1.28454e-05     -9.92244 
         -25      2.89494  6.61468e-05  1.27135e-05     -9.92242 
         -25      2.94735  6.61032e-05  1.26089e-05      -9.9224 
         -25       3.0002   6.6159e-05  1.25368e-05     -9.92238 
         -25      3.05355  6.63129e-05  1.25023e-05     -9.92236 
         -25      3.10733  6.65607e-05  1.25102e-05     -9.92234 
         -25      3.16163  6.68956e-05  1.25644e-05     -9.92232 
         -25      3.21639  6.73075e-05   1.2668e-05      -9.9223 
         -25      3.27158  6.77827e-05  1.28224e-05     -9.92228 
         -25      3.32729  6.83057e-05  1.30273e-05     -9.92225 
         -25      3.38342  6.88559e-05  1.32797e-05     -9.92223 
         -25      3.44007  6.94117e-05   1.3574e-05     -9.92221 
         -25      3.49714  6.99464e-05  1.38998e-05     -9.92218 
         -25      3.55472  7.04327e-05  1.42432e-05     -9.92216 
         -25      3.61273  7.08393e-05  1.45835e-05     -9.92213 
         -25      3.67125  7.11345e-05  1.48944e-05      -9.9221 
         -25      3.73025  7.12844e-05   1.5141e-05     -9.92208 
         -25      3.78967  7.15187e-05   1.5269e-05     -9.92205 
         -25      3.84961  7.17859e-05  1.53512e-05     -9.92202 
         -25      3.90996  7.19853e-05  1.54219e-05     -9.92199 
         -25      3.97084  7.21284e-05  1.54896e-05     -9.92196 
         -25      4.03214  7.22232e-05  1.55579e-05     -9.92193 
         -25      4.09395  7.22762e-05  1.56276e-05      -9.9219 
         -25      4.15624  7.22917e-05  1.56968e-05     -9.92187 
         -25      4.21895  7.22729e-05  1.57624e-05     -9.92184 
         -25      4.28217  7.22219e-05  1.58208e-05      -9.9218 
         -25      4.34582  7.21405e-05  1.58684e-05     -9.92177 
         -25      4.40998  7.20301e-05  1.59031e-05     -9.92173 
         -25      4.47457  7.18929e-05  1.59237e-05      -9.9217 
         -25      4.53968  7.17309e-05  1.59315e-05     -9.92166 
         -25      4.60525  7.15477e-05  1.59298e-05     -9.92163 
         -25      4.67125  7.13477e-05   1.5924e-05     -9.92159 
         -25      4.73777  7.11359e-05  1.59216e-05     -9.92155 
         -25       4.8047  7.09194e-05  1.59313e-05     -9.92151 
         -25      4.87216  7.07053e-05  1.59624e-05     -9.92147 
         -25      4.94003  7.05026e-05  1.60235e-05     -9.92143 
         -25      5.00843  7.03198e-05  1.61208e-05     -9.92139 
         -25      5.07724  7.01661e-05  1.62555e-05     -9.92134 
         -25      5.14658  7.00494e-05  1.64224e-05      -9.9213 
         -25      5.21639  6.99763e-05  1.66049e-05     -9.92126 
         -25      5.28661  6.99506e-05  1.67723e-05     -9.92121 
         -25      5.35736  6.99717e-05  1.68752e-05     -9.92116 
         -25      5.42852   7.0031e-05  1.69218e-05     -9.92112 
         -25      5.50021  7.00995e-05  1.69836e-05     -9.92107 
         -25      5.57231  7.01425e-05   1.6999e-05     -9.92102 
         -25      5.64493  6.99338e-05  1.70759e-05     -9.92097 
         -25      5.71803    6.957e-05  1.72188e-05     -9.92092 
         -25      5.79154  6.93616e-05  1.73025e-05     -9.92086 
         -25      5.86558  6.92703e-05  1.73649e-05     -9.92081 
         -25      5.94003   6.9262e-05  1.74314e-05     -9.92076 
         -25      6.01501  6.93057e-05  1.75166e-05      -9.9207 
         -25       6.0904  6.93745e-05  1.76262e-05     -9.92065 
         -25      6.16632  6.94455e-05  1.77587e-05     -9.92059 
         -25      6.24271  6.94997e-05   1.7907e-05     -9.92053 
         -25       6.3195  6.95379e-05  1.81043e-05     -9.92047 
         -25      6.39683    6.955e-05  1.83524e-05     -9.92041 
         -25      6.47457   6.9507e-05  1.85871e-05     -9.92035 
         -25      6.55284  6.94076e-05  1.88071e-05     -9.92028 
         -25      6.63152  6.92542e-05  1.90086e-05     -9.92022 
         -25      6.71073  6.90528e-05  1.91882e-05     -9.92016 
         -25      6.79034  6.88138e-05  1.93429e-05     -9.92009 
         -25      6.87049  6.85501e-05  1.94724e-05     -9.92002 
         -25      6.95111  6.82778e-05  1.95784e-05     -9.91995 
         -25      7.03214  6.80145e-05  1.96654e-05     -9.91988 
         -25       7.1137  6.77769e-05  1.97397e-05     -9.91981 
         -25      7.19566  6.75804e-05  1.98075e-05     -9.91974 
         -25      7.27816  6.74349e-05   1.9874e-05     -9.91967 
         -25      7.36106  6.73433e-05   1.9939e-05     -9.91959 
         -25      7.44451  6.72966e-05  1.99941e-05     -9.91952 
         -25      7.52842  6.72703e-05  2.00169e-05     -9.91944 
         -25      7.61273   6.7219e-05  1.99657e-05     -9.91936 
         -25      7.69758  6.70707e-05  1.97713e-05     -9.91928 
         -25      7.78283  6.67209e-05  1.93296e-05      -9.9192 
         -25      7.86862  6.66781e-05  1.90716e-05     -9.91912 
         -25      7.95481  6.69468e-05  1.95027e-05     -9.91903 
         -25      8.04155  6.68803e-05  2.01589e-05     -9.91895 
         -25      8.12868  6.65999e-05  2.03465e-05     -9.91886 
         -25      8.21635  6.60347e-05  1.96567e-05     -9.91877 
         -25      8.30449  6.55347e-05  1.91568e-05     -9.91868 
         -25      8.39303  6.51183e-05    1.882e-05     -9.91859 
         -25      8.48211  6.47986e-05  1.86172e-05      -9.9185 
         -25      8.57159  6.45861e-05  1.85183e-05     -9.91841 
         -25      8.66161   6.4487e-05  1.84915e-05     -9.91831 
         -25      8.75203  6.45059e-05  1.85044e-05     -9.91821 
         -25      8.84299  6.46281e-05   1.8681e-05     -9.91812 
         -25      8.93443  6.46784e-05  1.88795e-05     -9.91802 
         -25      9.02626   6.4643e-05  1.90214e-05     -9.91792 
         -25      9.11863  6.45395e-05  1.91153e-05     -9.91781 
         -25      9.21139   6.4387e-05  1.91706e-05     -9.91771 
         -25      9.30471  6.42043e-05   1.9197e-05      -9.9176 
         -25      9.39841  6.40098e-05  1.92032e-05      -9.9175 
         -25      9.49267  6.38195e-05  1.91969e-05     -9.91739 
         -25      9.58739  6.36474e-05  1.91841e-05     -9.91728 
         -25      9.68251   6.3504e-05  1.91684e-05     -9.91716 
         -25      9.77817  6.33959e-05  1.91513e-05     -9.91705 
         -25      9.87422  6.33259e-05   1.9132e-05     -9.91693 
         -25      9.97083  6.32922e-05  1.91074e-05     -9.91682 
         -25      10.0678   6.3289e-05  1.90729e-05      -9.9167 
         -25      10.1654  6.33067e-05  1.90223e-05     -9.91658 
         -25      10.2633  6.33324e-05  1.89497e-05     -9.91646 
         -25      10.3618  6.33506e-05  1.88498e-05     -9.91633 
         -25      10.4607  6.33449e-05  1.87197e-05     -9.91621 
         -25      10.5601  6.32988e-05  1.85609e-05     -9.91608 
         -25        10.66  6.31982e-05  1.83808e-05     -9.91595 
         -25      10.7603  6.30333e-05  1.81964e-05     -9.91582 
         -25      10.8611  6.28013e-05  1.80357e-05     -9.91569 
         -25      10.9623  6.25102e-05  1.79426e-05     -9.91555 
         -25      11.0641  6.21811e-05  1.79797e-05     -9.91541 
         -25      11.1663  6.20417e-05   1.8037e-05     -9.91528 
         -25       11.269  6.21845e-05  1.78778e-05     -9.91513 
         -25      11.3721  6.22434e-05  1.77566e-05     -9.91499 
         -25      11.4757  6.22202e-05   1.7647e-05     -9.91485 
         -25      11.5798  6.21204e-05   1.7523e-05      -9.9147 
         -25      11.6844  6.19531e-05  1.73628e-05     -9.91455 
         -25      11.7894  6.17305e-05  1.71498e-05      -9.9144 
         -25       11.895  6.14679e-05  1.68754e-05     -9.91425 
         -25      12.0009  6.11839e-05  1.65409e-05      -9.9141 
         -25      12.1073  6.08985e-05  1.61571e-05     -9.91394 
         -25      12.2142  6.06353e-05  1.57479e-05     -9.91379 
         -25      12.3216   6.0419e-05  1.53475e-05     -9.91363 
         -25      12.4294  6.02768e-05  1.50036e-05     -9.91346 
         -25      12.5378   6.0237e-05   1.4774e-05      -9.9133 
         -25      12.6465  6.03298e-05  1.47275e-05     -9.91313 
         -25      12.7558  6.04485e-05  1.47395e-05     -9.91297 
         -25      12.8656  6.02996e-05  1.45224e-05     -9.91279 
         -25      12.9757  6.01068e-05  1.43735e-05     -9.91262 
         -25      13.0864  5.99141e-05  1.42645e-05     -9.91245 
         -25      13.1975  5.97552e-05  1.41781e-05     -9.91227 
         -25      13.3092  5.96528e-05  1.41054e-05     -9.91209 
         -25      13.4212  5.96186e-05  1.40442e-05     -9.91191 
         -25      13.5338   5.9654e-05  1.39966e-05     -9.91173 
         -25      13.6468  5.97505e-05  1.39677e-05     -9.91154 
         -25      13.7603  5.98912e-05  1.39627e-05     -9.91135 
         -25      13.8743  6.00526e-05  1.39853e-05     -9.91116 
         -25      13.9886  6.02062e-05  1.40353e-05     -9.91097 
         -25      14.1036  6.03227e-05  1.41073e-05     -9.91078 
         -25      14.2189  6.03738e-05  1.41875e-05     -9.91058 
         -25      14.3348  6.03374e-05  1.42528e-05     -9.91038 
         -25       14.451  6.02021e-05  1.42678e-05     -9.91018 
         -25      14.5678  5.99722e-05  1.41839e-05     -9.90998 
         -25      14.6851  5.94129e-05  1.40748e-05     -9.90977 
         -25      14.8028  5.89669e-05  1.39292e-05     -9.90956 
         -25       14.921  5.87122e-05  1.37616e-05     -9.90935 
         -25      15.0396  5.85889e-05  1.36128e-05     -9.90914 
         -25      15.1588  5.85474e-05  1.35088e-05     -9.90892 
         -25      15.2783  5.85479e-05  1.34641e-05      -9.9087 
         -25      15.3984  5.85596e-05  1.34826e-05     -9.90848 
         -25       15.519    5.856e-05  1.35608e-05     -9.90826 
         -25        15.64   5.8534e-05  1.36889e-05     -9.90804 
         -25      15.7615   5.8473e-05  1.38534e-05     -9.90781 
         -25      15.8834  5.83745e-05  1.40379e-05     -9.90758 
         -25      16.0058  5.82405e-05  1.42261e-05     -9.90734 
         -25      16.1286  5.80776e-05  1.44016e-05     -9.90711 
         -25       16.252  5.78953e-05  1.45505e-05     -9.90687 
         -25      16.3759  5.77058e-05   1.4662e-05     -9.90663 
         -25      16.5002  5.75232e-05  1.47288e-05     -9.90639 
         -25       16.625   5.7362e-05  1.47487e-05     -9.90614 
         -25      16.7501  5.72374e-05  1.47244e-05     -9.90589 
         -25      16.8759  5.71633e-05  1.46637e-05     -9.90564 
         -25       17.002   5.7153e-05  1.45792e-05     -9.90539 
         -25      17.1287  5.72172e-05  1.44882e-05     -9.90513 
         -25      17.2557  5.73639e-05  1.44116e-05     -9.90487 
         -25      17.3834  5.75982e-05  1.43726e-05     -9.90461 
         -25      17.5115  5.79209e-05  1.43955e-05     -9.90434 
         -25      17.6399  5.83279e-05  1.45031e-05     -9.90408 
         -25       17.769  5.88115e-05  1.47151e-05     -9.90381 
         -25      17.8984  5.89658e-05  1.48608e-05     -9.90353 
         -25      18.0284   5.8698e-05  1.47902e-05     -9.90326 
         -25      18.1587  5.83565e-05  1.46328e-05     -9.90298 
         -25      18.2896  5.79531e-05  1.44045e-05      -9.9027 
         -25       18.421  5.75021e-05   1.4131e-05     -9.90241 
         -25      18.5528  5.70179e-05  1.38486e-05     -9.90213 
         -25      18.6851   5.6514e-05  1.36041e-05     -9.90184 
         -25      18.8178  5.60042e-05   1.3458e-05     -9.90154 
         -25      18.9511  5.57517e-05  1.31346e-05     -9.90125 
         -25      19.0847  5.56942e-05   1.2896e-05     -9.90095 
         -25      19.2189  5.57339e-05  1.28488e-05     -9.90065 
         -25      19.3535  5.58518e-05  1.29653e-05     -9.90035 
         -25      19.4886  5.60268e-05  1.32202e-05     -9.90004 
         -25      19.6242  5.61021e-05   1.3465e-05     -9.89973 
         -25      19.7602  5.60151e-05  1.34999e-05     -9.89942 
         -25      19.8968  5.60005e-05  1.35199e-05      -9.8991 
         -25      20.0337  5.60293e-05  1.35416e-05     -9.89878 
         -25      20.1712  5.60796e-05  1.35755e-05     -9.89846 
         -25      20.3091   5.6136e-05  1.36269e-05     -9.89813 
         -25      20.4475  5.61884e-05  1.36971e-05     -9.89781 
         -25      20.5864  5.62305e-05  1.37844e-05     -9.89748 
         -25      20.7257  5.62594e-05  1.38842e-05     -9.89714 
         -25      20.8655  5.62741e-05  1.39913e-05      -9.8968 
         -25      21.0058  5.62755e-05   1.4099e-05     -9.89647 
         -25      21.1465  5.62647e-05  1.42012e-05     -9.89612 
         -25      21.2877  5.62435e-05  1.42919e-05     -9.89578 
         -25      21.4294  5.62131e-05  1.43668e-05     -9.89543 
         -25      21.5716  5.61742e-05  1.44225e-05     -9.89507 
         -25      21.7142   5.6127e-05  1.44578e-05     -9.89472 
         -25      21.8573  5.60708e-05  1.44736e-05     -9.89436 
         -25      22.0008  5.60045e-05   1.4473e-05       -9.894 
         -25      22.1449  5.59269e-05   1.4461e-05     -9.89363 
         -25      22.2893  5.58371e-05  1.44447e-05     -9.89327 
         -25      22.4344  5.57356e-05  1.44328e-05     -9.89289 
         -25      22.5797  5.56249e-05  1.44352e-05     -9.89252 
         -25      22.7257   5.5511e-05  1.44623e-05     -9.89214 
         -25      22.8721   5.5405e-05  1.45242e-05     -9.89176 
         -25      23.0189  5.53245e-05  1.46294e-05     -9.89138 
         -25      23.1663  5.52957e-05  1.47844e-05     -9.89099 
         -25       23.314  5.53559e-05  1.49913e-05      -9.8906 
         -25      23.4623  5.55562e-05   1.5247e-05      -9.8902 
         -25       23.611  5.59637e-05  1.55405e-05     -9.88981 
         -25      23.7602   5.5869e-05   1.5556e-05     -9.88941 
         -25        23.91  5.51731e-05  1.52672e-05       -9.889 
         -25        24.06  5.47506e-05  1.50453e-05      -9.8886 
         -25      24.2107  5.45202e-05  1.48889e-05     -9.88819 
         -25      24.3617  5.44179e-05  1.47953e-05     -9.88777 
         -25      24.5133  5.43933e-05  1.47596e-05     -9.88736 
         -25      24.6653  5.44089e-05  1.47757e-05     -9.88694 
         -25      24.8178  5.44376e-05  1.48363e-05     -9.88651 
         -25      24.9708  5.44616e-05  1.49336e-05     -9.88609 
         -25      25.1242  5.44702e-05   1.5059e-05     -9.88566 
         -25      25.2781  5.44588e-05  1.52044e-05     -9.88522 
         -25      25.4324  5.44271e-05  1.53612e-05     -9.88478 
         -25      25.5873  5.43781e-05  1.55219e-05     -9.88434 
         -25      25.7426  5.43168e-05  1.56792e-05      -9.8839 
         -25      25.8984  5.42489e-05  1.58269e-05     -9.88345 
         -25      26.0546  5.41804e-05  1.59597e-05       -9.883 
         -25      26.2114  5.41161e-05  1.60737e-05     -9.88255 
         -25      26.3686  5.40599e-05   1.6166e-05     -9.88209 
         -25      26.5262  5.40138e-05  1.62354e-05     -9.88163 
         -25      26.6844  5.39775e-05  1.62818e-05     -9.88117 
         -25      26.8429   5.3949e-05  1.63069e-05      -9.8807 
         -25       27.002  5.39242e-05  1.63135e-05     -9.88023 
         -25      27.1615  5.38977e-05  1.63057e-05     -9.87975 
         -25      27.3216  5.38632e-05  1.62888e-05     -9.87927 
         -25      27.4821  5.38143e-05  1.62691e-05     -9.87879 
         -25       27.643  5.37463e-05  1.62535e-05     -9.87831 
         -25      27.8044  5.36568e-05  1.62495e-05     -9.87782 
         -25      27.9663  5.35481e-05  1.62645e-05     -9.87733 
         -25      28.1287  5.34288e-05  1.63055e-05     -9.87683 
         -25      28.2914  5.33167e-05  1.63788e-05     -9.87633 
         -25      28.4548  5.32412e-05  1.64892e-05     -9.87583 
         -25      28.6185  5.32464e-05  1.66394e-05     -9.87533 
         -25      28.7828  5.33553e-05  1.68538e-05     -9.87482 
         -25      28.9475  5.35918e-05  1.74541e-05      -9.8743 
         -25      29.1126  5.40061e-05  1.86321e-05     -9.87379 
         -25      29.2784  5.40138e-05  1.82454e-05     -9.87327 
         -25      29.4444  5.40694e-05  1.79957e-05     -9.87274 
         -25       29.611  5.38737e-05  1.78561e-05     -9.87222 
         -25       29.778  5.35096e-05  1.76356e-05     -9.87169 
         -25      29.9456  5.31742e-05  1.74484e-05     -9.87115 
         -25      30.1137   5.2889e-05  1.72946e-05     -9.87061 
         -25      30.2821  5.26648e-05  1.71764e-05     -9.87007 
         -25      30.4511  5.25035e-05  1.70971e-05     -9.86953 
         -25      30.6204  5.24009e-05    1.706e-05     -9.86898 
         -25      30.7903  5.23473e-05   1.7067e-05     -9.86843 
         -25      30.9606  5.23303e-05  1.71176e-05     -9.86787 
         -25      31.1315  5.23355e-05  1.72091e-05     -9.86732 
         -25      31.3028  5.23479e-05  1.73353e-05     -9.86675 
         -25      31.4745  5.23539e-05  1.74867e-05     -9.86619 
         -25      31.6468  5.23412e-05  1.76513e-05     -9.86562 
         -25      31.8194  5.23007e-05  1.78139e-05     -9.86504 
         -25      31.9926  5.22266e-05  1.79579e-05     -9.86447 
         -25      32.1662  5.21172e-05  1.80658e-05     -9.86389 
         -25      32.3404  5.19749e-05   1.8121e-05     -9.86331 
         -25      32.5149  5.18067e-05  1.81092e-05     -9.86272 
         -25        32.69  5.16233e-05  1.80209e-05     -9.86213 
         -25      32.8655  5.14397e-05   1.7854e-05     -9.86153 
         -25      33.0414  5.12739e-05  1.76169e-05     -9.86094 
         -25       33.218  5.11458e-05  1.73309e-05     -9.86033 
         -25      33.3948  5.10764e-05  1.70361e-05     -9.85973 
         -25      33.5723  5.10858e-05  1.67933e-05     -9.85912 
         -25        33.75   5.1192e-05  1.66915e-05     -9.85851 
         -25      33.9284  5.14081e-05  1.68509e-05     -9.85789 
         -25      34.1073  5.17398e-05  1.74307e-05     -9.85728 
         -25      34.2865  5.21825e-05  1.86334e-05     -9.85665 
         -25      34.4663  5.24336e-05  1.98455e-05     -9.85603 
         -25      34.6465  5.17766e-05  1.84271e-05      -9.8554 
         -25      34.8272  5.14268e-05   1.7743e-05     -9.85477 
         -25      35.0083  5.12741e-05  1.75793e-05     -9.85413 
         -25        35.19  5.12327e-05  1.77552e-05     -9.85349 
         -25      35.3721  5.12391e-05  1.81233e-05     -9.85285 
         -25      35.5546  5.12487e-05  1.85656e-05      -9.8522 
         -25      35.7377  5.12333e-05  1.89933e-05     -9.85155 
         -25      35.9211  5.11783e-05  1.93417e-05      -9.8509 
         -25      36.1052  5.10796e-05  1.95706e-05     -9.85024 
         -25      36.2895  5.09418e-05  1.96598e-05     -9.84958 
         -25      36.4745  5.07749e-05  1.96085e-05     -9.84891 
         -25      36.6598  5.05926e-05  1.94316e-05     -9.84825 
         -25      36.8457  5.04093e-05  1.91581e-05     -9.84757 
         -25      37.0321  5.02385e-05  1.88289e-05      -9.8469 
         -25      37.2188  5.00908e-05  1.84948e-05     -9.84622 
         -25      37.4062  4.99713e-05  1.82128e-05     -9.84554 
         -25      37.5938  4.98786e-05  1.80463e-05     -9.84486 
         -25      37.7821  4.98027e-05  1.80608e-05     -9.84417 
         -25      37.9707  4.97242e-05  1.83228e-05     -9.84348 
         -25      38.1599  4.96122e-05  1.88983e-05     -9.84278 
         -25      38.3496  4.94241e-05  1.98499e-05     -9.84208 
         -25      38.5396  4.92914e-05  2.00325e-05     -9.84138 
         -25      38.7302  4.93871e-05   1.9017e-05     -9.84067 
         -25      38.9211   4.9507e-05  1.83902e-05     -9.83997 
         -25      39.1127  4.96399e-05  1.81094e-05     -9.83925 
         -25      39.3046  4.97712e-05  1.81255e-05     -9.83854 
         -25      39.4971  4.98853e-05  1.83784e-05     -9.83782 
         -25      39.6899  4.99649e-05   1.8795e-05      -9.8371 
         -25      39.8833  4.99927e-05  1.92876e-05     -9.83637 
         -25      40.0772  4.99523e-05  1.97501e-05     -9.83564 
         -25      40.2714   4.9829e-05  2.00558e-05     -9.83491 
         -25      40.4663  4.96107e-05  2.00559e-05     -9.83418 
         -25      40.6615  4.92899e-05  1.95758e-05     -9.83344 
         -25      40.8573  4.88634e-05  1.84113e-05      -9.8327 
         -25      41.0534  4.85549e-05  1.75765e-05     -9.83195 
         -25      41.2501  4.85057e-05  1.80461e-05      -9.8312 
         -25      41.4473  4.84468e-05  1.84104e-05     -9.83045 
         -25      41.6448  4.83825e-05  1.86828e-05      -9.8297 
         -25      41.8429  4.83153e-05  1.88768e-05     -9.82894 
         -25      42.0414  4.82471e-05  1.90051e-05     -9.82818 
         -25      42.2405  4.81784e-05  1.90801e-05     -9.82741 
         -25      42.4399  4.81091e-05  1.91133e-05     -9.82665 
         -25      42.6399  4.80386e-05   1.9116e-05     -9.82587 
         -25      42.8404  4.79659e-05   1.9098e-05      -9.8251 
         -25      43.0412  4.78897e-05  1.90687e-05     -9.82432 
         -25      43.2426  4.78089e-05  1.90362e-05     -9.82354 
         -25      43.4444  4.77223e-05  1.90075e-05     -9.82276 
         -25      43.6467  4.76289e-05  1.89885e-05     -9.82197 
         -25      43.8494  4.75283e-05   1.8984e-05     -9.82118 
         -25      44.0527  4.74201e-05  1.89974e-05     -9.82039 
         -25      44.2563  4.73048e-05  1.90309e-05      -9.8196 
         -25      44.4606  4.71832e-05  1.90855e-05      -9.8188 
         -25      44.6653  4.70567e-05  1.91607e-05       -9.818 
         -25      44.8704  4.69277e-05  1.92549e-05     -9.81719 
         -25       45.076  4.67984e-05  1.93653e-05     -9.81638 
         -25       45.282  4.66723e-05  1.94879e-05     -9.81557 
         -25      45.4886  4.65528e-05  1.96177e-05     -9.81476 
         -25      45.6955  4.64444e-05  1.97484e-05     -9.81394 
         -25       45.903   4.6351e-05  1.98732e-05     -9.81313 
         -25      46.1111  4.62775e-05  1.99841e-05      -9.8123 
         -25      46.3194  4.62282e-05  2.00726e-05     -9.81148 
         -25      46.5283  4.62075e-05    2.013e-05     -9.81065 
         -25      46.7376  4.62193e-05  2.01471e-05     -9.80982 
         -25      46.9475  4.62665e-05  2.01146e-05     -9.80899 
         -25      47.1577  4.63514e-05  2.00234e-05     -9.80815 
         -25      47.3685  4.64747e-05  1.98648e-05     -9.80731 
         -25      47.5798  4.66355e-05   1.9631e-05     -9.80647 
         -25      47.7914  4.68304e-05  1.93153e-05     -9.80562 
         -25      48.0037  4.70455e-05  1.89558e-05     -9.80478 