Variables = x, y, u, v, p

Zone, I=800, F=POINT
          50            0  7.93936e-20   8.5118e-25      29.7154 
          50     0.000234  3.94944e-06  4.41874e-11      29.7154 
          50     0.000939  1.50709e-05  1.91617e-10      29.7154 
          50     0.002113  3.12028e-05  4.89447e-10      29.7154 
          50     0.003759  4.94559e-05  1.03322e-09      29.7154 
          50     0.005872  6.68296e-05  1.98484e-09      29.7154 
          50     0.008457  8.11787e-05  3.60819e-09      29.7154 
          50      0.01151  9.16183e-05  6.29475e-09      29.7154 
          50     0.015036  9.88072e-05  1.06134e-08      29.7154 
          50     0.019031  0.000104572  1.73324e-08      29.7154 
          50     0.023493  0.000111192   2.7462e-08      29.7154 
          50     0.028429  0.000120422  4.23127e-08      29.7154 
          50     0.033831  0.000132601  6.34567e-08      29.7154 
          50     0.039706  0.000146418  9.28375e-08      29.7154 
          50     0.046047  0.000159493  1.32663e-07      29.7154 
          50     0.052863  0.000170058  1.85561e-07      29.7154 
          50      0.06015  0.000178872  2.54393e-07      29.7154 
          50       0.0679  0.000189737  3.42228e-07      29.7154 
          50     0.076126   0.00020481  4.52616e-07      29.7154 
          50     0.084816  0.000212342  5.89025e-07      29.7154 
          50     0.093982  0.000223533  7.55431e-07      29.7154 
          50     0.103611   0.00023329  9.55384e-07      29.7154 
          50     0.113718  0.000241944  1.19317e-06      29.7154 
          50     0.124286  0.000249703  1.47221e-06      29.7154 
          50     0.135333  0.000256693  1.79666e-06      29.7154 
          50      0.14685  0.000262918   2.1697e-06      29.7154 
          50     0.158827  0.000268316  2.59413e-06      29.7154 
          50     0.171284  0.000272817  3.07349e-06      29.7154 
          50     0.184201  0.000276368  3.60957e-06      29.7154 
          50     0.197599  0.000279009  4.20544e-06      29.7154 
          50     0.211455  0.000280867  4.86186e-06      29.7154 
          50     0.225792  0.000282106  5.58114e-06      29.7154 
          50       0.2406  0.000282724  6.36322e-06      29.7154 
          50     0.255865  0.000282516  7.20684e-06      29.7154 
          50     0.271613  0.000281956  8.11603e-06      29.7154 
          50     0.287818  0.000280958  9.08844e-06      29.7154 
          50     0.304506  0.000279617  1.01237e-05      29.7154 
          50      0.32165  0.000278034  1.12185e-05      29.7154 
          50     0.339278  0.000276299  1.23733e-05      29.7154 
          50     0.357377  0.000274503  1.35859e-05      29.7154 
          50      0.37593  0.000272729  1.48541e-05      29.7154 
          50     0.394968  0.000271048  1.61785e-05      29.7154 
          50     0.414461  0.000269528  1.75553e-05      29.7154 
          50      0.43444  0.000268222  1.89847e-05      29.7154 
          50     0.454872  0.000267179  2.04612e-05      29.7154 
          50     0.475791  0.000266431   2.1984e-05      29.7154 
          50     0.497163  0.000266004  2.35465e-05      29.7154 
          50     0.519021  0.000265907  2.51469e-05      29.7154 
          50      0.54135  0.000266141  2.67802e-05      29.7154 
          50     0.564131  0.000266687  2.84424e-05      29.7154 
          50       0.5874   0.00026751  3.01365e-05      29.7154 
          50     0.611121  0.000268535  3.18646e-05      29.7154 
          50      0.63533  0.000269691  3.36031e-05      29.7154 
          50      0.65999  0.000271031  3.53361e-05      29.7154 
          50     0.685139  0.000272417  3.70666e-05      29.7154 
          50     0.710759  0.000273714  3.87922e-05      29.7154 
          50     0.736828  0.000274801  4.05088e-05      29.7154 
          50     0.763387  0.000275573  4.22152e-05      29.7154 
          50     0.790396  0.000275934  4.39039e-05      29.7154 
          50     0.817896  0.000275805  4.55717e-05      29.7154 
          50     0.845843  0.000275124  4.72096e-05      29.7154 
          50     0.874283  0.000273843  4.88138e-05      29.7154 
          50      0.90317  0.000271933  5.03754e-05      29.7154 
          50     0.932551  0.000269375   5.1891e-05      29.7154 
          50     0.962401  0.000266172  5.33542e-05      29.7154 
          50     0.992697  0.000262343  5.47604e-05      29.7154 
          50      1.02349   0.00025791  5.61096e-05      29.7154 
          50      1.05472   0.00025292   5.7399e-05      29.7154 
          50      1.08645  0.000247416  5.86324e-05      29.7154 
          50      1.11863  0.000241466   5.9811e-05      29.7154 
          50       1.1513  0.000235123  6.09416e-05      29.7153 
          50      1.18444   0.00022846  6.20297e-05      29.7153 
          50      1.21802  0.000221549  6.30813e-05      29.7153 
          50      1.25211  0.000214445  6.41044e-05      29.7153 
          50      1.28663  0.000207219  6.51016e-05      29.7153 
          50      1.32165  0.000199913  6.60751e-05      29.7153 
          50      1.35712  0.000192584  6.70171e-05      29.7153 
          50      1.39308  0.000185256  6.79132e-05      29.7153 
          50      1.42951  0.000177956  6.87327e-05      29.7153 
          50      1.46638  0.000170705  6.94265e-05      29.7153 
          50      1.50375  0.000163495  6.99221e-05      29.7153 
          50      1.54156  0.000156008  7.06237e-05      29.7153 
          50      1.57987  0.000148514  7.13022e-05      29.7153 
          50      1.61863   0.00014106   7.1923e-05      29.7153 
          50      1.65788  0.000133642  7.24821e-05      29.7153 
          50      1.69757  0.000126283  7.29747e-05      29.7153 
          50      1.73776  0.000118981  7.33981e-05      29.7153 
          50      1.77842  0.000111752  7.37492e-05      29.7153 
          50      1.81952  0.000104613  7.40257e-05      29.7153 
          50      1.86113  9.75644e-05  7.42268e-05      29.7153 
          50      1.90316  9.06279e-05  7.43517e-05      29.7153 
          50      1.94571  8.38047e-05  7.44007e-05      29.7153 
          50      1.98869  7.71178e-05  7.43745e-05      29.7152 
          50      2.03217  7.05691e-05  7.42746e-05      29.7152 
          50      2.07612  6.41767e-05  7.41032e-05      29.7152 
          50      2.12051  5.79585e-05  7.38634e-05      29.7152 
          50       2.1654   5.1918e-05  7.35582e-05      29.7152 
          50      2.21073  4.60783e-05  7.31919e-05      29.7152 
          50      2.25656  4.04438e-05  7.27685e-05      29.7152 
          50      2.30283   3.5037e-05  7.22934e-05      29.7152 
          50       2.3496  2.98633e-05   7.1771e-05      29.7152 
          50      2.39685  2.49407e-05  7.12072e-05      29.7152 
          50      2.44452  2.02863e-05  7.06082e-05      29.7152 
          50      2.49271  1.59062e-05  6.99788e-05      29.7152 
          50      2.54132  1.18198e-05  6.93258e-05      29.7152 
          50      2.59044  8.03305e-06   6.8654e-05      29.7151 
          50         2.64  4.56327e-06  6.79701e-05      29.7151 
          50      2.69006  1.41541e-06  6.72783e-05      29.7151 
          50      2.74056 -1.39643e-06  6.65848e-05      29.7151 
          50      2.79156 -3.86912e-06  6.58931e-05      29.7151 
          50      2.84304 -5.99456e-06  6.52078e-05      29.7151 
          50      2.89494   -7.768e-06  6.45329e-05      29.7151 
          50      2.94735  -9.1914e-06  6.38702e-05      29.7151 
          50       3.0002 -1.02647e-05  6.32226e-05      29.7151 
          50      3.05355 -1.09954e-05  6.25904e-05       29.715 
          50      3.10733 -1.13923e-05  6.19748e-05       29.715 
          50      3.16163 -1.14708e-05  6.13742e-05       29.715 
          50      3.21639 -1.12506e-05  6.07876e-05       29.715 
          50      3.27158 -1.07587e-05  6.02129e-05       29.715 
          50      3.32729 -1.00278e-05  5.96459e-05       29.715 
          50      3.38342 -9.10044e-06  5.90833e-05       29.715 
          50      3.44007 -8.02564e-06  5.85191e-05       29.715 
          50      3.49714  -6.8656e-06  5.79489e-05      29.7149 
          50      3.55472 -5.69035e-06  5.73656e-05      29.7149 
          50      3.61273 -4.58616e-06  5.67641e-05      29.7149 
          50      3.67125 -3.64988e-06  5.61371e-05      29.7149 
          50      3.73025 -2.99667e-06  5.54794e-05      29.7149 
          50      3.78967 -2.28407e-06  5.46005e-05      29.7149 
          50      3.84961 -1.40778e-06  5.38632e-05      29.7148 
          50      3.90996 -5.31917e-07  5.32168e-05      29.7148 
          50      3.97084  3.38625e-07  5.25464e-05      29.7148 
          50      4.03214  1.19746e-06  5.18225e-05      29.7148 
          50      4.09395  2.04251e-06  5.10614e-05      29.7148 
          50      4.15624  2.87141e-06  5.02988e-05      29.7148 
          50      4.21895  3.68355e-06  4.95651e-05      29.7147 
          50      4.28217  4.48175e-06  4.88687e-05      29.7147 
          50      4.34582  5.26741e-06  4.81956e-05      29.7147 
          50      4.40998  6.04488e-06   4.7512e-05      29.7147 
          50      4.47457  6.81556e-06  4.67891e-05      29.7147 
          50      4.53968  7.58163e-06  4.60359e-05      29.7146 
          50      4.60525  8.34013e-06  4.53574e-05      29.7146 
          50      4.67125  9.08799e-06   4.4683e-05      29.7146 
          50      4.73777   9.8208e-06  4.39738e-05      29.7146 
          50       4.8047  1.05531e-05  4.32944e-05      29.7145 
          50      4.87216  1.12907e-05  4.26333e-05      29.7145 
          50      4.94003  1.20284e-05  4.19766e-05      29.7145 
          50      5.00843  1.27621e-05  4.13126e-05      29.7145 
          50      5.07724  1.34882e-05  4.06404e-05      29.7144 
          50      5.14658  1.42111e-05  3.99667e-05      29.7144 
          50      5.21639  1.49374e-05  3.93059e-05      29.7144 
          50      5.28661  1.56728e-05  3.86688e-05      29.7144 
          50      5.35736  1.64155e-05  3.80468e-05      29.7143 
          50      5.42852  1.71376e-05  3.73927e-05      29.7143 
          50      5.50021  1.78798e-05  3.67802e-05      29.7143 
          50      5.57231   1.8611e-05  3.61618e-05      29.7143 
          50      5.64493  1.93298e-05  3.55272e-05      29.7142 
          50      5.71803  2.00417e-05  3.48868e-05      29.7142 
          50      5.79154  2.07513e-05  3.42539e-05      29.7142 
          50      5.86558  2.14619e-05  3.36413e-05      29.7141 
          50      5.94003  2.21703e-05  3.30699e-05      29.7141 
          50      6.01501  2.28528e-05   3.2454e-05      29.7141 
          50       6.0904  2.35073e-05  3.18154e-05       29.714 
          50      6.16632  2.41485e-05  3.12105e-05       29.714 
          50      6.24271  2.47863e-05  3.06533e-05       29.714 
          50       6.3195  2.54091e-05  3.00905e-05      29.7139 
          50      6.39683  2.59528e-05  2.93295e-05      29.7139 
          50      6.47457  2.66123e-05  2.89101e-05      29.7139 
          50      6.55284  2.71981e-05  2.84132e-05      29.7138 
          50      6.63152  2.77431e-05  2.78701e-05      29.7138 
          50      6.71073  2.82738e-05  2.73135e-05      29.7138 
          50      6.79034  2.88062e-05  2.67712e-05      29.7137 
          50      6.87049  2.93513e-05   2.6262e-05      29.7137 
          50      6.95111  2.99133e-05  2.57723e-05      29.7137 
          50      7.03214  3.04713e-05  2.52245e-05      29.7136 
          50       7.1137  3.10234e-05  2.46937e-05      29.7136 
          50      7.19566  3.15739e-05  2.41881e-05      29.7135 
          50      7.27816  3.21274e-05  2.37079e-05      29.7135 
          50      7.36106  3.26842e-05  2.32493e-05      29.7134 
          50      7.44451  3.32447e-05   2.2803e-05      29.7134 
          50      7.52842  3.38055e-05  2.23588e-05      29.7134 
          50      7.61273  3.43622e-05  2.19083e-05      29.7133 
          50      7.69758  3.49107e-05  2.14473e-05      29.7133 
          50      7.78283  3.54459e-05  2.09848e-05      29.7132 
          50      7.86862  3.59665e-05  2.05458e-05      29.7132 
          50      7.95481  3.64736e-05  2.01829e-05      29.7131 
          50      8.04155  3.69989e-05  1.98098e-05      29.7131 
          50      8.12868   3.7506e-05   1.9404e-05       29.713 
          50      8.21635  3.79823e-05  1.90485e-05       29.713 
          50      8.30449  3.84391e-05  1.87228e-05      29.7129 
          50      8.39303  3.88821e-05  1.84135e-05      29.7129 
          50      8.48211  3.93141e-05  1.81122e-05      29.7128 
          50      8.57159  3.97337e-05  1.78156e-05      29.7128 
          50      8.66161  4.01398e-05  1.75226e-05      29.7127 
          50      8.75203  4.05298e-05  1.72351e-05      29.7127 
          50      8.84299  4.09031e-05  1.69547e-05      29.7126 
          50      8.93443  4.12598e-05  1.66834e-05      29.7126 
          50      9.02626  4.16018e-05  1.64222e-05      29.7125 
          50      9.11863  4.19339e-05  1.61697e-05      29.7124 
          50      9.21139  4.22615e-05  1.59228e-05      29.7124 
          50      9.30471  4.25921e-05   1.5675e-05      29.7123 
          50      9.39841  4.29324e-05  1.54179e-05      29.7123 
          50      9.49267  4.32883e-05  1.51394e-05      29.7122 
          50      9.58739  4.36615e-05  1.48255e-05      29.7121 
          50      9.68251  4.40473e-05   1.4461e-05      29.7121 
          50      9.77817  4.44326e-05  1.40289e-05       29.712 
          50      9.87422  4.46997e-05  1.37502e-05      29.7119 
          50      9.97083  4.48707e-05   1.3695e-05      29.7119 
          50      10.0678  4.52827e-05  1.31474e-05      29.7118 
          50      10.1654  4.56217e-05  1.30233e-05      29.7117 
          50      10.2633  4.58947e-05  1.28656e-05      29.7117 
          50      10.3618  4.61315e-05  1.26837e-05      29.7116 
          50      10.4607  4.63532e-05  1.24864e-05      29.7115 
          50      10.5601  4.65732e-05  1.22812e-05      29.7115 
          50        10.66  4.68001e-05  1.20739e-05      29.7114 
          50      10.7603  4.70371e-05  1.18698e-05      29.7113 
          50      10.8611  4.72848e-05  1.16724e-05      29.7112 
          50      10.9623  4.75411e-05  1.14844e-05      29.7112 
          50      11.0641  4.78034e-05  1.13071e-05      29.7111 
          50      11.1663  4.80681e-05  1.11411e-05       29.711 
          50       11.269  4.83321e-05  1.09856e-05      29.7109 
          50      11.3721  4.85934e-05  1.08389e-05      29.7108 
          50      11.4757  4.88504e-05  1.06985e-05      29.7108 
          50      11.5798  4.91032e-05  1.05606e-05      29.7107 
          50      11.6844  4.93517e-05  1.04211e-05      29.7106 
          50      11.7894  4.95972e-05  1.02745e-05      29.7105 
          50       11.895  4.98392e-05  1.01152e-05      29.7104 
          50      12.0009   5.0076e-05  9.93685e-06      29.7103 
          50      12.1073  5.03026e-05  9.73215e-06      29.7103 
          50      12.2142  5.05081e-05  9.49402e-06      29.7102 
          50      12.3216  5.06748e-05  9.21436e-06      29.7101 
          50      12.4294  5.08019e-05  8.96033e-06        29.71 
          50      12.5378  5.09365e-05  8.86351e-06      29.7099 
          50      12.6465  5.10372e-05  8.74776e-06      29.7098 
          50      12.7558  5.11156e-05  8.59811e-06      29.7097 
          50      12.8656  5.11814e-05  8.40961e-06      29.7096 
          50      12.9757  5.12425e-05  8.18554e-06      29.7095 
          50      13.0864  5.13061e-05  7.93511e-06      29.7094 
          50      13.1975  5.13778e-05  7.67324e-06      29.7093 
          50      13.3092   5.1463e-05  7.41755e-06      29.7092 
          50      13.4212   5.1566e-05  7.18853e-06      29.7091 
          50      13.5338  5.16915e-05  7.00669e-06       29.709 
          50      13.6468  5.18439e-05  6.89267e-06      29.7089 
          50      13.7603  5.20278e-05  6.86538e-06      29.7088 
          50      13.8743  5.22208e-05  6.76249e-06      29.7087 
          50      13.9886  5.24357e-05  6.62475e-06      29.7086 
          50      14.1036  5.26725e-05  6.51848e-06      29.7085 
          50      14.2189   5.2918e-05  6.43387e-06      29.7084 
          50      14.3348  5.31628e-05  6.36519e-06      29.7083 
          50       14.451  5.33991e-05  6.31022e-06      29.7081 
          50      14.5678  5.36218e-05  6.26854e-06       29.708 
          50      14.6851  5.38267e-05  6.24068e-06      29.7079 
          50      14.8028  5.40108e-05  6.22654e-06      29.7078 
          50       14.921  5.41724e-05  6.22402e-06      29.7077 
          50      15.0396  5.43104e-05  6.22764e-06      29.7076 
          50      15.1588  5.44246e-05  6.22695e-06      29.7074 
          50      15.2783  5.45155e-05  6.20498e-06      29.7073 
          50      15.3984  5.45854e-05  6.13652e-06      29.7072 
          50       15.519  5.46375e-05  5.98642e-06      29.7071 
          50        15.64  5.46776e-05  5.70812e-06      29.7069 
          50      15.7615  5.46869e-05  5.75073e-06      29.7068 
          50      15.8834  5.47066e-05  5.78728e-06      29.7067 
          50      16.0058  5.47413e-05  5.77489e-06      29.7066 
          50      16.1286  5.47898e-05  5.73356e-06      29.7064 
          50       16.252  5.48497e-05  5.67925e-06      29.7063 
          50      16.3759  5.49185e-05  5.62428e-06      29.7062 
          50      16.5002  5.49933e-05  5.57753e-06       29.706 
          50       16.625  5.50718e-05  5.54456e-06      29.7059 
          50      16.7501  5.51515e-05  5.52821e-06      29.7058 
          50      16.8759  5.52312e-05   5.5288e-06      29.7056 
          50       17.002  5.53096e-05  5.54459e-06      29.7055 
          50      17.1287  5.53868e-05  5.57229e-06      29.7053 
          50      17.2557  5.54632e-05  5.60747e-06      29.7052 
          50      17.3834  5.55403e-05  5.64524e-06       29.705 
          50      17.5115  5.56199e-05  5.68072e-06      29.7049 
          50      17.6399   5.5704e-05  5.70976e-06      29.7047 
          50       17.769   5.5795e-05  5.72973e-06      29.7046 
          50      17.8984  5.58947e-05  5.74015e-06      29.7044 
          50      18.0284  5.60041e-05  5.74362e-06      29.7043 
          50      18.1587  5.61228e-05  5.74666e-06      29.7041 
          50      18.2896  5.62483e-05  5.76073e-06       29.704 
          50       18.421   5.6375e-05  5.80319e-06      29.7038 
          50      18.5528  5.64178e-05  5.76251e-06      29.7037 
          50      18.6851  5.64642e-05  5.69452e-06      29.7035 
          50      18.8178  5.65451e-05  5.65879e-06      29.7033 
          50      18.9511  5.66425e-05  5.65086e-06      29.7032 
          50      19.0847  5.67346e-05  5.65679e-06       29.703 
          50      19.2189  5.67965e-05  5.65187e-06      29.7028 
          50      19.3535  5.67995e-05  5.59937e-06      29.7027 
          50      19.4886   5.6712e-05   5.4491e-06      29.7025 
          50      19.6242  5.64994e-05  5.13624e-06      29.7023 
          50      19.7602  5.64618e-05  4.99205e-06      29.7021 
          50      19.8968  5.67671e-05  5.27696e-06       29.702 
          50      20.0337  5.68935e-05   5.3781e-06      29.7018 
          50      20.1712  5.69206e-05   5.3728e-06      29.7016 
          50      20.3091  5.69172e-05  5.32082e-06      29.7014 
          50      20.4475  5.69424e-05  5.26666e-06      29.7012 
          50      20.5864  5.70459e-05  5.24181e-06      29.7011 
          50      20.7257  5.72684e-05  5.26665e-06      29.7009 
          50      20.8655  5.73567e-05  5.36529e-06      29.7007 
          50      21.0058  5.72355e-05  5.49983e-06      29.7005 
          50      21.1465  5.71211e-05  5.63959e-06      29.7003 
          50      21.2877  5.70209e-05  5.77765e-06      29.7001 
          50      21.4294  5.69412e-05  5.90999e-06      29.6999 
          50      21.5716  5.68873e-05  6.03407e-06      29.6997 
          50      21.7142  5.68624e-05  6.14862e-06      29.6995 
          50      21.8573  5.68677e-05  6.25342e-06      29.6993 
          50      22.0008  5.69019e-05  6.34824e-06      29.6991 
          50      22.1449  5.69613e-05  6.43323e-06      29.6989 
          50      22.2893    5.704e-05  6.50807e-06      29.6987 
          50      22.4344  5.71301e-05   6.5724e-06      29.6985 
          50      22.5797  5.72225e-05  6.62536e-06      29.6983 
          50      22.7257  5.73072e-05  6.66612e-06      29.6981 
          50      22.8721  5.73748e-05   6.6938e-06      29.6979 
          50      23.0189  5.74171e-05  6.70802e-06      29.6977 
          50      23.1663  5.74295e-05  6.70946e-06      29.6974 
          50       23.314  5.74117e-05  6.70046e-06      29.6972 
          50      23.4623  5.73704e-05  6.68591e-06       29.697 
          50       23.611  5.73215e-05  6.67432e-06      29.6968 
          50      23.7602  5.72927e-05  6.67893e-06      29.6966 
          50        23.91  5.73264e-05  6.71928e-06      29.6963 
          50        24.06   5.7483e-05  6.82257e-06      29.6961 
          50      24.2107  5.78453e-05  7.02591e-06      29.6959 
          50      24.3617  5.78792e-05  6.95116e-06      29.6957 
          50      24.5133  5.77164e-05  6.83337e-06      29.6954 
          50      24.6653  5.76135e-05  6.82817e-06      29.6952 
          50      24.8178  5.75582e-05  6.88677e-06       29.695 
          50      24.9708  5.75398e-05  6.97258e-06      29.6947 
          50      25.1242  5.75488e-05  7.05943e-06      29.6945 
          50      25.2781  5.75767e-05  7.13033e-06      29.6942 
          50      25.4324  5.76164e-05   7.1755e-06       29.694 
          50      25.5873  5.76616e-05  7.19137e-06      29.6937 
          50      25.7426  5.77072e-05  7.17891e-06      29.6935 
          50      25.8984  5.77492e-05  7.14253e-06      29.6932 
          50      26.0546  5.77842e-05  7.08892e-06       29.693 
          50      26.2114  5.78101e-05   7.0258e-06      29.6927 
          50      26.3686  5.78252e-05   6.9612e-06      29.6925 
          50      26.5262  5.78289e-05  6.90253e-06      29.6922 
          50      26.6844  5.78213e-05  6.85572e-06       29.692 
          50      26.8429  5.78032e-05  6.82494e-06      29.6917 
          50       27.002  5.77759e-05  6.81191e-06      29.6914 
          50      27.1615  5.77416e-05  6.81587e-06      29.6912 
          50      27.3216  5.77028e-05  6.83336e-06      29.6909 
          50      27.4821  5.76629e-05  6.85836e-06      29.6906 
          50       27.643  5.76257e-05  6.88258e-06      29.6904 
          50      27.8044  5.75952e-05    6.896e-06      29.6901 
          50      27.9663  5.75764e-05  6.88753e-06      29.6898 
          50      28.1287  5.75745e-05  6.84599e-06      29.6895 
          50      28.2914   5.7595e-05  6.76138e-06      29.6893 
          50      28.4548  5.76443e-05  6.62605e-06       29.689 
          50      28.6185  5.77287e-05  6.43698e-06      29.6887 
          50      28.7828  5.78553e-05  6.19688e-06      29.6884 
          50      28.9475  5.80318e-05  5.91752e-06      29.6881 
          50      29.1126  5.82656e-05  5.62197e-06      29.6878 
          50      29.2784  5.83344e-05  5.52122e-06      29.6875 
          50      29.4444  5.82634e-05  5.78753e-06      29.6872 
          50       29.611  5.81501e-05   6.4092e-06      29.6869 
          50       29.778  5.79788e-05  7.12838e-06      29.6866 
          50      29.9456  5.78905e-05  6.41012e-06      29.6863 
          50      30.1137  5.78804e-05  6.00251e-06       29.686 
          50      30.2821  5.78796e-05  5.80897e-06      29.6857 
          50      30.4511  5.77785e-05  5.68941e-06      29.6854 
          50      30.6204  5.76693e-05  5.64361e-06      29.6851 
          50      30.7903  5.75627e-05  5.66215e-06      29.6848 
          50      30.9606  5.74676e-05  5.73356e-06      29.6845 
          50      31.1315  5.73903e-05  5.84527e-06      29.6842 
          50      31.3028  5.73352e-05  5.98401e-06      29.6839 
          50      31.4745  5.73047e-05  6.13665e-06      29.6835 
          50      31.6468  5.72997e-05  6.29118e-06      29.6832 
          50      31.8194  5.73192e-05  6.43646e-06      29.6829 
          50      31.9926  5.73609e-05  6.56355e-06      29.6826 
          50      32.1662  5.74212e-05  6.66517e-06      29.6822 
          50      32.3404  5.74959e-05  6.73675e-06      29.6819 
          50      32.5149  5.75793e-05  6.77593e-06      29.6816 
          50        32.69  5.76659e-05  6.78304e-06      29.6812 
          50      32.8655  5.77494e-05  6.76072e-06      29.6809 
          50      33.0414  5.78236e-05   6.7139e-06      29.6806 
          50       33.218  5.78826e-05  6.64928e-06      29.6802 
          50      33.3948   5.7921e-05  6.57509e-06      29.6799 
          50      33.5723  5.79344e-05  6.50011e-06      29.6795 
          50        33.75  5.79194e-05  6.43332e-06      29.6792 
          50      33.9284  5.78743e-05  6.38252e-06      29.6788 
          50      34.1073  5.77993e-05  6.35358e-06      29.6785 
          50      34.2865   5.7697e-05  6.34894e-06      29.6781 
          50      34.4663  5.75724e-05  6.36622e-06      29.6778 
          50      34.6465  5.74343e-05  6.39649e-06      29.6774 
          50      34.8272  5.72943e-05  6.42253e-06       29.677 
          50      35.0083  5.71688e-05  6.41663e-06      29.6767 
          50        35.19  5.70783e-05  6.33832e-06      29.6763 
          50      35.3721  5.70488e-05  6.13181e-06      29.6759 
          50      35.5546  5.72088e-05   6.0478e-06      29.6756 
          50      35.7377  5.74619e-05  6.15486e-06      29.6752 
          50      35.9211  5.76557e-05  6.17263e-06      29.6748 
          50      36.1052   5.7788e-05   6.1366e-06      29.6744 
          50      36.2895  5.78602e-05  6.07469e-06      29.6741 
          50      36.4745  5.78773e-05  6.00789e-06      29.6737 
          50      36.6598  5.78467e-05  5.95127e-06      29.6733 
          50      36.8457  5.77777e-05  5.91433e-06      29.6729 
          50      37.0321  5.76811e-05  5.90203e-06      29.6725 
          50      37.2188  5.75681e-05   5.9153e-06      29.6721 
          50      37.4062  5.74497e-05  5.95173e-06      29.6717 
          50      37.5938  5.73366e-05   6.0062e-06      29.6713 
          50      37.7821  5.72378e-05  6.07166e-06      29.6709 
          50      37.9707  5.71605e-05  6.13947e-06      29.6705 
          50      38.1599  5.71093e-05  6.20031e-06      29.6701 
          50      38.3496   5.7086e-05  6.24439e-06      29.6697 
          50      38.5396  5.70886e-05   6.2622e-06      29.6693 
          50      38.7302  5.71109e-05    6.245e-06      29.6689 
          50      38.9211  5.71422e-05   6.1852e-06      29.6685 
          50      39.1127   5.7167e-05   6.0767e-06      29.6681 
          50      39.3046  5.71639e-05  5.91564e-06      29.6677 
          50      39.4971   5.7106e-05  5.70008e-06      29.6672 
          50      39.6899  5.69602e-05  5.43128e-06      29.6668 
          50      39.8833  5.71802e-05  5.22745e-06      29.6664 
          50      40.0772  5.74015e-05  5.12364e-06       29.666 
          50      40.2714  5.74918e-05  5.10609e-06      29.6655 
          50      40.4663  5.74744e-05  5.17548e-06      29.6651 
          50      40.6615  5.73742e-05  5.32503e-06      29.6647 
          50      40.8573  5.72178e-05  5.54014e-06      29.6642 
          50      41.0534  5.70323e-05  5.79662e-06      29.6638 
          50      41.2501  5.68436e-05  6.06118e-06      29.6634 
          50      41.4473  5.66763e-05  6.28913e-06      29.6629 
          50      41.6448  5.65511e-05  6.42424e-06      29.6625 
          50      41.8429  5.64837e-05  6.39798e-06       29.662 
          50      42.0414  5.64828e-05  6.12815e-06      29.6616 
          50      42.2405  5.65483e-05  5.51738e-06      29.6611 
          50      42.4399  5.65128e-05  5.76923e-06      29.6607 
          50      42.6399  5.64325e-05  6.39495e-06      29.6602 
          50      42.8404  5.63987e-05  6.68605e-06      29.6598 
          50      43.0412  5.64013e-05  6.73682e-06      29.6593 
          50      43.2426  5.64289e-05  6.62765e-06      29.6588 
          50      43.4444  5.64699e-05  6.42594e-06      29.6584 
          50      43.6467  5.65127e-05   6.1865e-06      29.6579 
          50      43.8494  5.65464e-05  5.95355e-06      29.6574 
          50      44.0527  5.65617e-05  5.76025e-06       29.657 
          50      44.2563  5.65513e-05   5.6309e-06      29.6565 
          50      44.4606  5.65102e-05  5.58077e-06       29.656 
          50      44.6653  5.64365e-05  5.61782e-06      29.6555 
          50      44.8704  5.63318e-05  5.74297e-06       29.655 
          50       45.076  5.62009e-05  5.95163e-06      29.6546 
          50       45.282  5.60532e-05  6.23379e-06      29.6541 
          50      45.4886  5.60969e-05  6.08347e-06      29.6536 
          50      45.6955  5.61954e-05  5.83866e-06      29.6531 
          50       45.903  5.62815e-05  5.65323e-06      29.6526 
          50      46.1111  5.63529e-05  5.52076e-06      29.6521 
          50      46.3194  5.64083e-05  5.43446e-06      29.6516 
          50      46.5283  5.64474e-05  5.38715e-06      29.6511 
          50      46.7376  5.64707e-05  5.37174e-06      29.6506 
          50      46.9475  5.64792e-05  5.38105e-06      29.6501 
          50      47.1577  5.64747e-05  5.40799e-06      29.6496 
          50      47.3685   5.6459e-05  5.44579e-06      29.6491 
          50      47.5798  5.64346e-05  5.48798e-06      29.6486 
          50      47.7914  5.64039e-05  5.52867e-06       29.648 
          50      48.0037  5.63692e-05  5.56286e-06      29.6475 