Variables = x, y, u, v, p

Zone, I=800, F=POINT
         250            0           -0           -0      47.0693 
         250     0.000234  8.00848e-06 -4.30466e-12      47.0693 
         250     0.000939  3.01314e-05 -8.48809e-11      47.0693 
         250     0.002113  6.08303e-05 -4.44992e-10      47.0693 
         250     0.003759  9.27101e-05 -1.42749e-09      47.0693 
         250     0.005872  0.000118287 -3.51106e-09      47.0693 
         250     0.008457  0.000132364 -7.32665e-09      47.0693 
         250      0.01151  0.000133258 -1.36431e-08      47.0693 
         250     0.015036  0.000123325 -2.33986e-08      47.0693 
         250     0.019031  0.000108042 -3.76661e-08      47.0693 
         250     0.023493  9.39247e-05 -5.76708e-08      47.0693 
         250     0.028429   8.5835e-05 -8.48379e-08      47.0693 
         250     0.033831  8.47766e-05 -1.20666e-07      47.0693 
         250     0.039706  8.71578e-05 -1.66887e-07      47.0693 
         250     0.046047  8.66913e-05 -2.25262e-07      47.0693 
         250     0.052863  7.89232e-05 -2.97811e-07      47.0693 
         250      0.06015  6.66473e-05 -3.86538e-07      47.0693 
         250       0.0679  6.10658e-05 -4.93436e-07      47.0693 
         250     0.076126  6.82496e-05 -6.20838e-07      47.0693 
         250     0.084816  5.52748e-05 -7.70734e-07      47.0693 
         250     0.093982  5.54901e-05 -9.45477e-07      47.0693 
         250     0.103611  5.37175e-05 -1.14693e-06      47.0693 
         250     0.113718  5.12272e-05 -1.37742e-06      47.0693 
         250     0.124286  4.89342e-05 -1.63849e-06      47.0693 
         250     0.135333  4.73445e-05 -1.93232e-06      47.0693 
         250      0.14685  4.65963e-05 -2.26027e-06      47.0693 
         250     0.158827  4.65477e-05 -2.62339e-06      47.0693 
         250     0.171284  4.69323e-05 -3.02342e-06      47.0693 
         250     0.184201  4.75396e-05 -3.46061e-06      47.0693 
         250     0.197599  4.83688e-05 -3.93631e-06      47.0693 
         250     0.211455   4.9664e-05 -4.45009e-06      47.0693 
         250     0.225792  5.17193e-05 -5.00291e-06      47.0693 
         250       0.2406   5.4255e-05 -5.59424e-06      47.0693 
         250     0.255865   5.6309e-05 -6.22305e-06      47.0693 
         250     0.271613   5.9117e-05 -6.89004e-06      47.0693 
         250     0.287818  6.20298e-05 -7.59329e-06      47.0693 
         250     0.304506   6.5028e-05 -8.33286e-06      47.0693 
         250      0.32165  6.80765e-05 -9.10639e-06      47.0693 
         250     0.339278  7.11447e-05 -9.91393e-06      47.0693 
         250     0.357377  7.41907e-05 -1.07536e-05      47.0693 
         250      0.37593  7.71702e-05 -1.16234e-05      47.0693 
         250     0.394968  8.00461e-05 -1.25232e-05      47.0693 
         250     0.414461   8.2774e-05 -1.34505e-05      47.0693 
         250      0.43444   8.5322e-05 -1.44051e-05      47.0693 
         250     0.454872  8.76562e-05 -1.53842e-05      47.0693 
         250     0.475791  8.97579e-05  -1.6388e-05      47.0693 
         250     0.497163  9.16096e-05 -1.74134e-05      47.0693 
         250     0.519021  9.32075e-05 -1.84606e-05      47.0693 
         250      0.54135  9.45488e-05 -1.95276e-05      47.0693 
         250     0.564131  9.56317e-05 -2.06125e-05      47.0693 
         250       0.5874  9.64495e-05 -2.17159e-05      47.0693 
         250     0.611121  9.69792e-05 -2.28357e-05      47.0693 
         250      0.63533  9.72899e-05 -2.39706e-05      47.0693 
         250      0.65999  9.73567e-05 -2.51164e-05      47.0693 
         250     0.685139  9.72031e-05  -2.6274e-05      47.0693 
         250     0.710759  9.68551e-05 -2.74415e-05      47.0693 
         250     0.736828  9.63418e-05 -2.86166e-05      47.0693 
         250     0.763387  9.56933e-05 -2.97996e-05      47.0693 
         250     0.790396  9.49428e-05 -3.09867e-05      47.0693 
         250     0.817896  9.41227e-05 -3.21779e-05      47.0693 
         250     0.845843  9.32681e-05  -3.3369e-05      47.0693 
         250     0.874283  9.24115e-05 -3.45596e-05      47.0693 
         250      0.90317  9.15871e-05 -3.57455e-05      47.0693 
         250     0.932551  9.08248e-05 -3.69261e-05      47.0693 
         250     0.962401  9.01543e-05 -3.80981e-05      47.0693 
         250     0.992697  8.96019e-05 -3.92584e-05      47.0693 
         250      1.02349  8.91887e-05 -4.04066e-05      47.0693 
         250      1.05472   8.8933e-05 -4.15392e-05      47.0693 
         250      1.08645  8.88468e-05 -4.26561e-05      47.0693 
         250      1.11863  8.89373e-05 -4.37543e-05      47.0693 
         250       1.1513  8.92058e-05 -4.48344e-05      47.0693 
         250      1.18444  8.96474e-05 -4.58946e-05      47.0693 
         250      1.21802   9.0251e-05 -4.69335e-05      47.0693 
         250      1.25211  9.10015e-05 -4.79524e-05      47.0693 
         250      1.28663  9.18772e-05 -4.89492e-05      47.0693 
         250      1.32165  9.28559e-05 -4.99248e-05      47.0693 
         250      1.35712   9.3911e-05 -5.08767e-05      47.0693 
         250      1.39308  9.50201e-05 -5.18048e-05      47.0693 
         250      1.42951  9.61629e-05 -5.27056e-05      47.0693 
         250      1.46638  9.73274e-05 -5.35737e-05      47.0693 
         250      1.50375  9.85176e-05 -5.44041e-05      47.0693 
         250      1.54156  9.97836e-05  -5.5225e-05      47.0693 
         250      1.57987  0.000101017 -5.60223e-05      47.0693 
         250      1.61863  0.000102216 -5.67908e-05      47.0693 
         250      1.65788  0.000103388 -5.75299e-05      47.0693 
         250      1.69757  0.000104535 -5.82364e-05      47.0693 
         250      1.73776  0.000105663   -5.891e-05      47.0693 
         250      1.77842  0.000106776 -5.95485e-05      47.0693 
         250      1.81952  0.000107874 -6.01502e-05      47.0693 
         250      1.86113  0.000108961 -6.07147e-05      47.0693 
         250      1.90316  0.000110037 -6.12402e-05      47.0693 
         250      1.94571  0.000111104 -6.17265e-05      47.0693 
         250      1.98869  0.000112161 -6.21721e-05      47.0693 
         250      2.03217  0.000113208 -6.25771e-05      47.0693 
         250      2.07612  0.000114243 -6.29406e-05      47.0693 
         250      2.12051  0.000115263  -6.3262e-05      47.0693 
         250       2.1654  0.000116267 -6.35417e-05      47.0693 
         250      2.21073  0.000117251  -6.3779e-05      47.0693 
         250      2.25656  0.000118213 -6.39743e-05      47.0693 
         250      2.30283  0.000119146 -6.41274e-05      47.0693 
         250       2.3496  0.000120049 -6.42387e-05      47.0693 
         250      2.39685  0.000120915 -6.43084e-05      47.0693 
         250      2.44452   0.00012174 -6.43368e-05      47.0693 
         250      2.49271  0.000122521 -6.43243e-05      47.0693 
         250      2.54132   0.00012325 -6.42715e-05      47.0693 
         250      2.59044  0.000123925 -6.41787e-05      47.0693 
         250         2.64  0.000124541 -6.40466e-05      47.0693 
         250      2.69006  0.000125094 -6.38757e-05      47.0693 
         250      2.74056   0.00012558 -6.36666e-05      47.0693 
         250      2.79156  0.000125997 -6.34198e-05      47.0693 
         250      2.84304  0.000126343  -6.3136e-05      47.0693 
         250      2.89494  0.000126616 -6.28162e-05      47.0693 
         250      2.94735  0.000126816 -6.24606e-05      47.0693 
         250       3.0002  0.000126944 -6.20704e-05      47.0693 
         250      3.05355  0.000127002 -6.16459e-05      47.0693 
         250      3.10733  0.000126993 -6.11887e-05      47.0693 
         250      3.16163  0.000126922 -6.06991e-05      47.0693 
         250      3.21639  0.000126794 -6.01786e-05      47.0693 
         250      3.27158  0.000126618  -5.9629e-05      47.0693 
         250      3.32729  0.000126401 -5.90513e-05      47.0693 
         250      3.38342  0.000126155 -5.84483e-05      47.0693 
         250      3.44007   0.00012589 -5.78215e-05      47.0693 
         250      3.49714  0.000125621 -5.71748e-05      47.0693 
         250      3.55472  0.000125361 -5.65109e-05      47.0693 
         250      3.61273  0.000125126 -5.58351e-05      47.0693 
         250      3.67125  0.000124931 -5.51515e-05      47.0693 
         250      3.73025  0.000124795 -5.44671e-05      47.0693 
         250      3.78967    0.0001247 -5.37083e-05      47.0693 
         250      3.84961  0.000124596 -5.29396e-05      47.0693 
         250      3.90996  0.000124488  -5.2195e-05      47.0693 
         250      3.97084   0.00012438 -5.14634e-05      47.0693 
         250      4.03214  0.000124274   -5.074e-05      47.0693 
         250      4.09395  0.000124171 -5.00205e-05      47.0693 
         250      4.15624   0.00012407 -4.93048e-05      47.0693 
         250      4.21895  0.000123972 -4.85947e-05      47.0693 
         250      4.28217  0.000123875 -4.78915e-05      47.0693 
         250      4.34582  0.000123779 -4.71993e-05      47.0693 
         250      4.40998  0.000123682 -4.65204e-05      47.0693 
         250      4.47457  0.000123583 -4.58586e-05      47.0693 
         250      4.53968  0.000123482 -4.52152e-05      47.0693 
         250      4.60525  0.000123377 -4.45917e-05      47.0693 
         250      4.67125  0.000123268 -4.39883e-05      47.0693 
         250      4.73777  0.000123156 -4.34023e-05      47.0693 
         250       4.8047  0.000123041 -4.28314e-05      47.0693 
         250      4.87216  0.000122924 -4.22704e-05      47.0693 
         250      4.94003  0.000122807 -4.17144e-05      47.0693 
         250      5.00843  0.000122691 -4.11569e-05      47.0693 
         250      5.07724  0.000122579 -4.05931e-05      47.0693 
         250      5.14658   0.00012247 -4.00178e-05      47.0693 
         250      5.21639  0.000122367 -3.94298e-05      47.0693 
         250      5.28661   0.00012228 -3.89472e-05      47.0693 
         250      5.35736  0.000122217 -3.84777e-05      47.0693 
         250      5.42852  0.000122194 -3.79169e-05      47.0693 
         250      5.50021   0.00012219 -3.73567e-05      47.0693 
         250      5.57231  0.000122139 -3.69365e-05      47.0693 
         250      5.64493  0.000122096 -3.64991e-05      47.0693 
         250      5.71803   0.00012207 -3.60573e-05      47.0693 
         250      5.79154  0.000122048 -3.55564e-05      47.0693 
         250      5.86558  0.000122013 -3.49941e-05      47.0693 
         250      5.94003  0.000121982 -3.44643e-05      47.0693 
         250      6.01501  0.000121956  -3.3966e-05      47.0693 
         250       6.0904  0.000121938 -3.34969e-05      47.0693 
         250      6.16632   0.00012193 -3.30508e-05      47.0693 
         250      6.24271  0.000121934 -3.26217e-05      47.0693 
         250       6.3195  0.000121952 -3.22033e-05      47.0692 
         250      6.39683  0.000121984 -3.17889e-05      47.0692 
         250      6.47457  0.000122026 -3.13739e-05      47.0692 
         250      6.55284  0.000122077 -3.09544e-05      47.0692 
         250      6.63152  0.000122132 -3.05295e-05      47.0692 
         250      6.71073  0.000122186 -3.00988e-05      47.0692 
         250      6.79034  0.000122233 -2.96653e-05      47.0692 
         250      6.87049   0.00012227 -2.92318e-05      47.0692 
         250      6.95111  0.000122296 -2.88029e-05      47.0692 
         250      7.03214  0.000122313 -2.83828e-05      47.0692 
         250       7.1137  0.000122331 -2.79728e-05      47.0692 
         250      7.19566  0.000122369 -2.75721e-05      47.0692 
         250      7.27816  0.000122459 -2.71726e-05      47.0692 
         250      7.36106  0.000122537 -2.67898e-05      47.0692 
         250      7.44451  0.000122572 -2.64091e-05      47.0692 
         250      7.52842  0.000122631 -2.60175e-05      47.0692 
         250      7.61273  0.000122707 -2.56274e-05      47.0692 
         250      7.69758   0.00012279  -2.5245e-05      47.0692 
         250      7.78283  0.000122877  -2.4874e-05      47.0692 
         250      7.86862  0.000122964 -2.45139e-05      47.0692 
         250      7.95481   0.00012305 -2.41633e-05      47.0692 
         250      8.04155  0.000123135 -2.38186e-05      47.0692 
         250      8.12868  0.000123218 -2.34772e-05      47.0692 
         250      8.21635    0.0001233 -2.31354e-05      47.0692 
         250      8.30449  0.000123381 -2.27915e-05      47.0692 
         250      8.39303  0.000123461 -2.24448e-05      47.0692 
         250      8.48211  0.000123537 -2.20954e-05      47.0692 
         250      8.57159  0.000123608 -2.17458e-05      47.0692 
         250      8.66161  0.000123668 -2.13988e-05      47.0692 
         250      8.75203   0.00012371 -2.10591e-05      47.0692 
         250      8.84299  0.000123746 -2.07078e-05      47.0692 
         250      8.93443  0.000123809 -2.03359e-05      47.0692 
         250      9.02626  0.000123847 -2.00178e-05      47.0692 
         250      9.11863  0.000123876 -1.97516e-05      47.0692 
         250      9.21139  0.000123909 -1.95268e-05      47.0692 
         250      9.30471  0.000123959 -1.93177e-05      47.0692 
         250      9.39841  0.000124032 -1.90794e-05      47.0692 
         250      9.49267  0.000124123 -1.87388e-05      47.0692 
         250      9.58739  0.000124205 -1.81882e-05      47.0692 
         250      9.68251   0.00012433 -1.79006e-05      47.0692 
         250      9.77817  0.000124448  -1.7817e-05      47.0692 
         250      9.87422  0.000124512 -1.76566e-05      47.0692 
         250      9.97083  0.000124532 -1.74287e-05      47.0692 
         250      10.0678  0.000124521 -1.71425e-05      47.0692 
         250      10.1654  0.000124545 -1.68351e-05      47.0692 
         250      10.2633  0.000124727 -1.66061e-05      47.0692 
         250      10.3618  0.000124856 -1.63523e-05      47.0692 
         250      10.4607  0.000124946 -1.60832e-05      47.0692 
         250      10.5601   0.00012501 -1.58065e-05      47.0692 
         250        10.66  0.000125057 -1.55279e-05      47.0692 
         250      10.7603  0.000125095 -1.52524e-05      47.0692 
         250      10.8611  0.000125132 -1.49829e-05      47.0692 
         250      10.9623  0.000125172 -1.47221e-05      47.0692 
         250      11.0641  0.000125219 -1.44709e-05      47.0692 
         250      11.1663  0.000125274 -1.42297e-05      47.0692 
         250       11.269  0.000125338 -1.39984e-05      47.0692 
         250      11.3721  0.000125412 -1.37758e-05      47.0692 
         250      11.4757  0.000125493 -1.35608e-05      47.0692 
         250      11.5798  0.000125581 -1.33516e-05      47.0692 
         250      11.6844  0.000125672 -1.31465e-05      47.0692 
         250      11.7894  0.000125764 -1.29436e-05      47.0692 
         250       11.895  0.000125853 -1.27413e-05      47.0692 
         250      12.0009  0.000125938 -1.25383e-05      47.0692 
         250      12.1073  0.000126015 -1.23333e-05      47.0692 
         250      12.2142  0.000126083 -1.21261e-05      47.0692 
         250      12.3216  0.000126139 -1.19165e-05      47.0692 
         250      12.4294  0.000126184 -1.17057e-05      47.0692 
         250      12.5378  0.000126219  -1.1495e-05      47.0692 
         250      12.6465  0.000126246 -1.12873e-05      47.0692 
         250      12.7558  0.000126268 -1.10859e-05      47.0692 
         250      12.8656  0.000126293 -1.08956e-05      47.0692 
         250      12.9757  0.000126329 -1.07224e-05      47.0691 
         250      13.0864  0.000126387 -1.05731e-05      47.0691 
         250      13.1975  0.000126481 -1.04558e-05      47.0691 
         250      13.3092  0.000126494 -1.02097e-05      47.0691 
         250      13.4212  0.000126489   -9.731e-06      47.0691 
         250      13.5338  0.000126606 -9.24546e-06      47.0691 
         250      13.6468  0.000126587  -9.3156e-06      47.0691 
         250      13.7603   0.00012661 -9.29743e-06      47.0691 
         250      13.8743   0.00012667 -9.20784e-06      47.0691 
         250      13.9886   0.00012676  -9.0648e-06      47.0691 
         250      14.1036  0.000126867 -8.88562e-06      47.0691 
         250      14.2189  0.000126981  -8.6868e-06      47.0691 
         250      14.3348   0.00012709 -8.48203e-06      47.0691 
         250       14.451  0.000127184 -8.28275e-06      47.0691 
         250      14.5678  0.000127255 -8.09638e-06      47.0691 
         250      14.6851    0.0001273 -7.92719e-06      47.0691 
         250      14.8028  0.000127316 -7.77575e-06      47.0691 
         250       14.921  0.000127307  -7.6389e-06      47.0691 
         250      15.0396   0.00012728 -7.51109e-06      47.0691 
         250      15.1588  0.000127243 -7.38439e-06      47.0691 
         250      15.2783  0.000127207 -7.25054e-06      47.0691 
         250      15.3984  0.000127185 -7.10165e-06      47.0691 
         250       15.519  0.000127186 -6.93291e-06      47.0691 
         250        15.64  0.000127218 -6.74475e-06      47.0691 
         250      15.7615   0.00012728 -6.54508e-06      47.0691 
         250      15.8834  0.000127364 -6.35371e-06      47.0691 
         250      16.0058  0.000127447 -6.20492e-06      47.0691 
         250      16.1286  0.000127487 -6.15289e-06      47.0691 
         250       16.252   0.00012742 -6.27587e-06      47.0691 
         250      16.3759  0.000127372 -5.88394e-06      47.0691 
         250      16.5002  0.000127364 -5.64648e-06      47.0691 
         250       16.625  0.000127384 -5.52106e-06      47.0691 
         250      16.7501  0.000127425 -5.45062e-06      47.0691 
         250      16.8759  0.000127476  -5.3925e-06      47.0691 
         250       17.002   0.00012753 -5.31931e-06      47.0691 
         250      17.1287  0.000127579 -5.21786e-06       47.069 
         250      17.2557   0.00012762 -5.08816e-06       47.069 
         250      17.3834  0.000127651  -4.9404e-06       47.069 
         250      17.5115  0.000127675 -4.79221e-06       47.069 
         250      17.6399  0.000127695 -4.66384e-06       47.069 
         250       17.769  0.000127718 -4.57223e-06       47.069 
         250      17.8984  0.000127752 -4.52476e-06       47.069 
         250      18.0284  0.000127805 -4.51056e-06       47.069 
         250      18.1587  0.000127885 -4.49127e-06       47.069 
         250      18.2896  0.000127996 -4.38977e-06       47.069 
         250       18.421  0.000128136  -4.0777e-06       47.069 
         250      18.5528  0.000128101 -4.03274e-06       47.069 
         250      18.6851  0.000127993 -4.10519e-06       47.069 
         250      18.8178  0.000127901 -4.10352e-06       47.069 
         250      18.9511  0.000127835 -4.04063e-06       47.069 
         250      19.0847  0.000127808 -3.92894e-06       47.069 
         250      19.2189   0.00012783  -3.7802e-06       47.069 
         250      19.3535  0.000127912 -3.60643e-06       47.069 
         250      19.4886  0.000128064 -3.41918e-06       47.069 
         250      19.6242  0.000128292 -3.23073e-06       47.069 
         250      19.7602  0.000128439 -3.04512e-06       47.069 
         250      19.8968  0.000128369  -2.8871e-06       47.069 
         250      20.0337  0.000128301 -2.79053e-06       47.069 
         250      20.1712  0.000128234 -2.74827e-06       47.069 
         250      20.3091  0.000128178 -2.73948e-06       47.069 
         250      20.4475  0.000128139 -2.73897e-06      47.0689 
         250      20.5864  0.000128124 -2.72486e-06      47.0689 
         250      20.7257  0.000128135 -2.68391e-06      47.0689 
         250      20.8655  0.000128169 -2.61401e-06      47.0689 
         250      21.0058  0.000128213 -2.52452e-06      47.0689 
         250      21.1465  0.000128255 -2.43289e-06      47.0689 
         250      21.2877  0.000128278  -2.3592e-06      47.0689 
         250      21.4294  0.000128271 -2.31626e-06      47.0689 
         250      21.5716  0.000128232 -2.29718e-06      47.0689 
         250      21.7142  0.000128177 -2.25844e-06      47.0689 
         250      21.8573  0.000128153 -2.09916e-06      47.0689 
         250      22.0008  0.000128156 -1.91876e-06      47.0689 
         250      22.1449  0.000128123 -1.92902e-06      47.0689 
         250      22.2893  0.000128116 -1.91067e-06      47.0689 
         250      22.4344  0.000128125 -1.87002e-06      47.0689 
         250      22.5797  0.000128145 -1.81188e-06      47.0689 
         250      22.7257   0.00012817 -1.73964e-06      47.0689 
         250      22.8721  0.000128197 -1.65598e-06      47.0689 
         250      23.0189  0.000128221 -1.56312e-06      47.0689 
         250      23.1663  0.000128239 -1.46297e-06      47.0689 
         250       23.314  0.000128248 -1.35805e-06      47.0688 
         250      23.4623  0.000128246 -1.25129e-06      47.0688 
         250       23.611  0.000128232  -1.1471e-06      47.0688 
         250      23.7602  0.000128201 -1.05116e-06      47.0688 
         250        23.91  0.000128153 -9.71451e-07      47.0688 
         250        24.06  0.000128085 -9.18378e-07      47.0688 
         250      24.2107  0.000128137 -9.30226e-07      47.0688 
         250      24.3617  0.000128229 -9.73983e-07      47.0688 
         250      24.5133  0.000128299 -1.02797e-06      47.0688 
         250      24.6653  0.000128349 -1.08618e-06      47.0688 
         250      24.8178  0.000128381 -1.14383e-06      47.0688 
         250      24.9708  0.000128398 -1.19695e-06      47.0688 
         250      25.1242  0.000128402 -1.24254e-06      47.0688 
         250      25.2781  0.000128396 -1.27866e-06      47.0688 
         250      25.4324  0.000128383 -1.30404e-06      47.0688 
         250      25.5873  0.000128364 -1.31835e-06      47.0688 
         250      25.7426  0.000128342 -1.32189e-06      47.0688 
         250      25.8984   0.00012832 -1.31563e-06      47.0687 
         250      26.0546  0.000128298  -1.3011e-06      47.0687 
         250      26.2114  0.000128278 -1.28019e-06      47.0687 
         250      26.3686  0.000128261 -1.25517e-06      47.0687 
         250      26.5262  0.000128248  -1.2285e-06      47.0687 
         250      26.6844  0.000128239 -1.20257e-06      47.0687 
         250      26.8429  0.000128233 -1.17977e-06      47.0687 
         250       27.002   0.00012823 -1.16206e-06      47.0687 
         250      27.1615  0.000128228 -1.15099e-06      47.0687 
         250      27.3216  0.000128225 -1.14734e-06      47.0687 
         250      27.4821  0.000128221   -1.151e-06      47.0687 
         250       27.643  0.000128211 -1.16065e-06      47.0687 
         250      27.8044  0.000128193 -1.17357e-06      47.0687 
         250      27.9663  0.000128164 -1.18526e-06      47.0687 
         250      28.1287  0.000128121 -1.18927e-06      47.0687 
         250      28.2914   0.00012806 -1.17679e-06      47.0686 
         250      28.4548  0.000127978 -1.13629e-06      47.0686 
         250      28.6185  0.000128007 -1.11574e-06      47.0686 
         250      28.7828  0.000128125 -1.13877e-06      47.0686 
         250      28.9475  0.000128191 -1.15349e-06      47.0686 
         250      29.1126  0.000128222 -1.16281e-06      47.0686 
         250      29.2784  0.000128228 -1.16878e-06      47.0686 
         250      29.4444  0.000128219 -1.17275e-06      47.0686 
         250       29.611  0.000128202 -1.17551e-06      47.0686 
         250       29.778  0.000128183 -1.17746e-06      47.0686 
         250      29.9456  0.000128167 -1.17868e-06      47.0686 
         250      30.1137  0.000128155 -1.17909e-06      47.0686 
         250      30.2821   0.00012815 -1.17852e-06      47.0686 
         250      30.4511   0.00012815 -1.17682e-06      47.0686 
         250      30.6204  0.000128156 -1.17391e-06      47.0685 
         250      30.7903  0.000128166 -1.16982e-06      47.0685 
         250      30.9606  0.000128178 -1.16475e-06      47.0685 
         250      31.1315   0.00012819 -1.15908e-06      47.0685 
         250      31.3028    0.0001282 -1.15335e-06      47.0685 
         250      31.4745  0.000128205 -1.14825e-06      47.0685 
         250      31.6468  0.000128204 -1.14457e-06      47.0685 
         250      31.8194  0.000128196 -1.14312e-06      47.0685 
         250      31.9926   0.00012818 -1.14464e-06      47.0685 
         250      32.1662  0.000128156 -1.14966e-06      47.0685 
         250      32.3404  0.000128127 -1.15841e-06      47.0685 
         250      32.5149  0.000128096 -1.17053e-06      47.0685 
         250        32.69  0.000128067 -1.18499e-06      47.0684 
         250      32.8655  0.000128048 -1.19974e-06      47.0684 
         250      33.0414  0.000128047 -1.21149e-06      47.0684 
         250       33.218  0.000128073 -1.22824e-06      47.0684 
         250      33.3948  0.000128099 -1.26594e-06      47.0684 
         250      33.5723  0.000128116 -1.27658e-06      47.0684 
         250        33.75  0.000128121 -1.26344e-06      47.0684 
         250      33.9284  0.000128112 -1.22969e-06      47.0684 
         250      34.1073  0.000128086 -1.17852e-06      47.0684 
         250      34.2865  0.000128043 -1.11326e-06      47.0684 
         250      34.4663  0.000127983 -1.03722e-06      47.0684 
         250      34.6465  0.000127908 -9.54318e-07      47.0683 
         250      34.8272  0.000127824 -8.68732e-07      47.0683 
         250      35.0083  0.000127737   -7.857e-07      47.0683 
         250        35.19  0.000127656 -7.11248e-07      47.0683 
         250      35.3721  0.000127597 -6.52992e-07      47.0683 
         250      35.5546  0.000127575 -6.20249e-07      47.0683 
         250      35.7377  0.000127612 -6.24436e-07      47.0683 
         250      35.9211  0.000127736 -6.79645e-07      47.0683 
         250      36.1052  0.000127977 -8.03242e-07      47.0683 
         250      36.2895  0.000128332 -9.75282e-07      47.0683 
         250      36.4745  0.000128288 -7.75325e-07      47.0682 
         250      36.6598  0.000128237 -6.50154e-07      47.0682 
         250      36.8457  0.000128182 -5.81577e-07      47.0682 
         250      37.0321  0.000128128 -5.54386e-07      47.0682 
         250      37.2188  0.000128077 -5.55688e-07      47.0682 
         250      37.4062  0.000128031 -5.74855e-07      47.0682 
         250      37.5938   0.00012799 -6.03274e-07      47.0682 
         250      37.7821  0.000127955 -6.34238e-07      47.0682 
         250      37.9707  0.000127927 -6.62591e-07      47.0682 
         250      38.1599  0.000127904 -6.84717e-07      47.0682 
         250      38.3496  0.000127887 -6.98198e-07      47.0681 
         250      38.5396  0.000127874 -7.01727e-07      47.0681 
         250      38.7302  0.000127865 -6.94917e-07      47.0681 
         250      38.9211  0.000127858 -6.78138e-07      47.0681 
         250      39.1127  0.000127852 -6.52317e-07      47.0681 
         250      39.3046  0.000127847 -6.18895e-07      47.0681 
         250      39.4971  0.000127842 -5.79528e-07      47.0681 
         250      39.6899  0.000127835  -5.3617e-07      47.0681 
         250      39.8833  0.000127827  -4.9071e-07      47.0681 
         250      40.0772  0.000127816   -4.451e-07       47.068 
         250      40.2714  0.000127803  -4.0116e-07       47.068 
         250      40.4663  0.000127788 -3.60393e-07       47.068 
         250      40.6615   0.00012777 -3.24158e-07       47.068 
         250      40.8573  0.000127751 -2.93365e-07       47.068 
         250      41.0534  0.000127731 -2.68664e-07       47.068 
         250      41.2501  0.000127711 -2.50238e-07       47.068 
         250      41.4473  0.000127692 -2.37943e-07       47.068 
         250      41.6448  0.000127675  -2.3125e-07       47.068 
         250      41.8429  0.000127662 -2.29284e-07      47.0679 
         250      42.0414  0.000127652 -2.30909e-07      47.0679 
         250      42.2405  0.000127647 -2.34784e-07      47.0679 
         250      42.4399  0.000127648 -2.39461e-07      47.0679 
         250      42.6399  0.000127655 -2.43523e-07      47.0679 
         250      42.8404  0.000127667 -2.45705e-07      47.0679 
         250      43.0412  0.000127685 -2.45083e-07      47.0679 
         250      43.2426  0.000127705 -2.41263e-07      47.0679 
         250      43.4444  0.000127725 -2.34609e-07      47.0678 
         250      43.6467  0.000127742 -2.26476e-07      47.0678 
         250      43.8494   0.00012775 -2.19528e-07      47.0678 
         250      44.0527  0.000127743 -2.18003e-07      47.0678 
         250      44.2563   0.00012771 -2.28089e-07      47.0678 
         250      44.4606  0.000127642 -2.58312e-07      47.0678 
         250      44.6653  0.000127524 -3.19914e-07      47.0678 
         250      44.8704  0.000127522 -3.99593e-07      47.0678 
         250       45.076  0.000127589 -4.51487e-07      47.0677 
         250       45.282  0.000127693 -4.66232e-07      47.0677 
         250      45.4886  0.000127837 -4.36075e-07      47.0677 
         250      45.6955  0.000128025 -3.54411e-07      47.0677 
         250       45.903  0.000128256 -2.15665e-07      47.0677 
         250      46.1111  0.000128382 -1.31516e-07      47.0677 
         250      46.3194  0.000128235 -2.42453e-07      47.0677 
         250      46.5283  0.000128102 -3.28976e-07      47.0676 
         250      46.7376  0.000127986 -3.94831e-07      47.0676 
         250      46.9475  0.000127886 -4.43532e-07      47.0676 
         250      47.1577    0.0001278 -4.77966e-07      47.0676 
         250      47.3685  0.000127729 -5.00753e-07      47.0676 
         250      47.5798  0.000127672 -5.14061e-07      47.0676 
         250      47.7914  0.000127626 -5.19761e-07      47.0676 
         250      48.0037  0.000127591 -5.19435e-07      47.0676 