Variables = x, y, u, v, p

Zone, I=800, F=POINT
         600            0           -0           -0       5.6993 
         600     0.000234  1.12456e-06 -4.04111e-11       5.6993 
         600     0.000939  4.46578e-06 -6.47703e-10       5.6993 
         600     0.002113  9.88353e-06 -3.26761e-09       5.6993 
         600     0.003759  1.72047e-05  -1.0293e-08       5.6993 
         600     0.005872  2.62049e-05 -2.49699e-08       5.6993 
         600     0.008457  3.67328e-05 -5.14252e-08       5.6993 
         600      0.01151  4.86677e-05 -9.44571e-08       5.6993 
         600     0.015036  6.20196e-05 -1.59632e-07       5.6993 
         600     0.019031  7.68623e-05 -2.52916e-07       5.6993 
         600     0.023493  9.33576e-05 -3.80677e-07       5.6993 
         600     0.028429  0.000111739 -5.49848e-07       5.6993 
         600     0.033831  0.000132167 -7.67022e-07       5.6993 
         600     0.039706  0.000154793 -1.03933e-06       5.6993 
         600     0.046047  0.000179611 -1.37316e-06       5.6993 
         600     0.052863  0.000206583 -1.77538e-06       5.6993 
         600      0.06015  0.000235579 -2.25178e-06       5.6993 
         600       0.0679  0.000266506 -2.80716e-06       5.6993 
         600     0.076126  0.000299522 -3.44709e-06       5.6993 
         600     0.084816  0.000334672  -4.1745e-06       5.6993 
         600     0.093982  0.000370915 -4.99327e-06       5.6993 
         600     0.103611  0.000408694 -5.90416e-06       5.6993 
         600     0.113718  0.000447784 -6.90946e-06       5.6993 
         600     0.124286  0.000487834 -8.00725e-06       5.6993 
         600     0.135333  0.000528629 -9.19806e-06       5.6993 
         600      0.14685  0.000569856 -1.04785e-05       5.6993 
         600     0.158827  0.000611207  -1.1844e-05       5.6993 
         600     0.171284  0.000652474 -1.32924e-05       5.6993 
         600     0.184201  0.000693308 -1.48159e-05       5.6993 
         600     0.197599   0.00073348  -1.6411e-05       5.6993 
         600     0.211455  0.000772621 -1.80682e-05       5.6993 
         600     0.225792  0.000810514 -1.97827e-05       5.6993 
         600       0.2406  0.000846908 -2.15457e-05       5.6993 
         600     0.255865  0.000881625 -2.33474e-05       5.6993 
         600     0.271613  0.000914435 -2.51833e-05       5.6993 
         600     0.287818  0.000945176 -2.70422e-05       5.6993 
         600     0.304506  0.000973781 -2.89191e-05       5.6993 
         600      0.32165   0.00100011 -3.08037e-05       5.6993 
         600     0.339278   0.00102416 -3.26921e-05       5.6993 
         600     0.357377   0.00104587 -3.45765e-05       5.6993 
         600      0.37593   0.00106523 -3.64496e-05       5.6993 
         600     0.394968   0.00108232 -3.83098e-05       5.6993 
         600     0.414461   0.00109716 -4.01503e-05       5.6993 
         600      0.43444   0.00110985 -4.19709e-05       5.6993 
         600     0.454872   0.00112047 -4.37663e-05       5.6993 
         600     0.475791   0.00112916 -4.55381e-05       5.6993 
         600     0.497163   0.00113601 -4.72829e-05       5.6993 
         600     0.519021   0.00114115 -4.90038e-05       5.6993 
         600      0.54135    0.0011447 -5.07007e-05       5.6993 
         600     0.564131   0.00114677 -5.23747e-05       5.6993 
         600       0.5874   0.00114748 -5.40322e-05       5.6993 
         600     0.611121   0.00114693 -5.56762e-05       5.6993 
         600      0.63533   0.00114517 -5.73103e-05       5.6993 
         600      0.65999   0.00114237  -5.8932e-05       5.6993 
         600     0.685139   0.00113855 -6.05515e-05       5.6993 
         600     0.710759   0.00113374  -6.2175e-05       5.6993 
         600     0.736828   0.00112795 -6.38081e-05       5.6993 
         600     0.763387    0.0011212 -6.54602e-05       5.6993 
         600     0.790396   0.00111348 -6.71348e-05       5.6993 
         600     0.817896   0.00110478 -6.88402e-05       5.6993 
         600     0.845843   0.00109509 -7.05787e-05       5.6993 
         600     0.874283   0.00108439 -7.23577e-05       5.6993 
         600      0.90317   0.00107268  -7.4178e-05       5.6993 
         600     0.932551   0.00105991 -7.60458e-05       5.6993 
         600     0.962401   0.00104609 -7.79619e-05       5.6993 
         600     0.992697   0.00103123 -7.99265e-05       5.6993 
         600      1.02349    0.0010153 -8.19439e-05       5.6993 
         600      1.05472  0.000998364 -8.40109e-05       5.6993 
         600      1.08645  0.000980416 -8.61305e-05       5.6993 
         600      1.11863  0.000961542  -8.8298e-05       5.6993 
         600       1.1513  0.000941782 -9.05148e-05       5.6993 
         600      1.18444  0.000921245 -9.27763e-05       5.6993 
         600      1.21802  0.000900059 -9.50767e-05       5.6993 
         600      1.25211  0.000878318 -9.74151e-05       5.6993 
         600      1.28663    0.0008562 -9.97812e-05       5.6993 
         600      1.32165  0.000833817 -0.000102172       5.6993 
         600      1.35712  0.000811355 -0.000104573       5.6993 
         600      1.39308  0.000788912 -0.000106979       5.6993 
         600      1.42951  0.000766609 -0.000109372       5.6993 
         600      1.46638  0.000744518 -0.000111735       5.6993 
         600      1.50375  0.000722582  -0.00011405       5.6993 
         600      1.54156  0.000700745 -0.000116412       5.6993 
         600      1.57987  0.000679434 -0.000118736       5.6993 
         600      1.61863  0.000658608 -0.000121013      5.69929 
         600      1.65788  0.000638144 -0.000123244      5.69929 
         600      1.69757  0.000617993 -0.000125427      5.69929 
         600      1.73776  0.000598045 -0.000127565      5.69929 
         600      1.77842  0.000578244 -0.000129654      5.69929 
         600      1.81952  0.000558542 -0.000131693      5.69929 
         600      1.86113   0.00053885 -0.000133684      5.69929 
         600      1.90316   0.00051915 -0.000135623      5.69929 
         600      1.94571  0.000499368 -0.000137511      5.69929 
         600      1.98869    0.0004795 -0.000139345      5.69929 
         600      2.03217  0.000459486 -0.000141124      5.69929 
         600      2.07612  0.000439322 -0.000142847      5.69929 
         600      2.12051  0.000419012 -0.000144509      5.69929 
         600       2.1654  0.000398516 -0.000146113      5.69929 
         600      2.21073   0.00037787 -0.000147652      5.69929 
         600      2.25656  0.000357046 -0.000149127      5.69928 
         600      2.30283  0.000336092 -0.000150535      5.69928 
         600       2.3496  0.000314994 -0.000151874      5.69928 
         600      2.39685  0.000293791 -0.000153143      5.69928 
         600      2.44452  0.000272531 -0.000154337      5.69928 
         600      2.49271   0.00025121 -0.000155457      5.69928 
         600      2.54132    0.0002299 -0.000156499      5.69928 
         600      2.59044  0.000208603 -0.000157464      5.69927 
         600         2.64  0.000187393 -0.000158347      5.69927 
         600      2.69006  0.000166279  -0.00015915      5.69927 
         600      2.74056  0.000145334 -0.000159869      5.69927 
         600      2.79156  0.000124567 -0.000160506      5.69927 
         600      2.84304  0.000104035 -0.000161058      5.69927 
         600      2.89494  8.37921e-05 -0.000161525      5.69926 
         600      2.94735  6.38433e-05 -0.000161907      5.69926 
         600       3.0002  4.42551e-05 -0.000162205      5.69926 
         600      3.05355  2.50291e-05 -0.000162418      5.69926 
         600      3.10733  6.22504e-06 -0.000162548      5.69926 
         600      3.16163  -1.2159e-05 -0.000162594      5.69926 
         600      3.21639 -3.00818e-05 -0.000162558      5.69925 
         600      3.27158 -4.75048e-05  -0.00016244      5.69925 
         600      3.32729 -6.44309e-05 -0.000162242      5.69925 
         600      3.38342 -8.08071e-05 -0.000161964      5.69925 
         600      3.44007 -9.66292e-05 -0.000161606      5.69924 
         600      3.49714 -0.000111837  -0.00016117      5.69924 
         600      3.55472 -0.000126411 -0.000160652      5.69924 
         600      3.61273 -0.000140273 -0.000160054      5.69924 
         600      3.67125 -0.000153371 -0.000159372      5.69923 
         600      3.73025 -0.000165603 -0.000158603      5.69923 
         600      3.78967 -0.000177211 -0.000157802      5.69923 
         600      3.84961 -0.000188239 -0.000156949      5.69923 
         600      3.90996 -0.000198532 -0.000156022      5.69923 
         600      3.97084 -0.000208099 -0.000155027      5.69922 
         600      4.03214 -0.000216923 -0.000153969      5.69922 
         600      4.09395 -0.000225017 -0.000152851      5.69922 
         600      4.15624  -0.00023238 -0.000151679      5.69922 
         600      4.21895 -0.000239014 -0.000150457      5.69921 
         600      4.28217 -0.000244942 -0.000149186      5.69921 
         600      4.34582 -0.000250167 -0.000147872      5.69921 
         600      4.40998 -0.000254716 -0.000146515      5.69921 
         600      4.47457   -0.0002586 -0.000145121       5.6992 
         600      4.53968 -0.000261849  -0.00014369       5.6992 
         600      4.60525 -0.000264483 -0.000142226       5.6992 
         600      4.67125 -0.000266528 -0.000140733      5.69919 
         600      4.73777 -0.000268013 -0.000139212      5.69919 
         600       4.8047 -0.000268967 -0.000137667      5.69919 
         600      4.87216 -0.000269422 -0.000136101      5.69919 
         600      4.94003 -0.000269406 -0.000134519      5.69918 
         600      5.00843 -0.000268952 -0.000132919      5.69918 
         600      5.07724 -0.000268089 -0.000131175      5.69918 
         600      5.14658 -0.000266849 -0.000129423      5.69918 
         600      5.21639 -0.000265264 -0.000127665      5.69918 
         600      5.28661 -0.000263368 -0.000125904      5.69917 
         600      5.35736 -0.000261189 -0.000124137      5.69917 
         600      5.42852 -0.000258764 -0.000122368      5.69917 
         600      5.50021 -0.000256118 -0.000120596      5.69917 
         600      5.57231 -0.000253286 -0.000118823      5.69916 
         600      5.64493  -0.00025029 -0.000117048      5.69916 
         600      5.71803 -0.000247161 -0.000115274      5.69916 
         600      5.79154 -0.000243925 -0.000113502      5.69916 
         600      5.86558 -0.000240602 -0.000111731      5.69915 
         600      5.94003 -0.000237217 -0.000109965      5.69915 
         600      6.01501 -0.000233784 -0.000108202      5.69915 
         600       6.0904 -0.000230326 -0.000106447      5.69915 
         600      6.16632 -0.000226851 -0.000104698      5.69914 
         600      6.24271 -0.000223374  -0.00010296      5.69914 
         600       6.3195 -0.000219908 -0.000101235      5.69914 
         600      6.39683 -0.000216455 -9.95234e-05      5.69914 
         600      6.47457 -0.000213024 -9.78321e-05      5.69914 
         600      6.55284 -0.000209616 -9.61618e-05      5.69913 
         600      6.63152 -0.000206235 -9.45196e-05      5.69913 
         600      6.71073 -0.000202877 -9.29085e-05      5.69913 
         600      6.79034 -0.000199546  -9.1337e-05      5.69913 
         600      6.87049 -0.000196236 -8.98099e-05      5.69913 
         600      6.95111 -0.000192948 -8.83368e-05      5.69912 
         600      7.03214  -0.00018968 -8.68611e-05      5.69912 
         600       7.1137 -0.000186439 -8.52716e-05      5.69912 
         600      7.19566 -0.000183248 -8.37389e-05      5.69912 
         600      7.27816 -0.000180098 -8.22518e-05      5.69912 
         600      7.36106 -0.000176993  -8.0805e-05      5.69911 
         600      7.44451 -0.000173923 -7.93895e-05      5.69911 
         600      7.52842  -0.00017089 -7.80007e-05      5.69911 
         600      7.61273 -0.000167892 -7.66351e-05      5.69911 
         600      7.69758 -0.000164925 -7.52866e-05      5.69911 
         600      7.78283  -0.00016199 -7.39548e-05      5.69911 
         600      7.86862 -0.000159083 -7.26353e-05       5.6991 
         600      7.95481 -0.000156206 -7.13292e-05       5.6991 
         600      8.04155 -0.000153355 -7.00341e-05       5.6991 
         600      8.12868 -0.000150534 -6.87525e-05       5.6991 
         600      8.21635 -0.000147739 -6.74835e-05       5.6991 
         600      8.30449 -0.000144974 -6.62299e-05       5.6991 
         600      8.39303  -0.00014224 -6.49949e-05      5.69909 
         600      8.48211 -0.000139535 -6.37796e-05      5.69909 
         600      8.57159 -0.000136865 -6.25891e-05      5.69909 
         600      8.66161 -0.000134227 -6.14254e-05      5.69909 
         600      8.75203 -0.000131628 -6.02944e-05      5.69909 
         600      8.84299 -0.000129064 -5.91985e-05      5.69909 
         600      8.93443 -0.000126529 -5.80751e-05      5.69909 
         600      9.02626 -0.000124035 -5.69575e-05      5.69908 
         600      9.11863 -0.000121582  -5.5864e-05      5.69908 
         600      9.21139 -0.000119172 -5.47946e-05      5.69908 
         600      9.30471 -0.000116797 -5.37461e-05      5.69908 
         600      9.39841  -0.00011446 -5.27185e-05      5.69908 
         600      9.49267 -0.000112154  -5.1708e-05      5.69908 
         600      9.58739 -0.000109879 -5.07135e-05      5.69908 
         600      9.68251 -0.000107632 -4.97338e-05      5.69908 
         600      9.77817 -0.000105409 -4.87652e-05      5.69907 
         600      9.87422  -0.00010321 -4.78076e-05      5.69907 
         600      9.97083 -0.000101029 -4.68578e-05      5.69907 
         600      10.0678 -9.88694e-05 -4.59161e-05      5.69907 
         600      10.1654 -9.67268e-05 -4.49805e-05      5.69907 
         600      10.2633 -9.46056e-05 -4.40528e-05      5.69907 
         600      10.3618 -9.25048e-05 -4.31325e-05      5.69907 
         600      10.4607 -9.04307e-05 -4.22231e-05      5.69907 
         600      10.5601 -8.83916e-05 -4.13292e-05      5.69907 
         600        10.66  -8.6394e-05 -4.04556e-05      5.69906 
         600      10.7603 -8.44541e-05 -3.96118e-05      5.69906 
         600      10.8611  -8.2586e-05 -3.88074e-05      5.69906 
         600      10.9623 -8.08142e-05  -3.8058e-05      5.69906 
         600      11.0641 -7.89536e-05  -3.7197e-05      5.69906 
         600      11.1663 -7.70941e-05 -3.63433e-05      5.69906 
         600       11.269 -7.52745e-05 -3.55294e-05      5.69906 
         600      11.3721 -7.34906e-05 -3.47483e-05      5.69906 
         600      11.4757 -7.17439e-05 -3.39961e-05      5.69906 
         600      11.5798   -7.003e-05  -3.3267e-05      5.69906 
         600      11.6844   -6.835e-05 -3.25579e-05      5.69906 
         600      11.7894 -6.66995e-05 -3.18639e-05      5.69906 
         600       11.895 -6.50783e-05 -3.11824e-05      5.69905 
         600      12.0009  -6.3486e-05 -3.05112e-05      5.69905 
         600      12.1073 -6.19186e-05  -2.9847e-05      5.69905 
         600      12.2142 -6.03775e-05  -2.9189e-05      5.69905 
         600      12.3216 -5.88591e-05 -2.85349e-05      5.69905 
         600      12.4294 -5.73648e-05 -2.78848e-05      5.69905 
         600      12.5378 -5.58918e-05 -2.72373e-05      5.69905 
         600      12.6465 -5.44419e-05 -2.65934e-05      5.69905 
         600      12.7558 -5.30126e-05 -2.59523e-05      5.69905 
         600      12.8656 -5.16051e-05 -2.53153e-05      5.69905 
         600      12.9757 -5.02205e-05 -2.46841e-05      5.69905 
         600      13.0864 -4.88569e-05 -2.40589e-05      5.69905 
         600      13.1975 -4.75166e-05 -2.34425e-05      5.69905 
         600      13.3092 -4.61978e-05 -2.28357e-05      5.69905 
         600      13.4212 -4.49023e-05 -2.22418e-05      5.69905 
         600      13.5338  -4.3628e-05  -2.1662e-05      5.69905 
         600      13.6468  -4.2375e-05 -2.10992e-05      5.69905 
         600      13.7603 -4.11429e-05 -2.05565e-05      5.69905 
         600      13.8743 -3.99275e-05 -2.00354e-05      5.69905 
         600      13.9886 -3.87556e-05 -1.95492e-05      5.69905 
         600      14.1036 -3.76225e-05 -1.90727e-05      5.69905 
         600      14.2189 -3.64921e-05 -1.85854e-05      5.69905 
         600      14.3348 -3.53631e-05 -1.80883e-05      5.69904 
         600       14.451 -3.42385e-05 -1.75837e-05      5.69904 
         600      14.5678 -3.31184e-05 -1.70719e-05      5.69904 
         600      14.6851 -3.20067e-05 -1.65535e-05      5.69904 
         600      14.8028 -3.09085e-05 -1.60288e-05      5.69904 
         600       14.921 -2.98274e-05 -1.54964e-05      5.69904 
         600      15.0396  -2.8872e-05 -1.52209e-05      5.69904 
         600      15.1588 -2.79589e-05 -1.49106e-05      5.69904 
         600      15.2783 -2.70697e-05 -1.45508e-05      5.69904 
         600      15.3984 -2.61956e-05 -1.41554e-05      5.69904 
         600       15.519 -2.53325e-05 -1.37373e-05      5.69904 
         600        15.64 -2.44777e-05 -1.33068e-05      5.69904 
         600      15.7615 -2.36282e-05 -1.28717e-05      5.69904 
         600      15.8834 -2.27851e-05 -1.24389e-05      5.69904 
         600      16.0058 -2.19476e-05 -1.20129e-05      5.69904 
         600      16.1286 -2.11183e-05 -1.15978e-05      5.69904 
         600       16.252 -2.02979e-05 -1.11954e-05      5.69904 
         600      16.3759 -1.94891e-05 -1.08075e-05      5.69904 
         600      16.5002 -1.86948e-05  -1.0435e-05      5.69904 
         600       16.625 -1.79157e-05 -1.00772e-05      5.69904 
         600      16.7501 -1.71549e-05 -9.73418e-06      5.69904 
         600      16.8759 -1.64125e-05 -9.40459e-06      5.69904 
         600       17.002 -1.56905e-05 -9.08782e-06      5.69904 
         600      17.1287 -1.49882e-05 -8.78217e-06      5.69904 
         600      17.2557 -1.43062e-05 -8.48689e-06      5.69904 
         600      17.3834 -1.36423e-05 -8.20036e-06      5.69904 
         600      17.5115 -1.29957e-05 -7.92176e-06      5.69904 
         600      17.6399 -1.23645e-05 -7.65041e-06      5.69904 
         600       17.769 -1.17452e-05 -7.38511e-06      5.69905 
         600      17.8984 -1.11362e-05  -7.1257e-06      5.69905 
         600      18.0284 -1.05336e-05 -6.87123e-06      5.69905 
         600      18.1587 -9.93598e-06 -6.62162e-06      5.69905 
         600      18.2896 -9.34057e-06  -6.3759e-06      5.69905 
         600       18.421  -8.7471e-06 -6.13343e-06      5.69905 
         600      18.5528 -8.15681e-06 -5.89319e-06      5.69905 
         600      18.6851 -7.57161e-06 -5.65294e-06      5.69905 
         600      18.8178 -6.99803e-06  -5.4103e-06      5.69905 
         600      18.9511 -6.44413e-06 -5.16095e-06      5.69905 
         600      19.0847 -5.92399e-06 -4.89979e-06      5.69905 
         600      19.2189 -5.52373e-06 -4.68094e-06      5.69905 
         600      19.3535 -5.11479e-06   -4.485e-06      5.69905 
         600      19.4886 -4.69281e-06 -4.30255e-06      5.69905 
         600      19.6242 -4.25994e-06 -4.12909e-06      5.69905 
         600      19.7602 -3.82009e-06 -3.96301e-06      5.69905 
         600      19.8968 -3.37762e-06 -3.80484e-06      5.69905 
         600      20.0337 -2.93961e-06 -3.65787e-06      5.69905 
         600      20.1712 -2.51284e-06 -3.52678e-06      5.69905 
         600      20.3091 -2.10626e-06 -3.41811e-06      5.69905 
         600      20.4475  -1.7274e-06 -3.33308e-06      5.69905 
         600      20.5864 -1.34192e-06 -3.06438e-06      5.69905 
         600      20.7257 -9.61086e-07 -2.82865e-06      5.69905 
         600      20.8655 -5.86469e-07 -2.62026e-06      5.69905 
         600      21.0058 -2.20416e-07 -2.43474e-06      5.69906 
         600      21.1465  1.36323e-07 -2.26736e-06      5.69906 
         600      21.2877  4.82228e-07 -2.11442e-06      5.69906 
         600      21.4294  8.17257e-07  -1.9721e-06      5.69906 
         600      21.5716  1.14086e-06 -1.83739e-06      5.69906 
         600      21.7142   1.4528e-06 -1.70769e-06      5.69906 
         600      21.8573  1.75387e-06 -1.58051e-06      5.69906 
         600      22.0008   2.0441e-06 -1.45418e-06      5.69906 
         600      22.1449  2.32467e-06 -1.32708e-06      5.69906 
         600      22.2893  2.59601e-06 -1.19841e-06      5.69906 
         600      22.4344  2.85958e-06 -1.06735e-06      5.69906 
         600      22.5797  3.11609e-06  -9.3395e-07      5.69906 
         600      22.7257  3.36717e-06 -7.98206e-07      5.69906 
         600      22.8721  3.61387e-06 -6.60847e-07      5.69906 
         600      23.0189  3.85727e-06 -5.22993e-07      5.69907 
         600      23.1663  4.09904e-06 -3.85808e-07      5.69907 
         600       23.314  4.34004e-06 -2.51259e-07      5.69907 
         600      23.4623  4.58181e-06 -1.21235e-07      5.69907 
         600       23.611  4.82506e-06   1.6237e-09      5.69907 
         600      23.7602  5.07114e-06  1.14755e-07      5.69907 
         600        23.91  5.32071e-06  2.14999e-07      5.69907 
         600        24.06  5.57423e-06  2.98954e-07      5.69907 
         600      24.2107  5.83261e-06  3.63159e-07      5.69907 
         600      24.3617  6.09573e-06  4.03685e-07      5.69907 
         600      24.5133  6.35439e-06   4.2719e-07      5.69907 
         600      24.6653  6.50488e-06   5.5152e-07      5.69907 
         600      24.8178  6.65273e-06  6.68235e-07      5.69908 
         600      24.9708  6.79844e-06  7.76975e-07      5.69908 
         600      25.1242  6.94233e-06  8.77505e-07      5.69908 
         600      25.2781  7.08488e-06  9.69924e-07      5.69908 
         600      25.4324   7.2259e-06   1.0541e-06      5.69908 
         600      25.5873  7.36553e-06  1.13027e-06      5.69908 
         600      25.7426   7.5033e-06  1.19844e-06      5.69908 
         600      25.8984  7.63909e-06  1.25893e-06      5.69908 
         600      26.0546  7.77227e-06  1.31183e-06      5.69908 
         600      26.2114  7.90264e-06  1.35746e-06      5.69908 
         600      26.3686  8.02965e-06  1.39596e-06      5.69909 
         600      26.5262  8.15285e-06  1.42743e-06      5.69909 
         600      26.6844  8.27224e-06  1.45199e-06      5.69909 
         600      26.8429  8.38757e-06  1.46955e-06      5.69909 
         600       27.002  8.49928e-06  1.47992e-06      5.69909 
         600      27.1615  8.60775e-06   1.4827e-06      5.69909 
         600      27.3216  8.71415e-06  1.47728e-06      5.69909 
         600      27.4821  8.81994e-06  1.46274e-06      5.69909 
         600       27.643  8.92715e-06  1.43788e-06      5.69909 
         600      27.8044  9.03884e-06  1.40105e-06       5.6991 
         600      27.9663  9.15855e-06  1.35025e-06       5.6991 
         600      28.1287  9.23218e-06  1.33643e-06       5.6991 
         600      28.2914  9.25392e-06  1.37659e-06       5.6991 
         600      28.4548  9.27485e-06  1.42128e-06       5.6991 
         600      28.6185   9.2925e-06  1.46598e-06       5.6991 
         600      28.7828  9.30688e-06  1.50565e-06       5.6991 
         600      28.9475  9.32025e-06  1.53467e-06       5.6991 
         600      29.1126  9.33701e-06  1.54711e-06      5.69911 
         600      29.2784  9.36359e-06  1.53683e-06      5.69911 
         600      29.4444  9.40818e-06  1.49757e-06      5.69911 
         600       29.611  9.67182e-06  1.45429e-06      5.69911 
         600       29.778   9.9184e-06  1.40776e-06      5.69911 
         600      29.9456  1.01303e-05   1.3606e-06      5.69911 
         600      30.1137  1.03089e-05  1.31601e-06      5.69911 
         600      30.2821  1.04563e-05  1.27628e-06      5.69912 
         600      30.4511  1.05753e-05  1.24283e-06      5.69912 
         600      30.6204  1.06687e-05  1.21652e-06      5.69912 
         600      30.7903  1.07395e-05  1.19759e-06      5.69912 
         600      30.9606  1.07911e-05  1.18592e-06      5.69912 
         600      31.1315  1.08267e-05  1.18102e-06      5.69912 
         600      31.3028  1.08497e-05  1.18221e-06      5.69912 
         600      31.4745  1.08634e-05  1.18863e-06      5.69913 
         600      31.6468  1.08709e-05  1.19941e-06      5.69913 
         600      31.8194  1.08752e-05  1.21361e-06      5.69913 
         600      31.9926  1.08789e-05  1.23042e-06      5.69913 
         600      32.1662  1.08845e-05  1.24906e-06      5.69913 
         600      32.3404  1.08939e-05  1.26893e-06      5.69913 
         600      32.5149  1.09088e-05  1.28952e-06      5.69913 
         600        32.69  1.09304e-05  1.31052e-06      5.69914 
         600      32.8655  1.09595e-05  1.33169e-06      5.69914 
         600      33.0414  1.09961e-05   1.3529e-06      5.69914 
         600       33.218  1.10401e-05   1.3741e-06      5.69914 
         600      33.3948  1.10906e-05  1.39517e-06      5.69914 
         600      33.5723  1.11462e-05  1.41593e-06      5.69914 
         600        33.75  1.12049e-05  1.43593e-06      5.69915 
         600      33.9284  1.12645e-05  1.45445e-06      5.69915 
         600      34.1073  1.13217e-05  1.47023e-06      5.69915 
         600      34.2865  1.13733e-05  1.48136e-06      5.69915 
         600      34.4663  1.14153e-05   1.4851e-06      5.69915 
         600      34.6465  1.14434e-05   1.4776e-06      5.69915 
         600      34.8272   1.1453e-05  1.45368e-06      5.69916 
         600      35.0083  1.14391e-05  1.40662e-06      5.69916 
         600        35.19  1.13967e-05  1.32768e-06      5.69916 
         600      35.3721  1.13203e-05  1.20596e-06      5.69916 
         600      35.5546  1.12355e-05   1.2041e-06      5.69916 
         600      35.7377  1.11643e-05  1.22078e-06      5.69917 
         600      35.9211   1.1116e-05  1.24581e-06      5.69917 
         600      36.1052   1.1097e-05  1.27535e-06      5.69917 
         600      36.2895  1.11106e-05  1.30554e-06      5.69917 
         600      36.4745  1.11572e-05  1.33287e-06      5.69917 
         600      36.6598  1.12342e-05  1.35439e-06      5.69917 
         600      36.8457  1.13362e-05  1.36821e-06      5.69918 
         600      37.0321  1.14548e-05  1.37386e-06      5.69918 
         600      37.2188  1.15787e-05  1.37288e-06      5.69918 
         600      37.4062  1.16944e-05  1.36939e-06      5.69918 
         600      37.5938  1.17852e-05  1.37071e-06      5.69918 
         600      37.7821  1.18321e-05  1.38813e-06      5.69919 
         600      37.9707  1.18137e-05  1.43767e-06      5.69919 
         600      38.1599  1.17061e-05  1.54112e-06      5.69919 
         600      38.3496  1.16434e-05  1.55775e-06      5.69919 
         600      38.5396  1.17177e-05  1.45293e-06      5.69919 
         600      38.7302  1.17697e-05  1.40731e-06       5.6992 
         600      38.9211  1.18045e-05  1.40491e-06       5.6992 
         600      39.1127  1.18268e-05  1.43195e-06       5.6992 
         600      39.3046  1.18404e-05  1.47679e-06       5.6992 
         600      39.4971  1.18485e-05  1.52995e-06       5.6992 
         600      39.6899  1.18535e-05  1.58375e-06      5.69921 
         600      39.8833  1.18575e-05  1.63243e-06      5.69921 
         600      40.0772  1.18615e-05  1.67179e-06      5.69921 
         600      40.2714  1.18663e-05  1.69915e-06      5.69921 
         600      40.4663  1.18719e-05  1.71328e-06      5.69922 
         600      40.6615  1.18781e-05  1.71411e-06      5.69922 
         600      40.8573  1.18844e-05  1.70267e-06      5.69922 
         600      41.0534  1.18899e-05  1.68094e-06      5.69922 
         600      41.2501  1.18939e-05   1.6516e-06      5.69922 
         600      41.4473  1.18959e-05  1.61801e-06      5.69923 
         600      41.6448  1.18957e-05    1.584e-06      5.69923 
         600      41.8429  1.18939e-05  1.55359e-06      5.69923 
         600      42.0414  1.18918e-05  1.53101e-06      5.69923 
         600      42.2405  1.18921e-05  1.52036e-06      5.69924 
         600      42.4399  1.18989e-05  1.52556e-06      5.69924 
         600      42.6399  1.19183e-05  1.55014e-06      5.69924 
         600      42.8404  1.19587e-05    1.597e-06      5.69924 
         600      43.0412  1.20311e-05  1.66823e-06      5.69925 
         600      43.2426  1.21499e-05  1.76515e-06      5.69925 
         600      43.4444  1.23269e-05  1.88444e-06      5.69925 
         600      43.6467  1.21412e-05  1.80222e-06      5.69925 
         600      43.8494  1.20132e-05  1.75166e-06      5.69926 
         600      44.0527  1.19312e-05  1.72339e-06      5.69926 
         600      44.2563  1.18853e-05  1.70979e-06      5.69926 
         600      44.4606  1.18668e-05  1.70465e-06      5.69926 
         600      44.6653  1.18685e-05  1.70315e-06      5.69927 
         600      44.8704  1.18843e-05  1.70166e-06      5.69927 
         600       45.076  1.19093e-05   1.6976e-06      5.69927 
         600       45.282  1.19393e-05  1.68932e-06      5.69927 
         600      45.4886  1.19712e-05  1.67593e-06      5.69928 
         600      45.6955  1.20025e-05  1.65723e-06      5.69928 
         600       45.903  1.20316e-05  1.63352e-06      5.69928 
         600      46.1111  1.20572e-05  1.60554e-06      5.69928 
         600      46.3194  1.20785e-05  1.57435e-06      5.69929 
         600      46.5283  1.20953e-05  1.54112e-06      5.69929 
         600      46.7376  1.21074e-05  1.50721e-06      5.69929 
         600      46.9475  1.21152e-05  1.47389e-06      5.69929 
         600      47.1577  1.21189e-05  1.44243e-06       5.6993 
         600      47.3685  1.21189e-05  1.41382e-06       5.6993 
         600      47.5798  1.21159e-05   1.3889e-06       5.6993 
         600      47.7914  1.21103e-05  1.36818e-06      5.69931 
         600      48.0037  1.21025e-05  1.35178e-06      5.69931 