Variables = x, y, u, v, p

Zone, I=800, F=POINT
         -50            0            0            0     -21.4859 
         -50     0.000234 -4.02502e-06 -2.58819e-10     -21.4859 
         -50     0.000939 -1.52811e-05 -1.06728e-09     -21.4859 
         -50     0.002113  -3.1343e-05 -2.49145e-09     -21.4859 
         -50     0.003759  -4.8934e-05 -4.59541e-09     -21.4859 
         -50     0.005872  -6.4617e-05 -7.36255e-09     -21.4859 
         -50     0.008457 -7.58418e-05  -1.0663e-08     -21.4859 
         -50      0.01151 -8.14551e-05 -1.42033e-08     -21.4859 
         -50     0.015036 -8.20435e-05 -1.75696e-08     -21.4859 
         -50     0.019031 -7.96331e-05 -2.02817e-08     -21.4859 
         -50     0.023493 -7.69542e-05 -2.19265e-08     -21.4859 
         -50     0.028429 -7.63749e-05 -2.22846e-08     -21.4859 
         -50     0.033831 -7.89134e-05 -2.14219e-08     -21.4859 
         -50     0.039706 -8.37368e-05 -1.96976e-08     -21.4859 
         -50     0.046047 -8.85676e-05 -1.76328e-08     -21.4859 
         -50     0.052863 -9.11809e-05 -1.56213e-08     -21.4859 
         -50      0.06015 -9.14794e-05 -1.35784e-08     -21.4859 
         -50       0.0679  -9.2683e-05 -1.07164e-08     -21.4859 
         -50     0.076126 -9.82922e-05 -5.89253e-09     -21.4859 
         -50     0.084816 -0.000100959  4.53847e-10     -21.4859 
         -50     0.093982 -0.000103443  5.94128e-09     -21.4859 
         -50     0.103611  -0.00010631  1.17786e-08     -21.4859 
         -50     0.113718 -0.000109372  1.77857e-08     -21.4859 
         -50     0.124286 -0.000112494  2.36484e-08     -21.4859 
         -50     0.135333  -0.00011561  2.89531e-08     -21.4859 
         -50      0.14685 -0.000118707  3.31585e-08     -21.4859 
         -50     0.158827 -0.000121808  3.56376e-08     -21.4859 
         -50     0.171284 -0.000124957  3.57193e-08     -21.4858 
         -50     0.184201  -0.00012817  3.27403e-08     -21.4858 
         -50     0.197599 -0.000131434  2.61275e-08     -21.4858 
         -50     0.211455 -0.000134679  1.55291e-08     -21.4858 
         -50     0.225792 -0.000137851  9.01977e-10     -21.4858 
         -50       0.2406 -0.000141002 -1.72796e-08     -21.4858 
         -50     0.255865 -0.000144291 -3.57939e-08     -21.4858 
         -50     0.271613 -0.000147443 -5.25717e-08     -21.4858 
         -50     0.287818 -0.000150587 -6.59951e-08     -21.4858 
         -50     0.304506 -0.000153714 -7.13046e-08     -21.4858 
         -50      0.32165 -0.000156806 -6.57186e-08     -21.4858 
         -50     0.339278 -0.000159855 -4.86082e-08     -21.4858 
         -50     0.357377 -0.000162847 -2.15404e-08     -21.4858 
         -50      0.37593 -0.000165768   1.1812e-08     -21.4858 
         -50     0.394968 -0.000168611   4.6084e-08     -21.4858 
         -50     0.414461  -0.00017136  7.45162e-08     -21.4858 
         -50      0.43444 -0.000174008  8.98639e-08     -21.4858 
         -50     0.454872 -0.000176537  8.52105e-08     -21.4858 
         -50     0.475791 -0.000178938  5.52826e-08     -21.4858 
         -50     0.497163 -0.000181192 -1.96274e-09     -21.4858 
         -50     0.519021 -0.000183286 -8.36726e-08     -21.4858 
         -50      0.54135 -0.000185201  -1.7965e-07     -21.4858 
         -50     0.564131 -0.000186919 -2.69894e-07     -21.4857 
         -50       0.5874  -0.00018843 -3.21979e-07     -21.4857 
         -50     0.611121 -0.000189717 -3.02098e-07     -21.4857 
         -50      0.63533 -0.000190754 -3.64374e-07     -21.4857 
         -50      0.65999 -0.000191529 -4.08247e-07     -21.4857 
         -50     0.685139 -0.000192022 -4.32805e-07     -21.4857 
         -50     0.710759 -0.000192215 -4.37559e-07     -21.4857 
         -50     0.736828 -0.000192095 -4.22627e-07     -21.4857 
         -50     0.763387 -0.000191653 -3.88615e-07     -21.4856 
         -50     0.790396 -0.000190885 -3.36715e-07     -21.4856 
         -50     0.817896 -0.000189788 -2.68458e-07     -21.4856 
         -50     0.845843 -0.000188365 -1.85986e-07     -21.4856 
         -50     0.874283 -0.000186622 -9.15458e-08     -21.4856 
         -50      0.90317 -0.000184571  1.20602e-08     -21.4856 
         -50     0.932551 -0.000182222  1.22181e-07     -21.4855 
         -50     0.962401 -0.000179592  2.35853e-07     -21.4855 
         -50     0.992697 -0.000176702  3.50185e-07     -21.4855 
         -50      1.02349 -0.000173569  4.62771e-07     -21.4855 
         -50      1.05472 -0.000170219  5.71194e-07     -21.4855 
         -50      1.08645 -0.000166671  6.73916e-07     -21.4854 
         -50      1.11863 -0.000162953  7.69724e-07     -21.4854 
         -50       1.1513 -0.000159083  8.58557e-07     -21.4854 
         -50      1.18444 -0.000155087  9.41102e-07     -21.4854 
         -50      1.21802 -0.000150992  1.01919e-06     -21.4853 
         -50      1.25211 -0.000146813  1.09608e-06     -21.4853 
         -50      1.28663 -0.000142577  1.17611e-06     -21.4853 
         -50      1.32165 -0.000138298  1.26528e-06     -21.4852 
         -50      1.35712 -0.000134004  1.37073e-06     -21.4852 
         -50      1.39308  -0.00012971  1.50126e-06     -21.4852 
         -50      1.42951 -0.000125443  1.66671e-06     -21.4851 
         -50      1.46638 -0.000121235  1.87783e-06     -21.4851 
         -50      1.50375 -0.000117116  2.14665e-06     -21.4851 
         -50      1.54156 -0.000112665  2.10834e-06      -21.485 
         -50      1.57987 -0.000108194   2.0673e-06      -21.485 
         -50      1.61863 -0.000103731  2.05092e-06     -21.4849 
         -50      1.65788  -9.9265e-05  2.05825e-06     -21.4849 
         -50      1.69757 -9.48049e-05  2.08692e-06     -21.4848 
         -50      1.73776 -9.03501e-05  2.13331e-06     -21.4848 
         -50      1.77842 -8.59162e-05  2.19247e-06     -21.4847 
         -50      1.81952 -8.15235e-05  2.25822e-06     -21.4847 
         -50      1.86113 -7.71857e-05  2.32355e-06     -21.4846 
         -50      1.90316 -7.29343e-05  2.38029e-06     -21.4846 
         -50      1.94571 -6.87901e-05  2.41973e-06     -21.4845 
         -50      1.98869 -6.47897e-05  2.43243e-06     -21.4845 
         -50      2.03217 -6.09581e-05  2.40864e-06     -21.4844 
         -50      2.07612 -5.73312e-05  2.33836e-06     -21.4843 
         -50      2.12051 -5.39437e-05  2.21179e-06     -21.4843 
         -50       2.1654 -5.08216e-05  2.01909e-06     -21.4842 
         -50      2.21073 -4.79992e-05  1.75143e-06     -21.4841 
         -50      2.25656 -4.54987e-05  1.40003e-06     -21.4841 
         -50      2.30283 -4.33466e-05  9.58102e-07      -21.484 
         -50       2.3496 -4.15575e-05  4.18917e-07     -21.4839 
         -50      2.39685 -4.01456e-05  -2.2175e-07     -21.4838 
         -50      2.44452 -3.91174e-05 -9.65979e-07     -21.4838 
         -50      2.49271 -3.84698e-05 -1.81564e-06     -21.4837 
         -50      2.54132 -3.81945e-05 -2.76785e-06     -21.4836 
         -50      2.59044 -3.82733e-05 -3.82016e-06     -21.4835 
         -50         2.64 -3.86795e-05 -4.96431e-06     -21.4834 
         -50      2.69006 -3.93785e-05 -6.19279e-06     -21.4833 
         -50      2.74056 -4.03249e-05 -7.49157e-06     -21.4832 
         -50      2.79156 -4.14679e-05 -8.84777e-06     -21.4831 
         -50      2.84304 -4.27466e-05 -1.02427e-05      -21.483 
         -50      2.89494 -4.40934e-05 -1.16547e-05     -21.4829 
         -50      2.94735 -4.54392e-05 -1.30635e-05     -21.4828 
         -50       3.0002 -4.67079e-05 -1.44417e-05     -21.4827 
         -50      3.05355 -4.78276e-05 -1.57649e-05     -21.4826 
         -50      3.10733 -4.87259e-05 -1.70033e-05     -21.4825 
         -50      3.16163 -4.93411e-05 -1.81307e-05     -21.4824 
         -50      3.21639 -4.96215e-05 -1.91181e-05     -21.4822 
         -50      3.27158 -4.95343e-05 -1.99388e-05     -21.4821 
         -50      3.32729 -4.90715e-05 -2.05706e-05      -21.482 
         -50      3.38342 -4.82583e-05  -2.0993e-05     -21.4819 
         -50      3.44007 -4.71598e-05 -2.11934e-05     -21.4817 
         -50      3.49714 -4.58959e-05 -2.11661e-05     -21.4816 
         -50      3.55472 -4.46468e-05 -2.09157e-05     -21.4815 
         -50      3.61273 -4.36733e-05 -2.04604e-05     -21.4813 
         -50      3.67125 -4.33252e-05 -1.98329e-05     -21.4812 
         -50      3.73025 -4.40639e-05  -1.9086e-05      -21.481 
         -50      3.78967 -4.48188e-05  -2.0397e-05     -21.4809 
         -50      3.84961  -4.4721e-05 -2.16534e-05     -21.4807 
         -50      3.90996 -4.43679e-05 -2.19565e-05     -21.4805 
         -50      3.97084 -4.44902e-05  -2.1602e-05     -21.4804 
         -50      4.03214 -4.46482e-05 -2.12219e-05     -21.4802 
         -50      4.09395 -4.47697e-05 -2.08965e-05       -21.48 
         -50      4.15624 -4.48695e-05 -2.06487e-05     -21.4799 
         -50      4.21895 -4.49621e-05 -2.04845e-05     -21.4797 
         -50      4.28217 -4.50611e-05 -2.03966e-05     -21.4795 
         -50      4.34582 -4.51781e-05 -2.03689e-05     -21.4793 
         -50      4.40998 -4.53224e-05 -2.03805e-05     -21.4791 
         -50      4.47457 -4.54996e-05 -2.04083e-05     -21.4789 
         -50      4.53968 -4.57128e-05 -2.04311e-05     -21.4787 
         -50      4.60525 -4.59605e-05 -2.04315e-05     -21.4785 
         -50      4.67125 -4.62378e-05 -2.03988e-05     -21.4783 
         -50      4.73777 -4.65367e-05 -2.03301e-05     -21.4781 
         -50       4.8047 -4.68455e-05 -2.02317e-05     -21.4779 
         -50      4.87216 -4.71514e-05 -2.01182e-05     -21.4776 
         -50      4.94003 -4.74398e-05 -2.00126e-05     -21.4774 
         -50      5.00843 -4.76975e-05  -1.9943e-05     -21.4772 
         -50      5.07724 -4.79136e-05 -1.99399e-05     -21.4769 
         -50      5.14658 -4.80828e-05 -2.00312e-05     -21.4767 
         -50      5.21639 -4.82079e-05 -2.02348e-05     -21.4764 
         -50      5.28661 -4.83041e-05 -2.05511e-05     -21.4762 
         -50      5.35736 -4.84031e-05 -2.09524e-05     -21.4759 
         -50      5.42852 -4.85576e-05 -2.13691e-05     -21.4757 
         -50      5.50021 -4.88485e-05 -2.16766e-05     -21.4754 
         -50      5.57231 -4.93899e-05 -2.16751e-05     -21.4751 
         -50      5.64493 -5.03389e-05 -2.10704e-05     -21.4749 
         -50      5.71803 -5.07608e-05 -2.13971e-05     -21.4746 
         -50      5.79154 -5.12397e-05 -2.15507e-05     -21.4743 
         -50      5.86558 -5.17217e-05  -2.1549e-05      -21.474 
         -50      5.94003 -5.21612e-05 -2.14086e-05     -21.4737 
         -50      6.01501 -5.25284e-05 -2.11502e-05     -21.4734 
         -50       6.0904 -5.28089e-05 -2.08029e-05     -21.4731 
         -50      6.16632  -5.3007e-05 -2.04038e-05     -21.4728 
         -50      6.24271 -5.31428e-05 -1.99979e-05     -21.4724 
         -50       6.3195 -5.32497e-05 -1.96321e-05     -21.4721 
         -50      6.39683 -5.33686e-05 -1.93466e-05     -21.4718 
         -50      6.47457 -5.35377e-05 -1.91632e-05     -21.4714 
         -50      6.55284  -5.3782e-05 -1.90678e-05     -21.4711 
         -50      6.63152 -5.40958e-05 -1.89891e-05     -21.4707 
         -50      6.71073 -5.44253e-05 -1.87712e-05     -21.4704 
         -50      6.79034 -5.46732e-05 -1.87148e-05       -21.47 
         -50      6.87049  -5.4892e-05 -1.86978e-05     -21.4696 
         -50      6.95111 -5.50762e-05 -1.85807e-05     -21.4693 
         -50      7.03214 -5.52166e-05 -1.84101e-05     -21.4689 
         -50       7.1137 -5.53148e-05 -1.82229e-05     -21.4685 
         -50      7.19566 -5.53802e-05 -1.80468e-05     -21.4681 
         -50      7.27816 -5.54278e-05 -1.78985e-05     -21.4677 
         -50      7.36106 -5.54753e-05 -1.77846e-05     -21.4673 
         -50      7.44451 -5.55412e-05 -1.77006e-05     -21.4669 
         -50      7.52842  -5.5641e-05 -1.76323e-05     -21.4664 
         -50      7.61273  -5.5785e-05 -1.75552e-05      -21.466 
         -50      7.69758  -5.5975e-05 -1.74363e-05     -21.4656 
         -50      7.78283 -5.62011e-05 -1.72349e-05     -21.4651 
         -50      7.86862 -5.64388e-05 -1.69044e-05     -21.4647 
         -50      7.95481 -5.66449e-05 -1.63949e-05     -21.4642 
         -50      8.04155 -5.67556e-05 -1.56541e-05     -21.4638 
         -50      8.12868 -5.69698e-05 -1.62391e-05     -21.4633 
         -50      8.21635 -5.73163e-05 -1.69545e-05     -21.4628 
         -50      8.30449 -5.77287e-05  -1.7355e-05     -21.4623 
         -50      8.39303 -5.81824e-05 -1.74883e-05     -21.4618 
         -50      8.48211 -5.86495e-05 -1.74253e-05     -21.4613 
         -50      8.57159  -5.9099e-05 -1.72521e-05     -21.4608 
         -50      8.66161 -5.95005e-05   -1.706e-05     -21.4603 
         -50      8.75203 -5.98249e-05 -1.69357e-05     -21.4598 
         -50      8.84299 -6.00491e-05 -1.69478e-05     -21.4592 
         -50      8.93443 -6.01575e-05 -1.71331e-05     -21.4587 
         -50      9.02626 -6.01478e-05 -1.74796e-05     -21.4581 
         -50      9.11863 -6.00344e-05 -1.79095e-05     -21.4576 
         -50      9.21139 -5.98543e-05 -1.82568e-05      -21.457 
         -50      9.30471 -5.96725e-05 -1.82467e-05     -21.4564 
         -50      9.39841 -5.98694e-05 -1.82247e-05     -21.4559 
         -50      9.49267 -6.02867e-05 -1.85072e-05     -21.4553 
         -50      9.58739 -6.06197e-05 -1.86116e-05     -21.4547 
         -50      9.68251 -6.08994e-05 -1.85901e-05     -21.4541 
         -50      9.77817 -6.11477e-05 -1.84829e-05     -21.4535 
         -50      9.87422 -6.13772e-05 -1.83197e-05     -21.4528 
         -50      9.97083 -6.15947e-05 -1.81212e-05     -21.4522 
         -50      10.0678 -6.18007e-05 -1.79016e-05     -21.4516 
         -50      10.1654 -6.19925e-05 -1.76687e-05     -21.4509 
         -50      10.2633 -6.21645e-05  -1.7427e-05     -21.4502 
         -50      10.3618   -6.231e-05 -1.71775e-05     -21.4496 
         -50      10.4607 -6.24219e-05   -1.692e-05     -21.4489 
         -50      10.5601 -6.24941e-05 -1.66541e-05     -21.4482 
         -50        10.66 -6.25225e-05 -1.63793e-05     -21.4475 
         -50      10.7603 -6.25053e-05 -1.60972e-05     -21.4468 
         -50      10.8611 -6.24437e-05 -1.58106e-05     -21.4461 
         -50      10.9623 -6.23426e-05  -1.5525e-05     -21.4454 
         -50      11.0641 -6.22101e-05 -1.52479e-05     -21.4446 
         -50      11.1663  -6.2058e-05 -1.49893e-05     -21.4439 
         -50       11.269 -6.19013e-05 -1.47612e-05     -21.4432 
         -50      11.3721 -6.17568e-05 -1.45759e-05     -21.4424 
         -50      11.4757 -6.16435e-05 -1.44461e-05     -21.4416 
         -50      11.5798 -6.15798e-05 -1.43827e-05     -21.4408 
         -50      11.6844 -6.15828e-05 -1.43929e-05       -21.44 
         -50      11.7894 -6.16656e-05 -1.44782e-05     -21.4392 
         -50       11.895 -6.18351e-05  -1.4631e-05     -21.4384 
         -50      12.0009 -6.20886e-05 -1.48315e-05     -21.4376 
         -50      12.1073 -6.24111e-05 -1.50441e-05     -21.4368 
         -50      12.2142 -6.27694e-05  -1.5212e-05      -21.436 
         -50      12.3216 -6.31101e-05 -1.52529e-05     -21.4351 
         -50      12.4294 -6.33517e-05 -1.50527e-05     -21.4342 
         -50      12.5378 -6.33806e-05 -1.44585e-05     -21.4334 
         -50      12.6465 -6.30982e-05 -1.45374e-05     -21.4325 
         -50      12.7558  -6.2817e-05 -1.73771e-05     -21.4316 
         -50      12.8656 -6.20826e-05 -1.42566e-05     -21.4307 
         -50      12.9757 -6.17984e-05 -1.22037e-05     -21.4298 
         -50      13.0864  -6.2099e-05  -1.2723e-05     -21.4289 
         -50      13.1975 -6.24005e-05 -1.32669e-05     -21.4279 
         -50      13.3092 -6.26881e-05 -1.37823e-05      -21.427 
         -50      13.4212 -6.29494e-05 -1.42317e-05      -21.426 
         -50      13.5338 -6.31758e-05 -1.45935e-05     -21.4251 
         -50      13.6468  -6.3361e-05 -1.48578e-05     -21.4241 
         -50      13.7603 -6.35013e-05  -1.5025e-05     -21.4231 
         -50      13.8743 -6.35956e-05 -1.51038e-05     -21.4221 
         -50      13.9886 -6.36442e-05 -1.51085e-05     -21.4211 
         -50      14.1036 -6.36497e-05 -1.50575e-05     -21.4201 
         -50      14.2189 -6.36156e-05 -1.49714e-05      -21.419 
         -50      14.3348 -6.35469e-05  -1.4871e-05      -21.418 
         -50       14.451 -6.34492e-05 -1.47763e-05      -21.417 
         -50      14.5678 -6.33288e-05 -1.47049e-05     -21.4159 
         -50      14.6851 -6.31921e-05  -1.4671e-05     -21.4148 
         -50      14.8028 -6.30458e-05 -1.46848e-05     -21.4137 
         -50       14.921 -6.28959e-05 -1.47513e-05     -21.4126 
         -50      15.0396 -6.27482e-05 -1.48706e-05     -21.4115 
         -50      15.1588 -6.26073e-05 -1.50381e-05     -21.4104 
         -50      15.2783 -6.24771e-05  -1.5244e-05     -21.4093 
         -50      15.3984 -6.23598e-05 -1.54751e-05     -21.4081 
         -50       15.519 -6.22561e-05 -1.57151e-05      -21.407 
         -50        15.64 -6.21652e-05 -1.59466e-05     -21.4058 
         -50      15.7615 -6.20838e-05 -1.61536e-05     -21.4046 
         -50      15.8834 -6.20067e-05 -1.63228e-05     -21.4034 
         -50      16.0058  -6.1926e-05  -1.6448e-05     -21.4022 
         -50      16.1286 -6.18315e-05 -1.65329e-05      -21.401 
         -50       16.252 -6.17102e-05 -1.65958e-05     -21.3998 
         -50      16.3759 -6.15461e-05 -1.66741e-05     -21.3985 
         -50      16.5002 -6.13207e-05 -1.68301e-05     -21.3973 
         -50       16.625 -6.10118e-05 -1.71574e-05      -21.396 
         -50      16.7501 -6.12795e-05 -1.75893e-05     -21.3947 
         -50      16.8759 -6.20399e-05 -1.78043e-05     -21.3935 
         -50       17.002 -6.24744e-05 -1.79199e-05     -21.3922 
         -50      17.1287 -6.26635e-05 -1.79577e-05     -21.3908 
         -50      17.2557 -6.26741e-05 -1.79376e-05     -21.3895 
         -50      17.3834 -6.25624e-05 -1.78772e-05     -21.3882 
         -50      17.5115  -6.2374e-05 -1.77925e-05     -21.3868 
         -50      17.6399 -6.21457e-05 -1.76977e-05     -21.3855 
         -50       17.769 -6.19052e-05 -1.76046e-05     -21.3841 
         -50      17.8984 -6.16736e-05 -1.75233e-05     -21.3827 
         -50      18.0284 -6.14648e-05 -1.74616e-05     -21.3813 
         -50      18.1587 -6.12877e-05 -1.74256e-05     -21.3799 
         -50      18.2896 -6.11459e-05 -1.74191e-05     -21.3785 
         -50       18.421 -6.10393e-05 -1.74442e-05     -21.3771 
         -50      18.5528 -6.09646e-05 -1.75008e-05     -21.3756 
         -50      18.6851 -6.09156e-05 -1.75872e-05     -21.3741 
         -50      18.8178 -6.08845e-05 -1.76998e-05     -21.3727 
         -50      18.9511 -6.08618e-05 -1.78336e-05     -21.3712 
         -50      19.0847 -6.08373e-05 -1.79817e-05     -21.3697 
         -50      19.2189 -6.07998e-05 -1.81364e-05     -21.3682 
         -50      19.3535 -6.07381e-05 -1.82883e-05     -21.3666 
         -50      19.4886 -6.06407e-05 -1.84275e-05     -21.3651 
         -50      19.6242  -6.0496e-05 -1.85433e-05     -21.3636 
         -50      19.7602 -6.02925e-05 -1.86244e-05      -21.362 
         -50      19.8968 -6.00178e-05 -1.86595e-05     -21.3604 
         -50      20.0337 -5.96595e-05 -1.86377e-05     -21.3588 
         -50      20.1712  -5.9203e-05 -1.85485e-05     -21.3572 
         -50      20.3091 -5.87289e-05 -1.86254e-05     -21.3556 
         -50      20.4475 -5.86071e-05 -1.93455e-05      -21.354 
         -50      20.5864 -5.85706e-05  -1.9823e-05     -21.3524 
         -50      20.7257 -5.85636e-05 -2.00583e-05     -21.3507 
         -50      20.8655 -5.85342e-05 -2.00637e-05      -21.349 
         -50      21.0058 -5.84385e-05  -1.9864e-05     -21.3474 
         -50      21.1465  -5.8244e-05 -1.94974e-05     -21.3457 
         -50      21.2877 -5.85769e-05 -1.92427e-05      -21.344 
         -50      21.4294 -5.91795e-05 -1.95169e-05     -21.3422 
         -50      21.5716 -5.93105e-05 -1.98784e-05     -21.3405 
         -50      21.7142  -5.9244e-05 -2.00875e-05     -21.3388 
         -50      21.8573 -5.91958e-05 -2.00074e-05      -21.337 
         -50      22.0008 -5.89892e-05 -1.98549e-05     -21.3352 
         -50      22.1449 -5.82897e-05 -2.00883e-05     -21.3335 
         -50      22.2893 -5.77899e-05 -2.02431e-05     -21.3317 
         -50      22.4344 -5.74597e-05 -2.03517e-05     -21.3299 
         -50      22.5797 -5.72638e-05 -2.04413e-05      -21.328 
         -50      22.7257 -5.71633e-05 -2.05335e-05     -21.3262 
         -50      22.8721 -5.71207e-05  -2.0644e-05     -21.3244 
         -50      23.0189 -5.71026e-05 -2.07817e-05     -21.3225 
         -50      23.1663 -5.70818e-05 -2.09501e-05     -21.3206 
         -50       23.314 -5.70394e-05 -2.11459e-05     -21.3187 
         -50      23.4623 -5.69657e-05 -2.13613e-05     -21.3168 
         -50       23.611 -5.68606e-05 -2.15832e-05     -21.3149 
         -50      23.7602 -5.67328e-05 -2.17962e-05      -21.313 
         -50        23.91 -5.65986e-05 -2.19824e-05     -21.3111 
         -50        24.06 -5.64798e-05 -2.21241e-05     -21.3091 
         -50      24.2107 -5.63995e-05 -2.22064e-05     -21.3071 
         -50      24.3617  -5.6379e-05 -2.22189e-05     -21.3052 
         -50      24.5133 -5.64313e-05 -2.21593e-05     -21.3032 
         -50      24.6653 -5.65547e-05  -2.2037e-05     -21.3012 
         -50      24.8178 -5.67255e-05 -2.18763e-05     -21.2992 
         -50      24.9708 -5.68879e-05 -2.17217e-05     -21.2971 
         -50      25.1242 -5.69441e-05 -2.16421e-05     -21.2951 
         -50      25.2781 -5.67421e-05 -2.17364e-05      -21.293 
         -50      25.4324 -5.60626e-05 -2.21394e-05      -21.291 
         -50      25.5873 -5.58915e-05 -2.15185e-05     -21.2889 
         -50      25.7426 -5.59187e-05 -2.13641e-05     -21.2868 
         -50      25.8984 -5.59726e-05 -2.16197e-05     -21.2847 
         -50      26.0546 -5.59922e-05 -2.20967e-05     -21.2826 
         -50      26.2114 -5.59462e-05 -2.26293e-05     -21.2804 
         -50      26.3686 -5.58237e-05 -2.30821e-05     -21.2783 
         -50      26.5262 -5.56264e-05 -2.33612e-05     -21.2761 
         -50      26.6844 -5.53612e-05 -2.34239e-05      -21.274 
         -50      26.8429  -5.5037e-05 -2.32866e-05     -21.2718 
         -50       27.002 -5.46599e-05  -2.3034e-05     -21.2696 
         -50      27.1615 -5.42343e-05 -2.28283e-05     -21.2674 
         -50      27.3216 -5.37614e-05 -2.29162e-05     -21.2651 
         -50      27.4821 -5.32452e-05 -2.36378e-05     -21.2629 
         -50       27.643 -5.32934e-05 -2.38922e-05     -21.2607 
         -50      27.8044 -5.35295e-05 -2.36671e-05     -21.2584 
         -50      27.9663 -5.36181e-05 -2.35997e-05     -21.2561 
         -50      28.1287 -5.35929e-05  -2.3651e-05     -21.2539 
         -50      28.2914 -5.34833e-05 -2.37877e-05     -21.2516 
         -50      28.4548 -5.33144e-05  -2.3982e-05     -21.2493 
         -50      28.6185 -5.31079e-05 -2.42106e-05     -21.2469 
         -50      28.7828 -5.28813e-05 -2.44549e-05     -21.2446 
         -50      28.9475 -5.26493e-05 -2.47001e-05     -21.2423 
         -50      29.1126 -5.24238e-05 -2.49347e-05     -21.2399 
         -50      29.2784  -5.2213e-05 -2.51509e-05     -21.2375 
         -50      29.4444 -5.20235e-05 -2.53429e-05     -21.2352 
         -50       29.611 -5.18587e-05  -2.5508e-05     -21.2328 
         -50       29.778 -5.17207e-05 -2.56447e-05     -21.2304 
         -50      29.9456 -5.16093e-05 -2.57537e-05     -21.2279 
         -50      30.1137 -5.15231e-05 -2.58367e-05     -21.2255 
         -50      30.2821 -5.14593e-05 -2.58962e-05     -21.2231 
         -50      30.4511 -5.14138e-05 -2.59358e-05     -21.2206 
         -50      30.6204  -5.1382e-05 -2.59589e-05     -21.2181 
         -50      30.7903 -5.13586e-05 -2.59694e-05     -21.2157 
         -50      30.9606 -5.13379e-05  -2.5971e-05     -21.2132 
         -50      31.1315 -5.13141e-05 -2.59671e-05     -21.2107 
         -50      31.3028 -5.12816e-05 -2.59607e-05     -21.2082 
         -50      31.4745 -5.12352e-05 -2.59539e-05     -21.2056 
         -50      31.6468   -5.117e-05 -2.59486e-05     -21.2031 
         -50      31.8194  -5.1082e-05 -2.59456e-05     -21.2006 
         -50      31.9926  -5.0968e-05 -2.59451e-05      -21.198 
         -50      32.1662 -5.08262e-05 -2.59464e-05     -21.1954 
         -50      32.3404 -5.06557e-05 -2.59483e-05     -21.1929 
         -50      32.5149 -5.04574e-05  -2.5949e-05     -21.1903 
         -50        32.69 -5.02334e-05 -2.59463e-05     -21.1877 
         -50      32.8655 -4.99879e-05 -2.59377e-05      -21.185 
         -50      33.0414 -4.97271e-05 -2.59212e-05     -21.1824 
         -50       33.218 -4.94584e-05 -2.58947e-05     -21.1798 
         -50      33.3948 -4.91922e-05 -2.58574e-05     -21.1771 
         -50      33.5723 -4.89401e-05 -2.58095e-05     -21.1745 
         -50        33.75 -4.87169e-05 -2.57531e-05     -21.1718 
         -50      33.9284 -4.85387e-05 -2.56927e-05     -21.1691 
         -50      34.1073 -4.84244e-05 -2.56358e-05     -21.1664 
         -50      34.2865 -4.83949e-05 -2.55938e-05     -21.1637 
         -50      34.4663 -4.84734e-05 -2.55825e-05      -21.161 
         -50      34.6465 -4.86851e-05 -2.56236e-05     -21.1583 
         -50      34.8272 -4.90579e-05 -2.57449e-05     -21.1556 
         -50      35.0083 -4.89444e-05 -2.57562e-05     -21.1528 
         -50        35.19 -4.85149e-05 -2.55514e-05     -21.1501 
         -50      35.3721 -4.82898e-05 -2.51864e-05     -21.1473 
         -50      35.5546 -4.82291e-05 -2.48176e-05     -21.1446 
         -50      35.7377 -4.80254e-05 -2.54918e-05     -21.1418 
         -50      35.9211 -4.79877e-05 -2.60943e-05      -21.139 
         -50      36.1052 -4.80772e-05 -2.66623e-05     -21.1362 
         -50      36.2895 -4.82592e-05 -2.72239e-05     -21.1334 
         -50      36.4745 -4.85027e-05 -2.78028e-05     -21.1305 
         -50      36.6598 -4.87798e-05  -2.8415e-05     -21.1277 
         -50      36.8457 -4.90204e-05 -2.90217e-05     -21.1249 
         -50      37.0321 -4.84976e-05 -2.87755e-05      -21.122 
         -50      37.2188 -4.80286e-05 -2.85362e-05     -21.1191 
         -50      37.4062 -4.76061e-05 -2.83087e-05     -21.1163 
         -50      37.5938 -4.72249e-05 -2.80972e-05     -21.1134 
         -50      37.7821 -4.68789e-05 -2.79038e-05     -21.1105 
         -50      37.9707 -4.65638e-05 -2.77298e-05     -21.1076 
         -50      38.1599 -4.62746e-05  -2.7575e-05     -21.1047 
         -50      38.3496 -4.60076e-05 -2.74388e-05     -21.1018 
         -50      38.5396 -4.57595e-05 -2.73198e-05     -21.0989 
         -50      38.7302 -4.55267e-05 -2.72158e-05     -21.0959 
         -50      38.9211 -4.53071e-05 -2.71247e-05      -21.093 
         -50      39.1127 -4.50978e-05 -2.70439e-05       -21.09 
         -50      39.3046 -4.48975e-05 -2.69711e-05     -21.0871 
         -50      39.4971 -4.47041e-05 -2.69037e-05     -21.0841 
         -50      39.6899 -4.45168e-05 -2.68396e-05     -21.0811 
         -50      39.8833 -4.43343e-05 -2.67768e-05     -21.0781 
         -50      40.0772 -4.41561e-05 -2.67138e-05     -21.0751 
         -50      40.2714 -4.39819e-05 -2.66497e-05     -21.0721 
         -50      40.4663 -4.38111e-05 -2.65837e-05     -21.0691 
         -50      40.6615  -4.3644e-05 -2.65159e-05     -21.0661 
         -50      40.8573 -4.34803e-05 -2.64468e-05     -21.0631 
         -50      41.0534 -4.33204e-05 -2.63774e-05     -21.0601 
         -50      41.2501 -4.31642e-05 -2.63092e-05      -21.057 
         -50      41.4473 -4.30122e-05 -2.62442e-05      -21.054 
         -50      41.6448 -4.28644e-05  -2.6185e-05     -21.0509 
         -50      41.8429 -4.27209e-05  -2.6134e-05     -21.0478 
         -50      42.0414 -4.25816e-05 -2.60941e-05     -21.0448 
         -50      42.2405 -4.24461e-05 -2.60682e-05     -21.0417 
         -50      42.4399 -4.23142e-05 -2.60587e-05     -21.0386 
         -50      42.6399 -4.21848e-05  -2.6068e-05     -21.0355 
         -50      42.8404 -4.20568e-05 -2.60976e-05     -21.0324 
         -50      43.0412 -4.19287e-05 -2.61483e-05     -21.0293 
         -50      43.2426 -4.17982e-05 -2.62195e-05     -21.0262 
         -50      43.4444 -4.16628e-05  -2.6309e-05     -21.0231 
         -50      43.6467 -4.15191e-05 -2.64131e-05     -21.0199 
         -50      43.8494 -4.13633e-05 -2.65251e-05     -21.0168 
         -50      44.0527 -4.11902e-05 -2.66362e-05     -21.0136 
         -50      44.2563 -4.09924e-05 -2.67317e-05     -21.0105 
         -50      44.4606 -4.07183e-05 -2.67659e-05     -21.0073 
         -50      44.6653 -4.05058e-05 -2.68463e-05     -21.0042 
         -50      44.8704 -4.03463e-05 -2.69434e-05      -21.001 
         -50       45.076 -4.02326e-05 -2.70332e-05     -20.9978 
         -50       45.282 -4.01588e-05 -2.70974e-05     -20.9947 
         -50      45.4886 -4.01181e-05 -2.71247e-05     -20.9915 
         -50      45.6955 -4.01024e-05 -2.71105e-05     -20.9883 
         -50       45.903 -4.00999e-05  -2.7058e-05     -20.9851 
         -50      46.1111 -4.00947e-05 -2.69787e-05     -20.9819 
         -50      46.3194 -4.00643e-05 -2.68928e-05     -20.9787 
         -50      46.5283 -3.99785e-05 -2.68296e-05     -20.9755 
         -50      46.7376 -3.97979e-05 -2.68284e-05     -20.9722 
         -50      46.9475 -3.94713e-05 -2.69384e-05      -20.969 
         -50      47.1577 -3.89351e-05 -2.72196e-05     -20.9658 
         -50      47.3685 -3.85065e-05 -2.74406e-05     -20.9626 
         -50      47.5798 -3.85884e-05 -2.72621e-05     -20.9593 
         -50      47.7914 -3.86033e-05 -2.71114e-05     -20.9561 
         -50      48.0037 -3.85636e-05 -2.69844e-05     -20.9528 