Variables = x, y, u, v, p

Zone, I=800, F=POINT
         -10            0  1.09446e-19  9.63484e-25       26.994 
         -10     0.000234   5.4217e-06  4.58909e-11       26.994 
         -10     0.000939  2.04213e-05  1.49639e-10       26.994 
         -10     0.002113   4.1312e-05  2.06706e-10       26.994 
         -10     0.003759  6.31773e-05  4.12692e-11       26.994 
         -10     0.005872  8.10482e-05 -5.94487e-10       26.994 
         -10     0.008457  9.14989e-05 -2.02287e-09       26.994 
         -10      0.01151  9.34579e-05 -4.63127e-09       26.994 
         -10     0.015036  8.85703e-05  -8.8741e-09       26.994 
         -10     0.019031  8.05706e-05 -1.52434e-08       26.994 
         -10     0.023493  7.38864e-05 -2.42577e-08       26.994 
         -10     0.028429  7.18223e-05 -3.64646e-08       26.994 
         -10     0.033831  7.50366e-05 -5.23697e-08       26.994 
         -10     0.039706  8.10241e-05 -7.25003e-08       26.994 
         -10     0.046047  8.53261e-05  -9.7323e-08       26.994 
         -10     0.052863  8.45786e-05  -1.2736e-07       26.994 
         -10      0.06015  8.02143e-05 -1.63098e-07       26.994 
         -10       0.0679  7.95725e-05 -2.05009e-07       26.994 
         -10     0.076126  8.75775e-05 -2.53647e-07       26.994 
         -10     0.084816  8.41858e-05 -3.09238e-07       26.994 
         -10     0.093982  8.66854e-05 -3.71995e-07       26.994 
         -10     0.103611  8.84175e-05 -4.42097e-07       26.994 
         -10     0.113718  8.97994e-05  -5.1983e-07       26.994 
         -10     0.124286  9.11259e-05  -6.0514e-07       26.994 
         -10     0.135333  9.25655e-05 -6.98152e-07       26.994 
         -10      0.14685  9.41594e-05 -7.98687e-07       26.994 
         -10     0.158827  9.58559e-05 -9.06478e-07       26.994 
         -10     0.171284  9.75641e-05 -1.02148e-06       26.994 
         -10     0.184201  9.92041e-05 -1.14325e-06       26.994 
         -10     0.197599  0.000100769 -1.27172e-06       26.994 
         -10     0.211455  0.000102333 -1.40639e-06       26.994 
         -10     0.225792  0.000103996 -1.54711e-06       26.994 
         -10       0.2406  0.000105692 -1.69331e-06       26.994 
         -10     0.255865  0.000107118 -1.84431e-06       26.994 
         -10     0.271613  0.000108637 -2.00014e-06       26.994 
         -10     0.287818   0.00011008 -2.15996e-06       26.994 
         -10     0.304506  0.000111447 -2.32374e-06       26.994 
         -10      0.32165  0.000112734 -2.49085e-06       26.994 
         -10     0.339278  0.000113941  -2.6612e-06       26.994 
         -10     0.357377  0.000115064 -2.83427e-06       26.994 
         -10      0.37593  0.000116098 -3.00956e-06       26.994 
         -10     0.394968  0.000117042 -3.18703e-06       26.994 
         -10     0.414461  0.000117891 -3.36614e-06       26.994 
         -10      0.43444  0.000118642 -3.54701e-06       26.994 
         -10     0.454872   0.00011929 -3.72927e-06       26.994 
         -10     0.475791  0.000119835 -3.91331e-06       26.994 
         -10     0.497163  0.000120273 -4.09899e-06       26.994 
         -10     0.519021  0.000120604 -4.28691e-06       26.994 
         -10      0.54135  0.000120826  -4.4773e-06       26.994 
         -10     0.564131  0.000120939 -4.67035e-06       26.994 
         -10       0.5874  0.000120939 -4.86664e-06       26.994 
         -10     0.611121  0.000120825 -5.06648e-06       26.994 
         -10      0.63533  0.000120613 -5.27571e-06       26.994 
         -10      0.65999  0.000120282 -5.48715e-06       26.994 
         -10     0.685139  0.000119832 -5.70072e-06       26.994 
         -10     0.710759  0.000119265 -5.91592e-06       26.994 
         -10     0.736828  0.000118585 -6.13227e-06       26.994 
         -10     0.763387  0.000117799 -6.34983e-06       26.994 
         -10     0.790396  0.000116915 -6.56806e-06       26.994 
         -10     0.817896  0.000115942 -6.78706e-06       26.994 
         -10     0.845843  0.000114891 -7.00625e-06       26.994 
         -10     0.874283  0.000113774 -7.22575e-06       26.994 
         -10      0.90317  0.000112603 -7.44491e-06       26.994 
         -10     0.932551  0.000111391 -7.66374e-06      26.9939 
         -10     0.962401   0.00011015 -7.88162e-06      26.9939 
         -10     0.992697  0.000108893 -8.09786e-06      26.9939 
         -10      1.02349  0.000107629  -8.3122e-06      26.9939 
         -10      1.05472   0.00010637 -8.52354e-06      26.9939 
         -10      1.08645   0.00010512  -8.7314e-06      26.9939 
         -10      1.11863  0.000103886 -8.93449e-06      26.9939 
         -10       1.1513  0.000102669 -9.13214e-06      26.9939 
         -10      1.18444  0.000101469 -9.32313e-06      26.9939 
         -10      1.21802  0.000100285  -9.5063e-06      26.9939 
         -10      1.25211  9.91079e-05 -9.68106e-06      26.9939 
         -10      1.28663  9.79327e-05 -9.84644e-06      26.9939 
         -10      1.32165  9.67474e-05 -1.00024e-05      26.9939 
         -10      1.35712  9.55438e-05 -1.01489e-05      26.9939 
         -10      1.39308  9.43107e-05 -1.02872e-05      26.9939 
         -10      1.42951  9.30422e-05 -1.04193e-05      26.9939 
         -10      1.46638  9.17379e-05 -1.05485e-05      26.9939 
         -10      1.50375  9.04026e-05 -1.06803e-05      26.9939 
         -10      1.54156  8.92976e-05 -1.06832e-05      26.9939 
         -10      1.57987  8.79716e-05  -1.0745e-05      26.9939 
         -10      1.61863   8.6476e-05 -1.08536e-05      26.9939 
         -10      1.65788  8.48777e-05  -1.0987e-05      26.9939 
         -10      1.69757  8.32389e-05 -1.11264e-05      26.9939 
         -10      1.73776   8.1607e-05 -1.12564e-05      26.9939 
         -10      1.77842  8.00242e-05 -1.13649e-05      26.9938 
         -10      1.81952  7.85228e-05 -1.14431e-05      26.9938 
         -10      1.86113  7.71226e-05 -1.14856e-05      26.9938 
         -10      1.90316  7.58389e-05   -1.149e-05      26.9938 
         -10      1.94571  7.46748e-05 -1.14569e-05      26.9938 
         -10      1.98869  7.36292e-05 -1.13898e-05      26.9938 
         -10      2.03217  7.26907e-05 -1.12946e-05      26.9938 
         -10      2.07612   7.1844e-05 -1.11795e-05      26.9938 
         -10      2.12051  7.10684e-05 -1.10548e-05      26.9938 
         -10       2.1654  7.03369e-05 -1.09322e-05      26.9938 
         -10      2.21073   6.9622e-05 -1.08248e-05      26.9938 
         -10      2.25656  6.88916e-05 -1.07464e-05      26.9938 
         -10      2.30283  6.81154e-05 -1.07114e-05      26.9938 
         -10       2.3496   6.7261e-05 -1.07339e-05      26.9937 
         -10      2.39685  6.62998e-05 -1.08276e-05      26.9937 
         -10      2.44452  6.52065e-05 -1.10049e-05      26.9937 
         -10      2.49271   6.3958e-05 -1.12773e-05      26.9937 
         -10      2.54132    6.254e-05 -1.16534e-05      26.9937 
         -10      2.59044  6.09414e-05 -1.21408e-05      26.9937 
         -10         2.64  5.91632e-05 -1.27425e-05      26.9937 
         -10      2.69006  5.72102e-05 -1.34602e-05      26.9937 
         -10      2.74056  5.51025e-05   -1.429e-05      26.9937 
         -10      2.79156  5.28633e-05 -1.52266e-05      26.9936 
         -10      2.84304   5.0531e-05 -1.62589e-05      26.9936 
         -10      2.89494   4.8154e-05 -1.73716e-05      26.9936 
         -10      2.94735  4.57839e-05 -1.85481e-05      26.9936 
         -10       3.0002  4.34879e-05 -1.97643e-05      26.9936 
         -10      3.05355  4.13318e-05  -2.0997e-05      26.9936 
         -10      3.10733  3.93921e-05  -2.2216e-05      26.9935 
         -10      3.16163  3.77397e-05 -2.33935e-05      26.9935 
         -10      3.21639  3.64467e-05 -2.44976e-05      26.9935 
         -10      3.27158  3.55761e-05 -2.54974e-05      26.9935 
         -10      3.32729  3.51745e-05 -2.63666e-05      26.9935 
         -10      3.38342  3.52695e-05   -2.708e-05      26.9935 
         -10      3.44007  3.58584e-05 -2.76218e-05      26.9934 
         -10      3.49714   3.6898e-05 -2.79837e-05      26.9934 
         -10      3.55472   3.8297e-05 -2.81719e-05      26.9934 
         -10      3.61273  3.98964e-05 -2.82085e-05      26.9934 
         -10      3.67125  4.14628e-05 -2.81372e-05      26.9934 
         -10      3.73025  4.26633e-05 -2.80281e-05      26.9933 
         -10      3.78967  4.35883e-05 -2.78426e-05      26.9933 
         -10      3.84961  4.47053e-05 -2.76487e-05      26.9933 
         -10      3.90996  4.59023e-05 -2.74704e-05      26.9933 
         -10      3.97084  4.71464e-05 -2.72771e-05      26.9932 
         -10      4.03214  4.84053e-05 -2.70475e-05      26.9932 
         -10      4.09395   4.9655e-05 -2.67663e-05      26.9932 
         -10      4.15624  5.08731e-05 -2.64238e-05      26.9932 
         -10      4.21895  5.20422e-05 -2.60137e-05      26.9931 
         -10      4.28217  5.31695e-05  -2.5797e-05      26.9931 
         -10      4.34582  5.42362e-05 -2.55756e-05      26.9931 
         -10      4.40998  5.52419e-05 -2.52804e-05       26.993 
         -10      4.47457   5.6192e-05 -2.49294e-05       26.993 
         -10      4.53968  5.70975e-05 -2.45423e-05       26.993 
         -10      4.60525  5.79684e-05 -2.41408e-05       26.993 
         -10      4.67125  5.88148e-05 -2.37453e-05      26.9929 
         -10      4.73777  5.96476e-05  -2.3372e-05      26.9929 
         -10       4.8047  6.04726e-05 -2.30333e-05      26.9928 
         -10      4.87216  6.12948e-05 -2.27333e-05      26.9928 
         -10      4.94003  6.21122e-05  -2.2468e-05      26.9928 
         -10      5.00843  6.29203e-05 -2.22219e-05      26.9927 
         -10      5.07724  6.37061e-05 -2.19681e-05      26.9927 
         -10      5.14658  6.44533e-05 -2.16651e-05      26.9927 
         -10      5.21639  6.51369e-05 -2.12574e-05      26.9926 
         -10      5.28661   6.5762e-05 -2.07654e-05      26.9926 
         -10      5.35736  6.64637e-05 -2.06172e-05      26.9925 
         -10      5.42852  6.70568e-05  -2.0352e-05      26.9925 
         -10      5.50021  6.75783e-05 -2.00046e-05      26.9924 
         -10      5.57231  6.80536e-05 -1.95997e-05      26.9924 
         -10      5.64493   6.8502e-05 -1.91522e-05      26.9923 
         -10      5.71803  6.89356e-05 -1.86718e-05      26.9923 
         -10      5.79154  6.93621e-05 -1.81638e-05      26.9922 
         -10      5.86558  6.97872e-05   -1.763e-05      26.9922 
         -10      5.94003  7.02134e-05 -1.70729e-05      26.9921 
         -10      6.01501   7.0644e-05 -1.64939e-05      26.9921 
         -10       6.0904   7.1081e-05 -1.58974e-05       26.992 
         -10      6.16632   7.1528e-05 -1.52878e-05       26.992 
         -10      6.24271  7.19885e-05 -1.46723e-05      26.9919 
         -10       6.3195  7.24656e-05 -1.40592e-05      26.9918 
         -10      6.39683  7.29629e-05 -1.34549e-05      26.9918 
         -10      6.47457  7.34803e-05 -1.28653e-05      26.9917 
         -10      6.55284  7.40149e-05 -1.22886e-05      26.9917 
         -10      6.63152  7.45552e-05 -1.17158e-05      26.9916 
         -10      6.71073  7.50806e-05 -1.11217e-05      26.9915 
         -10      6.79034  7.55545e-05 -1.04628e-05      26.9915 
         -10      6.87049  7.59212e-05 -9.66613e-06      26.9914 
         -10      6.95111  7.60573e-05 -8.83319e-06      26.9913 
         -10      7.03214  7.57654e-05 -8.46094e-06      26.9912 
         -10       7.1137  7.60965e-05  -7.8585e-06      26.9912 
         -10      7.19566  7.65868e-05  -7.4649e-06      26.9911 
         -10      7.27816  7.72515e-05 -7.04615e-06       26.991 
         -10      7.36106  7.77952e-05 -6.57557e-06      26.9909 
         -10      7.44451  7.82333e-05 -6.09381e-06      26.9908 
         -10      7.52842  7.85876e-05 -5.63264e-06      26.9907 
         -10      7.61273  7.88824e-05 -5.21391e-06      26.9907 
         -10      7.69758  7.91414e-05 -4.84887e-06      26.9906 
         -10      7.78283  7.93823e-05 -4.54115e-06      26.9905 
         -10      7.86862  7.96164e-05 -4.28528e-06      26.9904 
         -10      7.95481  7.98457e-05 -4.07006e-06      26.9903 
         -10      8.04155  8.00639e-05 -3.87849e-06      26.9902 
         -10      8.12868  8.02566e-05 -3.69129e-06      26.9901 
         -10      8.21635  8.04052e-05  -3.4881e-06        26.99 
         -10      8.30449  8.04898e-05 -3.25155e-06      26.9899 
         -10      8.39303  8.04965e-05 -2.97043e-06      26.9898 
         -10      8.48211  8.04252e-05 -2.64295e-06      26.9897 
         -10      8.57159  8.02999e-05 -2.28305e-06      26.9895 
         -10      8.66161  8.01815e-05 -1.92369e-06      26.9894 
         -10      8.75203  8.01831e-05 -1.62497e-06      26.9893 
         -10      8.84299  8.04885e-05 -1.47882e-06      26.9892 
         -10      8.93443  8.07628e-05 -1.09046e-06      26.9891 
         -10      9.02626  8.06171e-05 -3.62158e-07       26.989 
         -10      9.11863  8.05908e-05   1.6734e-07      26.9888 
         -10      9.21139  8.06161e-05  6.15138e-07      26.9887 
         -10      9.30471  8.06483e-05  1.05932e-06      26.9886 
         -10      9.39841  8.06685e-05  1.51576e-06      26.9884 
         -10      9.49267  8.06915e-05  1.92952e-06      26.9883 
         -10      9.58739  8.07121e-05  2.21978e-06      26.9882 
         -10      9.68251   8.0776e-05   2.5149e-06       26.988 
         -10      9.77817  8.08756e-05  2.82261e-06      26.9879 
         -10      9.87422  8.09822e-05  3.12491e-06      26.9877 
         -10      9.97083  8.10784e-05  3.40717e-06      26.9876 
         -10      10.0678  8.11565e-05  3.65976e-06      26.9874 
         -10      10.1654  8.12176e-05   3.8821e-06      26.9873 
         -10      10.2633  8.12692e-05  4.08182e-06      26.9871 
         -10      10.3618  8.13237e-05  4.27556e-06      26.9869 
         -10      10.4607   8.1395e-05  4.48529e-06      26.9868 
         -10      10.5601  8.14955e-05  4.73438e-06      26.9866 
         -10        10.66  8.16331e-05  5.04185e-06      26.9864 
         -10      10.7603  8.18061e-05  5.41209e-06      26.9862 
         -10      10.8611  8.19994e-05  5.82575e-06      26.9861 
         -10      10.9623  8.21779e-05  6.22359e-06      26.9859 
         -10      11.0641  8.22821e-05  6.49221e-06      26.9857 
         -10      11.1663  8.22255e-05  6.46611e-06      26.9855 
         -10       11.269  8.22469e-05  6.95033e-06      26.9853 
         -10      11.3721  8.22764e-05  7.33192e-06      26.9851 
         -10      11.4757  8.23134e-05  7.63209e-06      26.9849 
         -10      11.5798   8.2349e-05  7.86709e-06      26.9847 
         -10      11.6844   8.2369e-05  8.04693e-06      26.9845 
         -10      11.7894  8.23572e-05  8.17869e-06      26.9843 
         -10       11.895  8.22993e-05   8.2684e-06      26.9841 
         -10      12.0009  8.21878e-05   8.3258e-06      26.9839 
         -10      12.1073  8.20269e-05  8.36998e-06      26.9837 
         -10      12.2142  8.18397e-05  8.43615e-06      26.9834 
         -10      12.3216  8.16743e-05  8.58479e-06      26.9832 
         -10      12.4294  8.16127e-05  8.91144e-06       26.983 
         -10      12.5378  8.15406e-05  9.19933e-06      26.9827 
         -10      12.6465  8.13402e-05  9.23171e-06      26.9825 
         -10      12.7558  8.11909e-05  9.29596e-06      26.9823 
         -10      12.8656  8.10876e-05  9.39717e-06       26.982 
         -10      12.9757   8.1027e-05  9.53328e-06      26.9818 
         -10      13.0864  8.10055e-05  9.69667e-06      26.9815 
         -10      13.1975  8.10192e-05   9.8749e-06      26.9812 
         -10      13.3092  8.10625e-05  1.00535e-05       26.981 
         -10      13.4212  8.11284e-05   1.0217e-05      26.9807 
         -10      13.5338  8.12078e-05  1.03527e-05      26.9804 
         -10      13.6468  8.12901e-05  1.04528e-05      26.9802 
         -10      13.7603  8.13633e-05  1.05178e-05      26.9799 
         -10      13.8743  8.14154e-05   1.0561e-05      26.9796 
         -10      13.9886  8.14353e-05  1.06122e-05      26.9793 
         -10      14.1036  8.14148e-05   1.0723e-05       26.979 
         -10      14.2189  8.13505e-05  1.09713e-05      26.9787 
         -10      14.3348  8.10704e-05  1.12297e-05      26.9784 
         -10       14.451   8.0429e-05  1.09442e-05      26.9781 
         -10      14.5678  8.00809e-05  1.08055e-05      26.9778 
         -10      14.6851  7.99422e-05  1.07767e-05      26.9775 
         -10      14.8028  7.99428e-05  1.08268e-05      26.9772 
         -10       14.921  8.00259e-05  1.09304e-05      26.9768 
         -10      15.0396  8.01468e-05  1.10669e-05      26.9765 
         -10      15.1588  8.02715e-05  1.12209e-05      26.9762 
         -10      15.2783  8.03755e-05  1.13803e-05      26.9758 
         -10      15.3984  8.04427e-05  1.15372e-05      26.9755 
         -10       15.519   8.0464e-05  1.16865e-05      26.9751 
         -10        15.64  8.04364e-05  1.18257e-05      26.9748 
         -10      15.7615  8.03617e-05  1.19545e-05      26.9744 
         -10      15.8834  8.02456e-05  1.20743e-05      26.9741 
         -10      16.0058  8.00966e-05  1.21876e-05      26.9737 
         -10      16.1286  7.99251e-05  1.22974e-05      26.9733 
         -10       16.252  7.97424e-05  1.24075e-05      26.9729 
         -10      16.3759  7.95603e-05  1.25211e-05      26.9726 
         -10      16.5002  7.93903e-05  1.26408e-05      26.9722 
         -10       16.625  7.92425e-05  1.27689e-05      26.9718 
         -10      16.7501  7.91259e-05  1.29056e-05      26.9714 
         -10      16.8759  7.90475e-05  1.30502e-05       26.971 
         -10       17.002  7.90125e-05  1.31998e-05      26.9706 
         -10      17.1287   7.9024e-05  1.33495e-05      26.9702 
         -10      17.2557  7.90831e-05   1.3492e-05      26.9697 
         -10      17.3834  7.91893e-05  1.36177e-05      26.9693 
         -10      17.5115  7.93409e-05  1.37141e-05      26.9689 
         -10      17.6399  7.95354e-05  1.37663e-05      26.9684 
         -10       17.769  7.97712e-05  1.37567e-05       26.968 
         -10      17.8984  8.00473e-05  1.36653e-05      26.9676 
         -10      18.0284  8.03665e-05  1.34691e-05      26.9671 
         -10      18.1587  8.02328e-05  1.38765e-05      26.9667 
         -10      18.2896  8.03655e-05   1.3919e-05      26.9662 
         -10       18.421  8.01319e-05  1.35491e-05      26.9657 
         -10      18.5528   7.9477e-05  1.36773e-05      26.9653 
         -10      18.6851  7.89784e-05   1.3814e-05      26.9648 
         -10      18.8178  7.86141e-05  1.39371e-05      26.9643 
         -10      18.9511  7.83595e-05  1.40348e-05      26.9638 
         -10      19.0847   7.8191e-05  1.41032e-05      26.9633 
         -10      19.2189  7.80851e-05  1.41448e-05      26.9628 
         -10      19.3535  7.80209e-05   1.4166e-05      26.9623 
         -10      19.4886  7.79794e-05  1.41758e-05      26.9618 
         -10      19.6242  7.79452e-05  1.41838e-05      26.9613 
         -10      19.7602  7.79065e-05  1.41995e-05      26.9607 
         -10      19.8968  7.78552e-05  1.42307e-05      26.9602 
         -10      20.0337  7.77875e-05  1.42827e-05      26.9597 
         -10      20.1712  7.77033e-05  1.43579e-05      26.9591 
         -10      20.3091  7.76061e-05  1.44555e-05      26.9586 
         -10      20.4475  7.75025e-05  1.45712e-05       26.958 
         -10      20.5864  7.74015e-05  1.46979e-05      26.9575 
         -10      20.7257  7.73133e-05  1.48263e-05      26.9569 
         -10      20.8655   7.7248e-05  1.49458e-05      26.9563 
         -10      21.0058  7.72141e-05  1.50463e-05      26.9558 
         -10      21.1465  7.72166e-05    1.512e-05      26.9552 
         -10      21.2877  7.72547e-05  1.51637e-05      26.9546 
         -10      21.4294  7.73195e-05  1.51817e-05       26.954 
         -10      21.5716  7.73906e-05  1.51895e-05      26.9534 
         -10      21.7142  7.74332e-05  1.52172e-05      26.9528 
         -10      21.8573  7.73943e-05  1.53147e-05      26.9522 
         -10      22.0008  7.71986e-05  1.55561e-05      26.9515 
         -10      22.1449  7.67435e-05  1.60465e-05      26.9509 
         -10      22.2893  7.66747e-05  1.60066e-05      26.9503 
         -10      22.4344  7.66817e-05   1.6023e-05      26.9496 
         -10      22.5797  7.66894e-05  1.61477e-05       26.949 
         -10      22.7257  7.66964e-05  1.63144e-05      26.9483 
         -10      22.8721  7.66941e-05  1.64617e-05      26.9477 
         -10      23.0189  7.66705e-05  1.65391e-05       26.947 
         -10      23.1663  7.66129e-05  1.65139e-05      26.9463 
         -10       23.314  7.65102e-05  1.63779e-05      26.9457 
         -10      23.4623  7.63536e-05   1.6155e-05       26.945 
         -10       23.611  7.61366e-05    1.591e-05      26.9443 
         -10      23.7602  7.58529e-05  1.57561e-05      26.9436 
         -10        23.91  7.54948e-05  1.58659e-05      26.9429 
         -10        24.06  7.52615e-05  1.62596e-05      26.9422 
         -10      24.2107  7.55862e-05  1.61806e-05      26.9415 
         -10      24.3617  7.57563e-05  1.61135e-05      26.9407 
         -10      24.5133  7.58066e-05  1.60751e-05        26.94 
         -10      24.6653  7.57698e-05   1.6077e-05      26.9393 
         -10      24.8178  7.56759e-05  1.61251e-05      26.9385 
         -10      24.9708   7.5552e-05  1.62194e-05      26.9378 
         -10      25.1242  7.54214e-05  1.63539e-05       26.937 
         -10      25.2781  7.53029e-05  1.65174e-05      26.9362 
         -10      25.4324  7.52104e-05  1.66938e-05      26.9355 
         -10      25.5873  7.51523e-05  1.68643e-05      26.9347 
         -10      25.7426  7.51312e-05  1.70078e-05      26.9339 
         -10      25.8984   7.5143e-05  1.71045e-05      26.9331 
         -10      26.0546  7.51769e-05  1.71371e-05      26.9323 
         -10      26.2114  7.52148e-05  1.70949e-05      26.9315 
         -10      26.3686  7.52308e-05  1.69771e-05      26.9307 
         -10      26.5262  7.51911e-05   1.6797e-05      26.9299 
         -10      26.6844  7.50536e-05  1.65868e-05      26.9291 
         -10      26.8429  7.47679e-05  1.64033e-05      26.9282 
         -10       27.002  7.42823e-05  1.63364e-05      26.9274 
         -10      27.1615  7.45579e-05   1.6679e-05      26.9265 
         -10      27.3216   7.4689e-05  1.69136e-05      26.9257 
         -10      27.4821  7.46993e-05  1.70583e-05      26.9248 
         -10       27.643  7.46167e-05  1.71321e-05       26.924 
         -10      27.8044  7.44713e-05  1.71539e-05      26.9231 
         -10      27.9663  7.42937e-05  1.71422e-05      26.9222 
         -10      28.1287  7.41126e-05  1.71144e-05      26.9213 
         -10      28.2914  7.39541e-05  1.70866e-05      26.9204 
         -10      28.4548  7.38392e-05  1.70723e-05      26.9195 
         -10      28.6185  7.37831e-05  1.70824e-05      26.9186 
         -10      28.7828  7.37929e-05  1.71243e-05      26.9177 
         -10      28.9475   7.3867e-05   1.7201e-05      26.9168 
         -10      29.1126  7.39938e-05  1.73104e-05      26.9158 
         -10      29.2784  7.41504e-05  1.74449e-05      26.9149 
         -10      29.4444  7.43015e-05  1.75895e-05       26.914 
         -10       29.611  7.43997e-05  1.77222e-05       26.913 
         -10       29.778  7.43832e-05  1.78117e-05      26.9121 
         -10      29.9456  7.41767e-05  1.78177e-05      26.9111 
         -10      30.1137  7.36903e-05  1.76885e-05      26.9101 
         -10      30.2821  7.28208e-05  1.73612e-05      26.9091 
         -10      30.4511  7.29219e-05  1.71424e-05      26.9081 
         -10      30.6204  7.29411e-05  1.70798e-05      26.9072 
         -10      30.7903  7.28873e-05  1.71163e-05      26.9062 
         -10      30.9606  7.27912e-05  1.72081e-05      26.9051 
         -10      31.1315  7.26759e-05  1.73207e-05      26.9041 
         -10      31.3028  7.25583e-05  1.74291e-05      26.9031 
         -10      31.4745  7.24489e-05  1.75173e-05      26.9021 
         -10      31.6468  7.23527e-05  1.75783e-05       26.901 
         -10      31.8194  7.22712e-05  1.76125e-05         26.9 
         -10      31.9926  7.22029e-05  1.76279e-05      26.8989 
         -10      32.1662  7.21459e-05  1.76384e-05      26.8979 
         -10      32.3404  7.20995e-05   1.7663e-05      26.8968 
         -10      32.5149  7.20674e-05  1.77242e-05      26.8957 
         -10        32.69  7.20601e-05  1.78463e-05      26.8947 
         -10      32.8655  7.20988e-05  1.80541e-05      26.8936 
         -10      33.0414  7.22183e-05  1.83697e-05      26.8925 
         -10       33.218  7.20681e-05  1.83864e-05      26.8914 
         -10      33.3948  7.18589e-05  1.82675e-05      26.8903 
         -10      33.5723  7.17404e-05  1.81975e-05      26.8891 
         -10        33.75  7.16815e-05  1.81698e-05       26.888 
         -10      33.9284  7.16577e-05  1.81747e-05      26.8869 
         -10      34.1073  7.16506e-05   1.8201e-05      26.8857 
         -10      34.2865  7.16467e-05  1.82368e-05      26.8846 
         -10      34.4663  7.16373e-05   1.8271e-05      26.8834 
         -10      34.6465  7.16171e-05  1.82942e-05      26.8823 
         -10      34.8272  7.15839e-05  1.82993e-05      26.8811 
         -10      35.0083  7.15381e-05  1.82829e-05      26.8799 
         -10        35.19  7.14817e-05  1.82453e-05      26.8788 
         -10      35.3721  7.14183e-05  1.81916e-05      26.8776 
         -10      35.5546  7.13525e-05  1.81316e-05      26.8764 
         -10      35.7377  7.12891e-05  1.80805e-05      26.8752 
         -10      35.9211  7.12338e-05  1.80585e-05       26.874 
         -10      36.1052   7.1192e-05  1.80913e-05      26.8727 
         -10      36.2895  7.11693e-05  1.82091e-05      26.8715 
         -10      36.4745  7.11714e-05  1.84472e-05      26.8703 
         -10      36.6598  7.12037e-05  1.88439e-05       26.869 
         -10      36.8457  7.11292e-05  1.92304e-05      26.8678 
         -10      37.0321  7.07181e-05  1.91355e-05      26.8665 
         -10      37.2188  7.03825e-05  1.90719e-05      26.8653 
         -10      37.4062  7.01212e-05   1.9033e-05       26.864 
         -10      37.5938  6.99307e-05  1.90131e-05      26.8627 
         -10      37.7821  6.98029e-05  1.90068e-05      26.8614 
         -10      37.9707  6.97278e-05  1.90096e-05      26.8601 
         -10      38.1599  6.96928e-05  1.90181e-05      26.8588 
         -10      38.3496  6.96843e-05  1.90305e-05      26.8575 
         -10      38.5396  6.96878e-05  1.90463e-05      26.8562 
         -10      38.7302  6.96895e-05  1.90673e-05      26.8549 
         -10      38.9211   6.9677e-05  1.90975e-05      26.8536 
         -10      39.1127  6.96406e-05  1.91439e-05      26.8522 
         -10      39.3046  6.95743e-05  1.92162e-05      26.8509 
         -10      39.4971  6.94777e-05  1.93282e-05      26.8496 
         -10      39.6899  6.93569e-05  1.94972e-05      26.8482 
         -10      39.8833  6.92267e-05  1.97457e-05      26.8468 
         -10      40.0772  6.90748e-05  2.00299e-05      26.8455 
         -10      40.2714  6.86991e-05  1.98429e-05      26.8441 
         -10      40.4663  6.84134e-05  1.97124e-05      26.8427 
         -10      40.6615  6.82056e-05  1.96252e-05      26.8413 
         -10      40.8573  6.80633e-05  1.95692e-05      26.8399 
         -10      41.0534  6.79752e-05  1.95341e-05      26.8385 
         -10      41.2501  6.79306e-05  1.95108e-05      26.8371 
         -10      41.4473  6.79196e-05  1.94917e-05      26.8357 
         -10      41.6448  6.79331e-05  1.94707e-05      26.8343 
         -10      41.8429  6.79629e-05  1.94431e-05      26.8328 
         -10      42.0414  6.80018e-05  1.94058e-05      26.8314 
         -10      42.2405  6.80435e-05  1.93565e-05      26.8299 
         -10      42.4399  6.80825e-05  1.92949e-05      26.8285 
         -10      42.6399  6.81145e-05  1.92212e-05       26.827 
         -10      42.8404  6.81359e-05  1.91373e-05      26.8255 
         -10      43.0412  6.81442e-05  1.90456e-05      26.8241 
         -10      43.2426  6.81377e-05  1.89496e-05      26.8226 
         -10      43.4444  6.81155e-05  1.88532e-05      26.8211 
         -10      43.6467  6.80776e-05   1.8761e-05      26.8196 
         -10      43.8494  6.80247e-05  1.86777e-05      26.8181 
         -10      44.0527  6.79579e-05   1.8608e-05      26.8166 
         -10      44.2563  6.78792e-05  1.85563e-05      26.8151 
         -10      44.4606  6.77906e-05  1.85267e-05      26.8136 
         -10      44.6653  6.76946e-05  1.85222e-05       26.812 
         -10      44.8704  6.75939e-05  1.85446e-05      26.8105 
         -10       45.076  6.74907e-05  1.85943e-05       26.809 
         -10       45.282  6.73875e-05  1.86695e-05      26.8074 
         -10      45.4886  6.72858e-05  1.87663e-05      26.8059 
         -10      45.6955   6.7187e-05  1.88775e-05      26.8043 
         -10       45.903   6.7091e-05  1.89931e-05      26.8027 
         -10      46.1111  6.69968e-05  1.90987e-05      26.8011 
         -10      46.3194   6.6902e-05  1.91756e-05      26.7996 
         -10      46.5283   6.6802e-05  1.92002e-05       26.798 
         -10      46.7376  6.66904e-05  1.91429e-05      26.7964 
         -10      46.9475   6.6558e-05   1.8968e-05      26.7948 
         -10      47.1577  6.63931e-05  1.86327e-05      26.7932 
         -10      47.3685  6.61889e-05   1.8173e-05      26.7916 
         -10      47.5798  6.60546e-05  1.84078e-05      26.7899 
         -10      47.7914  6.59426e-05  1.85892e-05      26.7883 
         -10      48.0037   6.5851e-05  1.87221e-05      26.7867 