Variables = x, y, u, v, p

Zone, I=800, F=POINT
          -5            0            0            0      40.6616 
          -5     0.000234 -3.67269e-06 -2.26743e-10      40.6616 
          -5     0.000939 -1.38275e-05 -8.32347e-10      40.6616 
          -5     0.002113 -2.79561e-05  -1.5965e-09      40.6616 
          -5     0.003759 -4.27293e-05 -2.20026e-09      40.6616 
          -5     0.005872 -5.48162e-05 -2.27701e-09      40.6616 
          -5     0.008457  -6.1977e-05 -1.48047e-09      40.6616 
          -5      0.01151 -6.36088e-05  4.60982e-10      40.6616 
          -5     0.015036  -6.0963e-05  3.71263e-09      40.6616 
          -5     0.019031 -5.66699e-05  8.31294e-09      40.6616 
          -5     0.023493 -5.37347e-05  1.41999e-08      40.6616 
          -5     0.028429 -5.42677e-05  2.12688e-08      40.6616 
          -5     0.033831 -5.84434e-05  2.93921e-08      40.6616 
          -5     0.039706 -6.42331e-05  3.85047e-08      40.6616 
          -5     0.046047 -6.83666e-05  4.85688e-08      40.6616 
          -5     0.052863 -6.86021e-05  5.95781e-08      40.6616 
          -5      0.06015 -6.63545e-05   7.1422e-08      40.6616 
          -5       0.0679 -6.72541e-05  8.38034e-08      40.6616 
          -5     0.076126 -7.45481e-05  9.62849e-08      40.6616 
          -5     0.084816 -7.22898e-05  1.08033e-07      40.6616 
          -5     0.093982  -7.5275e-05  1.20525e-07      40.6616 
          -5     0.103611 -7.73752e-05  1.34446e-07      40.6616 
          -5     0.113718 -7.90094e-05   1.4579e-07      40.6616 
          -5     0.124286 -8.04751e-05  1.52736e-07      40.6616 
          -5     0.135333 -8.19448e-05  1.55409e-07      40.6616 
          -5      0.14685 -8.34643e-05  1.55088e-07      40.6616 
          -5     0.158827 -8.49869e-05  1.53142e-07      40.6616 
          -5     0.171284 -8.64268e-05  1.49776e-07      40.6616 
          -5     0.184201 -8.77105e-05   1.4307e-07      40.6616 
          -5     0.197599 -8.88384e-05  1.28855e-07      40.6616 
          -5     0.211455 -8.98942e-05  1.02466e-07      40.6616 
          -5     0.225792 -9.09955e-05  6.33955e-08      40.6616 
          -5       0.2406 -9.20983e-05  2.49747e-08      40.6616 
          -5     0.255865 -9.28928e-05   4.6734e-09      40.6616 
          -5     0.271613 -9.37246e-05 -3.69052e-08      40.6616 
          -5     0.287818 -9.44864e-05 -8.79654e-08      40.6616 
          -5     0.304506  -9.5187e-05 -1.47878e-07      40.6616 
          -5      0.32165 -9.58329e-05  -2.1507e-07      40.6616 
          -5     0.339278 -9.64273e-05 -2.89251e-07      40.6616 
          -5     0.357377 -9.69718e-05 -3.69926e-07      40.6616 
          -5      0.37593 -9.74676e-05 -4.56535e-07      40.6616 
          -5     0.394968 -9.79167e-05 -5.48717e-07      40.6616 
          -5     0.414461 -9.83191e-05 -6.45799e-07      40.6616 
          -5      0.43444 -9.86756e-05 -7.47398e-07      40.6616 
          -5     0.454872 -9.89848e-05 -8.52806e-07      40.6616 
          -5     0.475791 -9.92458e-05  -9.6166e-07      40.6616 
          -5     0.497163 -9.94559e-05 -1.07325e-06      40.6616 
          -5     0.519021 -9.96124e-05 -1.18725e-06      40.6617 
          -5      0.54135 -9.97115e-05 -1.30308e-06      40.6617 
          -5     0.564131 -9.97488e-05 -1.42019e-06      40.6617 
          -5       0.5874 -9.97194e-05 -1.53832e-06      40.6617 
          -5     0.611121 -9.96183e-05 -1.65689e-06      40.6617 
          -5      0.63533 -9.94397e-05 -1.77572e-06      40.6617 
          -5      0.65999 -9.91789e-05 -1.89428e-06      40.6617 
          -5     0.685139 -9.88302e-05 -2.01246e-06      40.6617 
          -5     0.710759 -9.83896e-05 -2.12989e-06      40.6617 
          -5     0.736828  -9.7854e-05 -2.24622e-06      40.6617 
          -5     0.763387 -9.72201e-05 -2.36144e-06      40.6617 
          -5     0.790396 -9.64878e-05 -2.47515e-06      40.6618 
          -5     0.817896 -9.56565e-05 -2.58735e-06      40.6618 
          -5     0.845843 -9.47299e-05 -2.69771e-06      40.6618 
          -5     0.874283 -9.37104e-05 -2.80627e-06      40.6618 
          -5      0.90317 -9.26052e-05 -2.91274e-06      40.6618 
          -5     0.932551 -9.14195e-05 -3.01722e-06      40.6618 
          -5     0.962401 -9.01619e-05 -3.11958e-06      40.6618 
          -5     0.992697 -8.88416e-05 -3.21978e-06      40.6619 
          -5      1.02349 -8.74633e-05 -3.31815e-06      40.6619 
          -5      1.05472 -8.60337e-05 -3.41479e-06      40.6619 
          -5      1.08645 -8.45504e-05 -3.51036e-06      40.6619 
          -5      1.11863 -8.30089e-05 -3.60547e-06      40.6619 
          -5       1.1513 -8.14103e-05 -3.70022e-06      40.6619 
          -5      1.18444 -7.98435e-05  -3.7877e-06       40.662 
          -5      1.21802  -7.8251e-05 -3.87157e-06       40.662 
          -5      1.25211 -7.66422e-05  -3.9532e-06       40.662 
          -5      1.28663 -7.50312e-05 -4.03314e-06       40.662 
          -5      1.32165 -7.34254e-05 -4.11174e-06      40.6621 
          -5      1.35712 -7.18365e-05 -4.18869e-06      40.6621 
          -5      1.39308 -7.02696e-05 -4.26361e-06      40.6621 
          -5      1.42951 -6.87323e-05 -4.33572e-06      40.6621 
          -5      1.46638 -6.72306e-05  -4.4041e-06      40.6622 
          -5      1.50375 -6.57652e-05 -4.46791e-06      40.6622 
          -5      1.54156 -6.43402e-05 -4.52615e-06      40.6622 
          -5      1.57987 -6.29534e-05 -4.57807e-06      40.6623 
          -5      1.61863 -6.16057e-05 -4.62283e-06      40.6623 
          -5      1.65788 -6.02921e-05 -4.65989e-06      40.6623 
          -5      1.69757 -5.90111e-05 -4.68867e-06      40.6624 
          -5      1.73776 -5.77558e-05 -4.70869e-06      40.6624 
          -5      1.77842  -5.6522e-05 -4.71931e-06      40.6624 
          -5      1.81952 -5.52854e-05 -4.71779e-06      40.6625 
          -5      1.86113 -5.40309e-05 -4.70701e-06      40.6625 
          -5      1.90316 -5.27476e-05 -4.68879e-06      40.6625 
          -5      1.94571 -5.14231e-05 -4.66293e-06      40.6626 
          -5      1.98869 -5.00558e-05 -4.62673e-06      40.6626 
          -5      2.03217 -4.86514e-05 -4.57361e-06      40.6627 
          -5      2.07612 -4.72349e-05 -4.49193e-06      40.6627 
          -5      2.12051 -4.57899e-05 -4.42163e-06      40.6627 
          -5       2.1654 -4.42455e-05 -4.35009e-06      40.6628 
          -5      2.21073 -4.26303e-05 -4.23387e-06      40.6628 
          -5      2.25656 -4.09447e-05   -4.078e-06      40.6629 
          -5      2.30283 -3.91981e-05 -3.88478e-06      40.6629 
          -5       2.3496 -3.73995e-05 -3.65455e-06       40.663 
          -5      2.39685 -3.55401e-05  -3.4111e-06       40.663 
          -5      2.44452 -3.36188e-05 -3.14699e-06      40.6631 
          -5      2.49271 -3.16607e-05 -2.84323e-06      40.6631 
          -5      2.54132 -2.96823e-05 -2.50683e-06      40.6632 
          -5      2.59044 -2.76985e-05 -2.14554e-06      40.6632 
          -5         2.64 -2.57342e-05 -1.76951e-06      40.6633 
          -5      2.69006 -2.38108e-05 -1.38861e-06      40.6633 
          -5      2.74056  -2.1958e-05 -1.01429e-06      40.6634 
          -5      2.79156  -2.0201e-05 -6.56761e-07      40.6634 
          -5      2.84304 -1.85695e-05 -3.26643e-07      40.6635 
          -5      2.89494 -1.70925e-05 -3.35362e-08      40.6636 
          -5      2.94735 -1.57936e-05  2.14974e-07      40.6636 
          -5       3.0002 -1.46983e-05  4.12125e-07      40.6637 
          -5      3.05355 -1.38248e-05  5.53843e-07      40.6637 
          -5      3.10733 -1.31893e-05  6.37739e-07      40.6638 
          -5      3.16163 -1.27999e-05  6.64123e-07      40.6639 
          -5      3.21639 -1.26597e-05  6.35473e-07      40.6639 
          -5      3.27158 -1.27628e-05   5.5673e-07       40.664 
          -5      3.32729 -1.30952e-05  4.34677e-07       40.664 
          -5      3.38342 -1.37189e-05   2.2267e-07      40.6641 
          -5      3.44007 -1.46653e-05 -1.11466e-07      40.6642 
          -5      3.49714 -1.57147e-05 -4.71307e-07      40.6642 
          -5      3.55472 -1.67786e-05 -8.38844e-07      40.6643 
          -5      3.61273 -1.77892e-05 -1.19811e-06      40.6644 
          -5      3.67125 -1.87094e-05 -1.53942e-06      40.6644 
          -5      3.73025 -1.95321e-05 -1.86025e-06      40.6645 
          -5      3.78967 -2.02928e-05 -2.16993e-06      40.6646 
          -5      3.84961 -2.10843e-05 -2.49525e-06      40.6646 
          -5      3.90996 -2.20707e-05 -2.88479e-06      40.6647 
          -5      3.97084 -2.28645e-05 -3.09424e-06      40.6648 
          -5      4.03214 -2.36667e-05 -3.33712e-06      40.6648 
          -5      4.09395 -2.44737e-05  -3.5852e-06      40.6649 
          -5      4.15624 -2.52776e-05 -3.81779e-06      40.6649 
          -5      4.21895 -2.60733e-05 -4.02474e-06       40.665 
          -5      4.28217 -2.68596e-05 -4.20447e-06      40.6651 
          -5      4.34582 -2.76335e-05 -4.36068e-06      40.6651 
          -5      4.40998  -2.8395e-05 -4.50127e-06      40.6652 
          -5      4.47457 -2.91409e-05 -4.63541e-06      40.6653 
          -5      4.53968 -2.98695e-05 -4.77267e-06      40.6653 
          -5      4.60525 -3.05762e-05 -4.92077e-06      40.6654 
          -5      4.67125 -3.12557e-05 -5.08481e-06      40.6655 
          -5      4.73777 -3.19036e-05 -5.26692e-06      40.6655 
          -5       4.8047 -3.25141e-05 -5.46516e-06      40.6656 
          -5      4.87216 -3.30848e-05 -5.67497e-06      40.6656 
          -5      4.94003 -3.36153e-05 -5.88901e-06      40.6657 
          -5      5.00843 -3.41128e-05  -6.1002e-06      40.6658 
          -5      5.07724  -3.4592e-05 -6.30299e-06      40.6658 
          -5      5.14658 -3.50819e-05 -6.49828e-06      40.6659 
          -5      5.21639 -3.54861e-05 -6.87583e-06      40.6659 
          -5      5.28661 -3.58734e-05 -7.47228e-06       40.666 
          -5      5.35736 -3.63484e-05 -7.90966e-06       40.666 
          -5      5.42852 -3.67468e-05 -8.15098e-06      40.6661 
          -5      5.50021 -3.70528e-05 -8.25864e-06      40.6661 
          -5      5.57231 -3.74281e-05 -8.38418e-06      40.6662 
          -5      5.64493 -3.78437e-05 -8.52788e-06      40.6662 
          -5      5.71803 -3.82792e-05 -8.68618e-06      40.6663 
          -5      5.79154 -3.87216e-05  -8.8532e-06      40.6663 
          -5      5.86558 -3.91649e-05 -9.02244e-06      40.6664 
          -5      5.94003 -3.96057e-05 -9.18692e-06      40.6664 
          -5      6.01501 -4.00443e-05 -9.34117e-06      40.6664 
          -5       6.0904 -4.04806e-05 -9.48098e-06      40.6665 
          -5      6.16632 -4.09158e-05 -9.60489e-06      40.6665 
          -5      6.24271 -4.13491e-05 -9.71369e-06      40.6665 
          -5       6.3195 -4.17783e-05 -9.81084e-06      40.6666 
          -5      6.39683 -4.22003e-05 -9.90231e-06      40.6666 
          -5      6.47457 -4.26095e-05 -9.99538e-06      40.6666 
          -5      6.55284 -4.30008e-05 -1.00982e-05      40.6666 
          -5      6.63152 -4.33687e-05 -1.02175e-05      40.6667 
          -5      6.71073 -4.37112e-05 -1.03576e-05      40.6667 
          -5      6.79034 -4.40309e-05 -1.05164e-05      40.6667 
          -5      6.87049 -4.43395e-05 -1.06838e-05      40.6667 
          -5      6.95111 -4.46611e-05 -1.08364e-05      40.6667 
          -5      7.03214 -4.50309e-05 -1.09357e-05      40.6667 
          -5       7.1137 -4.52351e-05 -1.10529e-05      40.6667 
          -5      7.19566 -4.53742e-05 -1.11671e-05      40.6667 
          -5      7.27816 -4.54707e-05 -1.12676e-05      40.6667 
          -5      7.36106 -4.55432e-05 -1.13543e-05      40.6667 
          -5      7.44451 -4.56074e-05 -1.14344e-05      40.6667 
          -5      7.52842 -4.56759e-05  -1.1518e-05      40.6667 
          -5      7.61273 -4.57585e-05 -1.16155e-05      40.6667 
          -5      7.69758  -4.5863e-05 -1.17344e-05      40.6667 
          -5      7.78283 -4.59942e-05 -1.18773e-05      40.6667 
          -5      7.86862 -4.61551e-05 -1.20411e-05      40.6667 
          -5      7.95481 -4.63458e-05 -1.22155e-05      40.6666 
          -5      8.04155 -4.65646e-05 -1.23846e-05      40.6666 
          -5      8.12868 -4.68064e-05 -1.25271e-05      40.6666 
          -5      8.21635 -4.70639e-05 -1.26202e-05      40.6665 
          -5      8.30449 -4.73259e-05 -1.26427e-05      40.6665 
          -5      8.39303 -4.75771e-05 -1.25807e-05      40.6665 
          -5      8.48211  -4.7798e-05 -1.24341e-05      40.6664 
          -5      8.57159 -4.80774e-05 -1.23648e-05      40.6664 
          -5      8.66161  -4.8457e-05 -1.24329e-05      40.6663 
          -5      8.75203 -4.88492e-05 -1.25783e-05      40.6662 
          -5      8.84299 -4.92504e-05 -1.27956e-05      40.6662 
          -5      8.93443 -4.96547e-05 -1.29808e-05      40.6661 
          -5      9.02626 -5.00539e-05 -1.29022e-05       40.666 
          -5      9.11863 -5.01959e-05 -1.30204e-05       40.666 
          -5      9.21139 -5.02537e-05 -1.30747e-05      40.6659 
          -5      9.30471 -5.03362e-05 -1.29235e-05      40.6658 
          -5      9.39841 -5.04165e-05 -1.27542e-05      40.6657 
          -5      9.49267 -5.04791e-05 -1.26694e-05      40.6656 
          -5      9.58739 -5.05145e-05 -1.27002e-05      40.6655 
          -5      9.68251  -5.0496e-05 -1.28537e-05      40.6654 
          -5      9.77817  -5.0378e-05 -1.31451e-05      40.6653 
          -5      9.87422 -5.03332e-05 -1.32962e-05      40.6652 
          -5      9.97083 -5.03609e-05 -1.33423e-05      40.6651 
          -5      10.0678 -5.04488e-05 -1.33226e-05       40.665 
          -5      10.1654 -5.05771e-05 -1.32741e-05      40.6648 
          -5      10.2633 -5.07214e-05 -1.32266e-05      40.6647 
          -5      10.3618 -5.08575e-05 -1.31991e-05      40.6646 
          -5      10.4607 -5.09637e-05 -1.31988e-05      40.6644 
          -5      10.5601 -5.10249e-05 -1.32211e-05      40.6643 
          -5        10.66 -5.10359e-05 -1.32533e-05      40.6641 
          -5      10.7603 -5.10035e-05 -1.32799e-05       40.664 
          -5      10.8611 -5.09497e-05 -1.32911e-05      40.6638 
          -5      10.9623 -5.09141e-05 -1.32942e-05      40.6636 
          -5      11.0641 -5.09556e-05 -1.33287e-05      40.6635 
          -5      11.1663 -5.11539e-05 -1.34845e-05      40.6633 
          -5       11.269 -5.13213e-05 -1.36948e-05      40.6631 
          -5      11.3721 -5.10933e-05 -1.35252e-05      40.6629 
          -5      11.4757 -5.10336e-05 -1.33487e-05      40.6627 
          -5      11.5798 -5.10845e-05 -1.31675e-05      40.6625 
          -5      11.6844  -5.1199e-05 -1.29836e-05      40.6623 
          -5      11.7894 -5.13396e-05 -1.27983e-05      40.6621 
          -5       11.895 -5.14769e-05 -1.26137e-05      40.6619 
          -5      12.0009 -5.15897e-05 -1.24336e-05      40.6617 
          -5      12.1073 -5.16639e-05 -1.22632e-05      40.6614 
          -5      12.2142 -5.16914e-05 -1.21111e-05      40.6612 
          -5      12.3216 -5.16703e-05 -1.19895e-05       40.661 
          -5      12.4294 -5.16034e-05 -1.19152e-05      40.6607 
          -5      12.5378 -5.14986e-05 -1.19104e-05      40.6605 
          -5      12.6465  -5.1368e-05 -1.20035e-05      40.6602 
          -5      12.7558 -5.12276e-05 -1.22305e-05      40.6599 
          -5      12.8656 -5.12086e-05 -1.20783e-05      40.6597 
          -5      12.9757 -5.13059e-05 -1.19432e-05      40.6594 
          -5      13.0864 -5.14766e-05 -1.18619e-05      40.6591 
          -5      13.1975 -5.16818e-05 -1.18276e-05      40.6588 
          -5      13.3092 -5.18834e-05 -1.18399e-05      40.6585 
          -5      13.4212 -5.20452e-05 -1.19015e-05      40.6582 
          -5      13.5338 -5.21367e-05 -1.20138e-05      40.6579 
          -5      13.6468 -5.21351e-05 -1.21708e-05      40.6576 
          -5      13.7603 -5.20299e-05 -1.23521e-05      40.6573 
          -5      13.8743  -5.1826e-05 -1.25146e-05       40.657 
          -5      13.9886 -5.15495e-05 -1.25817e-05      40.6566 
          -5      14.1036 -5.12508e-05 -1.24323e-05      40.6563 
          -5      14.2189 -5.12323e-05 -1.23755e-05      40.6559 
          -5      14.3348 -5.14109e-05 -1.26712e-05      40.6556 
          -5       14.451 -5.14476e-05 -1.27489e-05      40.6552 
          -5      14.5678 -5.14215e-05 -1.26906e-05      40.6548 
          -5      14.6851 -5.13841e-05 -1.25597e-05      40.6545 
          -5      14.8028 -5.13645e-05 -1.24037e-05      40.6541 
          -5       14.921 -5.13734e-05 -1.22555e-05      40.6537 
          -5      15.0396  -5.1408e-05 -1.21365e-05      40.6533 
          -5      15.1588 -5.14559e-05 -1.20577e-05      40.6529 
          -5      15.2783 -5.14989e-05 -1.20225e-05      40.6525 
          -5      15.3984 -5.15166e-05 -1.20282e-05      40.6521 
          -5       15.519 -5.14895e-05 -1.20681e-05      40.6517 
          -5        15.64 -5.14021e-05 -1.21327e-05      40.6512 
          -5      15.7615 -5.12446e-05 -1.22125e-05      40.6508 
          -5      15.8834 -5.10156e-05 -1.22982e-05      40.6503 
          -5      16.0058 -5.07224e-05 -1.23832e-05      40.6499 
          -5      16.1286 -5.06729e-05 -1.23928e-05      40.6494 
          -5       16.252 -5.08002e-05 -1.23685e-05       40.649 
          -5      16.3759 -5.09327e-05 -1.23489e-05      40.6485 
          -5      16.5002 -5.10651e-05 -1.23311e-05       40.648 
          -5       16.625 -5.11905e-05 -1.23191e-05      40.6475 
          -5      16.7501 -5.12997e-05 -1.23215e-05       40.647 
          -5      16.8759 -5.13831e-05 -1.23495e-05      40.6465 
          -5       17.002 -5.14308e-05 -1.24129e-05       40.646 
          -5      17.1287 -5.14346e-05  -1.2516e-05      40.6455 
          -5      17.2557  -5.1389e-05 -1.26521e-05       40.645 
          -5      17.3834  -5.1293e-05 -1.27979e-05      40.6444 
          -5      17.5115 -5.11526e-05 -1.29048e-05      40.6439 
          -5      17.6399 -5.09829e-05 -1.28911e-05      40.6433 
          -5       17.769 -5.08105e-05 -1.26318e-05      40.6428 
          -5      17.8984 -5.08792e-05 -1.28738e-05      40.6422 
          -5      18.0284 -5.08854e-05 -1.28418e-05      40.6416 
          -5      18.1587 -5.08555e-05 -1.26135e-05       40.641 
          -5      18.2896 -5.08316e-05 -1.23261e-05      40.6405 
          -5       18.421 -5.08407e-05 -1.20781e-05      40.6399 
          -5      18.5528 -5.08972e-05 -1.19332e-05      40.6393 
          -5      18.6851 -5.10045e-05 -1.19242e-05      40.6386 
          -5      18.8178  -5.1157e-05 -1.20575e-05       40.638 
          -5      18.9511 -5.13424e-05 -1.23172e-05      40.6374 
          -5      19.0847 -5.15426e-05 -1.26681e-05      40.6368 
          -5      19.2189 -5.15768e-05 -1.27945e-05      40.6361 
          -5      19.3535 -5.13266e-05 -1.25578e-05      40.6355 
          -5      19.4886 -5.10823e-05 -1.24518e-05      40.6348 
          -5      19.6242   -5.085e-05 -1.24465e-05      40.6341 
          -5      19.7602 -5.06375e-05 -1.25083e-05      40.6334 
          -5      19.8968 -5.04531e-05 -1.26015e-05      40.6328 
          -5      20.0337 -5.03052e-05 -1.26901e-05      40.6321 
          -5      20.1712 -5.02001e-05 -1.27399e-05      40.6314 
          -5      20.3091 -5.01423e-05 -1.27214e-05      40.6307 
          -5      20.4475 -5.01331e-05 -1.26125e-05      40.6299 
          -5      20.5864 -5.01698e-05 -1.24022e-05      40.6292 
          -5      20.7257 -5.02456e-05 -1.20954e-05      40.6285 
          -5      20.8655  -5.0349e-05 -1.17159e-05      40.6277 
          -5      21.0058 -5.04636e-05 -1.13142e-05       40.627 
          -5      21.1465 -5.05685e-05 -1.09705e-05      40.6262 
          -5      21.2877 -5.06379e-05 -1.08037e-05      40.6254 
          -5      21.4294 -5.06421e-05 -1.09773e-05      40.6247 
          -5      21.5716 -5.05478e-05 -1.17079e-05      40.6239 
          -5      21.7142 -5.02926e-05 -1.14453e-05      40.6231 
          -5      21.8573 -5.01757e-05 -1.08235e-05      40.6223 
          -5      22.0008   -5.014e-05 -1.03418e-05      40.6214 
          -5      22.1449 -5.01153e-05 -1.00697e-05      40.6206 
          -5      22.2893 -5.00616e-05 -1.00096e-05      40.6198 
          -5      22.4344 -4.99637e-05 -1.01134e-05       40.619 
          -5      22.5797 -4.98271e-05 -1.03003e-05      40.6181 
          -5      22.7257 -4.96711e-05 -1.04754e-05      40.6172 
          -5      22.8721 -4.95241e-05 -1.05472e-05      40.6164 
          -5      23.0189 -4.94172e-05  -1.0446e-05      40.6155 
          -5      23.1663 -4.93766e-05 -1.01419e-05      40.6146 
          -5       23.314 -4.94183e-05 -9.66375e-06      40.6137 
          -5      23.4623 -4.95968e-05 -9.15516e-06      40.6128 
          -5       23.611 -4.99364e-05 -8.95817e-06      40.6119 
          -5      23.7602 -5.01023e-05 -8.94003e-06       40.611 
          -5        23.91 -5.01262e-05 -9.05861e-06      40.6101 
          -5        24.06 -5.00427e-05  -9.2725e-06      40.6091 
          -5      24.2107 -4.98879e-05 -9.54349e-06      40.6082 
          -5      24.3617 -4.96983e-05 -9.83667e-06      40.6072 
          -5      24.5133 -4.95088e-05 -1.01236e-05      40.6062 
          -5      24.6653 -4.93513e-05 -1.03817e-05      40.6053 
          -5      24.8178 -4.92519e-05 -1.05978e-05      40.6043 
          -5      24.9708 -4.92294e-05 -1.07678e-05      40.6033 
          -5      25.1242 -4.92915e-05  -1.0899e-05      40.6023 
          -5      25.2781 -4.94326e-05 -1.10115e-05      40.6013 
          -5      25.4324 -4.96298e-05 -1.11389e-05      40.6003 
          -5      25.5873 -4.98397e-05 -1.13304e-05      40.5992 
          -5      25.7426 -4.99933e-05 -1.16514e-05      40.5982 
          -5      25.8984 -4.99925e-05 -1.21856e-05      40.5971 
          -5      26.0546 -4.97048e-05 -1.30345e-05      40.5961 
          -5      26.2114 -4.95572e-05 -1.30358e-05       40.595 
          -5      26.3686 -4.96264e-05 -1.24867e-05      40.5939 
          -5      26.5262 -4.96377e-05 -1.21266e-05      40.5928 
          -5      26.6844  -4.9614e-05 -1.19049e-05      40.5917 
          -5      26.8429 -4.95709e-05 -1.17836e-05      40.5906 
          -5       27.002 -4.95179e-05 -1.17333e-05      40.5895 
          -5      27.1615 -4.94604e-05 -1.17326e-05      40.5884 
          -5      27.3216 -4.93998e-05 -1.17664e-05      40.5873 
          -5      27.4821 -4.93356e-05  -1.1824e-05      40.5861 
          -5       27.643 -4.92654e-05 -1.18985e-05       40.585 
          -5      27.8044 -4.91861e-05 -1.19851e-05      40.5838 
          -5      27.9663 -4.90952e-05 -1.20803e-05      40.5826 
          -5      28.1287 -4.89902e-05 -1.21813e-05      40.5814 
          -5      28.2914 -4.88703e-05 -1.22851e-05      40.5802 
          -5      28.4548 -4.87356e-05 -1.23887e-05       40.579 
          -5      28.6185 -4.85886e-05 -1.24878e-05      40.5778 
          -5      28.7828 -4.84328e-05 -1.25784e-05      40.5766 
          -5      28.9475 -4.82735e-05 -1.26559e-05      40.5754 
          -5      29.1126 -4.81174e-05 -1.27162e-05      40.5741 
          -5      29.2784 -4.79716e-05 -1.27566e-05      40.5729 
          -5      29.4444 -4.78434e-05 -1.27768e-05      40.5716 
          -5       29.611 -4.77389e-05 -1.27806e-05      40.5704 
          -5       29.778 -4.76625e-05 -1.27774e-05      40.5691 
          -5      29.9456 -4.76147e-05 -1.27848e-05      40.5678 
          -5      30.1137 -4.75911e-05 -1.28306e-05      40.5665 
          -5      30.2821 -4.75805e-05 -1.29562e-05      40.5652 
          -5      30.4511 -4.75817e-05 -1.31767e-05      40.5639 
          -5      30.6204 -4.79108e-05 -1.26127e-05      40.5625 
          -5      30.7903 -4.81129e-05 -1.21327e-05      40.5612 
          -5      30.9606 -4.82142e-05  -1.1739e-05      40.5598 
          -5      31.1315 -4.82381e-05  -1.1433e-05      40.5585 
          -5      31.3028 -4.82046e-05 -1.12164e-05      40.5571 
          -5      31.4745 -4.81314e-05 -1.10888e-05      40.5557 
          -5      31.6468 -4.80339e-05 -1.10459e-05      40.5543 
          -5      31.8194 -4.79266e-05 -1.10792e-05       40.553 
          -5      31.9926 -4.78225e-05 -1.11737e-05      40.5515 
          -5      32.1662 -4.77349e-05 -1.13063e-05      40.5501 
          -5      32.3404 -4.76774e-05 -1.14447e-05      40.5487 
          -5      32.5149 -4.76649e-05 -1.15449e-05      40.5473 
          -5        32.69 -4.77144e-05 -1.15496e-05      40.5458 
          -5      32.8655 -4.77198e-05 -1.17371e-05      40.5444 
          -5      33.0414 -4.76551e-05 -1.20274e-05      40.5429 
          -5       33.218 -4.75964e-05   -1.218e-05      40.5414 
          -5      33.3948 -4.75368e-05 -1.22315e-05      40.5399 
          -5      33.5723 -4.74716e-05 -1.22127e-05      40.5384 
          -5        33.75 -4.73992e-05 -1.21486e-05      40.5369 
          -5      33.9284 -4.73193e-05 -1.20595e-05      40.5354 
          -5      34.1073 -4.72337e-05 -1.19608e-05      40.5339 
          -5      34.2865  -4.7145e-05 -1.18642e-05      40.5323 
          -5      34.4663 -4.70566e-05 -1.17777e-05      40.5308 
          -5      34.6465 -4.69724e-05 -1.17061e-05      40.5292 
          -5      34.8272  -4.6896e-05 -1.16518e-05      40.5277 
          -5      35.0083 -4.68311e-05 -1.16147e-05      40.5261 
          -5        35.19 -4.67807e-05 -1.15932e-05      40.5245 
          -5      35.3721 -4.67468e-05 -1.15844e-05      40.5229 
          -5      35.5546 -4.67307e-05 -1.15842e-05      40.5213 
          -5      35.7377  -4.6732e-05 -1.15882e-05      40.5197 
          -5      35.9211 -4.67494e-05 -1.15919e-05       40.518 
          -5      36.1052 -4.67797e-05 -1.15907e-05      40.5164 
          -5      36.2895 -4.68183e-05 -1.15807e-05      40.5148 
          -5      36.4745  -4.6859e-05 -1.15588e-05      40.5131 
          -5      36.6598 -4.68938e-05 -1.15229e-05      40.5114 
          -5      36.8457 -4.69134e-05 -1.14724e-05      40.5098 
          -5      37.0321 -4.69069e-05 -1.14081e-05      40.5081 
          -5      37.2188 -4.68622e-05 -1.13327e-05      40.5064 
          -5      37.4062  -4.6766e-05 -1.12505e-05      40.5047 
          -5      37.5938 -4.66047e-05 -1.11683e-05       40.503 
          -5      37.7821 -4.63634e-05 -1.10945e-05      40.5012 
          -5      37.9707 -4.60282e-05   -1.104e-05      40.4995 
          -5      38.1599 -4.58191e-05 -1.09096e-05      40.4977 
          -5      38.3496 -4.56187e-05 -1.08487e-05       40.496 
          -5      38.5396  -4.5449e-05 -1.08404e-05      40.4942 
          -5      38.7302 -4.53281e-05 -1.08689e-05      40.4924 
          -5      38.9211 -4.52704e-05 -1.09207e-05      40.4907 
          -5      39.1127 -4.52846e-05 -1.09862e-05      40.4889 
          -5      39.3046  -4.5374e-05 -1.10602e-05      40.4871 
          -5      39.4971 -4.55353e-05 -1.11439e-05      40.4852 
          -5      39.6899 -4.57578e-05 -1.12453e-05      40.4834 
          -5      39.8833 -4.60232e-05 -1.13821e-05      40.4816 
          -5      40.0772 -4.63039e-05 -1.15823e-05      40.4797 
          -5      40.2714 -4.65625e-05 -1.18864e-05      40.4779 
          -5      40.4663 -4.67518e-05   -1.235e-05       40.476 
          -5      40.6615 -4.68124e-05 -1.30443e-05      40.4741 
          -5      40.8573 -4.66729e-05 -1.40614e-05      40.4723 
          -5      41.0534 -4.63567e-05 -1.38331e-05      40.4704 
          -5      41.2501 -4.60584e-05 -1.33398e-05      40.4685 
          -5      41.4473  -4.5807e-05 -1.30445e-05      40.4665 
          -5      41.6448 -4.56124e-05 -1.29056e-05      40.4646 
          -5      41.8429 -4.54699e-05 -1.28812e-05      40.4627 
          -5      42.0414 -4.53619e-05 -1.29289e-05      40.4607 
          -5      42.2405 -4.52563e-05 -1.30045e-05      40.4588 
          -5      42.4399 -4.50969e-05 -1.31507e-05      40.4568 
          -5      42.6399 -4.48773e-05 -1.35409e-05      40.4549 
          -5      42.8404 -4.46779e-05 -1.38238e-05      40.4529 
          -5      43.0412 -4.45029e-05 -1.40177e-05      40.4509 
          -5      43.2426 -4.43545e-05 -1.41395e-05      40.4489 
          -5      43.4444 -4.42338e-05 -1.42034e-05      40.4469 
          -5      43.6467 -4.41401e-05 -1.42225e-05      40.4449 
          -5      43.8494 -4.40722e-05 -1.42079e-05      40.4428 
          -5      44.0527 -4.40276e-05 -1.41693e-05      40.4408 
          -5      44.2563 -4.40034e-05 -1.41148e-05      40.4388 
          -5      44.4606  -4.3996e-05 -1.40513e-05      40.4367 
          -5      44.6653 -4.40018e-05 -1.39845e-05      40.4346 
          -5      44.8704 -4.40168e-05 -1.39191e-05      40.4326 
          -5       45.076 -4.40371e-05 -1.38586e-05      40.4305 
          -5       45.282 -4.40588e-05 -1.38057e-05      40.4284 
          -5      45.4886 -4.40786e-05 -1.37624e-05      40.4263 
          -5      45.6955 -4.40932e-05 -1.37299e-05      40.4242 
          -5       45.903 -4.40998e-05 -1.37087e-05       40.422 
          -5      46.1111 -4.40964e-05 -1.36991e-05      40.4199 
          -5      46.3194 -4.40814e-05 -1.37005e-05      40.4178 
          -5      46.5283 -4.40538e-05 -1.37125e-05      40.4156 
          -5      46.7376 -4.40133e-05  -1.3734e-05      40.4135 
          -5      46.9475 -4.39604e-05 -1.37638e-05      40.4113 
          -5      47.1577  -4.3896e-05 -1.38006e-05      40.4091 
          -5      47.3685 -4.38216e-05  -1.3843e-05      40.4069 
          -5      47.5798 -4.37396e-05 -1.38896e-05      40.4047 
          -5      47.7914 -4.36525e-05  -1.3939e-05      40.4025 
          -5      48.0037 -4.35632e-05 -1.39897e-05      40.4003 