Variables = x, y, u, v, p

Zone, I=800, F=POINT
          20            0           -0           -0      -59.836 
          20     0.000234 -1.01633e-05 -1.25316e-09      -59.836 
          20     0.000939 -3.83902e-05 -4.76508e-09      -59.836 
          20     0.002113 -7.80639e-05 -9.77945e-09      -59.836 
          20     0.003759 -0.000120361 -1.52008e-08      -59.836 
          20     0.005872 -0.000156324 -1.97178e-08      -59.836 
          20     0.008457 -0.000179736 -2.20288e-08      -59.836 
          20      0.01151 -0.000188522 -2.09249e-08      -59.836 
          20     0.015036 -0.000185419  -1.5347e-08      -59.836 
          20     0.019031 -0.000176818 -4.32919e-09      -59.836 
          20     0.023493 -0.000170311   1.3152e-08      -59.836 
          20     0.028429 -0.000171506   3.8424e-08      -59.836 
          20     0.033831 -0.000181369  7.31597e-08      -59.836 
          20     0.039706 -0.000195467  1.19545e-07      -59.836 
          20     0.046047 -0.000206234  1.79881e-07      -59.836 
          20     0.052863 -0.000208472  2.56385e-07      -59.836 
          20      0.06015 -0.000205721  3.50393e-07      -59.836 
          20       0.0679 -0.000211425  4.62178e-07      -59.836 
          20     0.076126   -0.0002322  5.92319e-07      -59.836 
          20     0.084816 -0.000227084  7.44025e-07      -59.836 
          20     0.093982 -0.000239599  9.17965e-07      -59.836 
          20     0.103611  -0.00024888  1.11534e-06      -59.836 
          20     0.113718 -0.000256668  1.33724e-06      -59.836 
          20     0.124286 -0.000264159  1.58397e-06      -59.836 
          20     0.135333 -0.000272007  1.85647e-06     -59.8359 
          20      0.14685  -0.00028032  2.15493e-06     -59.8359 
          20     0.158827 -0.000288819  2.47932e-06     -59.8359 
          20     0.171284 -0.000297085   2.8302e-06     -59.8359 
          20     0.184201 -0.000304769  3.20681e-06     -59.8359 
          20     0.197599 -0.000311872  3.60925e-06     -59.8359 
          20     0.211455 -0.000318747  4.03596e-06     -59.8359 
          20     0.225792 -0.000325855  4.48639e-06     -59.8359 
          20       0.2406 -0.000332833  4.95852e-06     -59.8359 
          20     0.255865 -0.000338316  5.45049e-06     -59.8359 
          20     0.271613 -0.000344167  5.96076e-06     -59.8359 
          20     0.287818 -0.000349579  6.48469e-06     -59.8359 
          20     0.304506 -0.000354617  7.02051e-06     -59.8359 
          20      0.32165 -0.000359333   7.5644e-06     -59.8359 
          20     0.339278 -0.000363796  8.11399e-06     -59.8359 
          20     0.357377 -0.000368066  8.66546e-06     -59.8359 
          20      0.37593   -0.0003722  9.21465e-06     -59.8359 
          20     0.394968  -0.00037625  9.75846e-06     -59.8358 
          20     0.414461 -0.000380258  1.02924e-05     -59.8358 
          20      0.43444  -0.00038427  1.08139e-05     -59.8358 
          20     0.454872 -0.000388302  1.13194e-05     -59.8358 
          20     0.475791 -0.000392371  1.18073e-05     -59.8358 
          20     0.497163  -0.00039646  1.22753e-05     -59.8358 
          20     0.519021 -0.000400544  1.27238e-05     -59.8358 
          20      0.54135 -0.000404569  1.31528e-05     -59.8357 
          20     0.564131 -0.000408459  1.35634e-05     -59.8357 
          20       0.5874  -0.00041213  1.39591e-05     -59.8357 
          20     0.611121  -0.00041547  1.43425e-05     -59.8357 
          20      0.63533 -0.000418371  1.47183e-05     -59.8357 
          20      0.65999 -0.000420721  1.50901e-05     -59.8356 
          20     0.685139 -0.000422433   1.5462e-05     -59.8356 
          20     0.710759 -0.000423452  1.58359e-05     -59.8356 
          20     0.736828 -0.000423735  1.62206e-05     -59.8356 
          20     0.763387 -0.000423229  1.66159e-05     -59.8355 
          20     0.790396  -0.00042192  1.70236e-05     -59.8355 
          20     0.817896 -0.000419814  1.74471e-05     -59.8355 
          20     0.845843 -0.000416939  1.78866e-05     -59.8354 
          20     0.874283  -0.00041333  1.83429e-05     -59.8354 
          20      0.90317 -0.000409046  1.88141e-05     -59.8353 
          20     0.932551 -0.000404136  1.92993e-05     -59.8353 
          20     0.962401 -0.000398665  1.97958e-05     -59.8353 
          20     0.992697 -0.000392697  2.03027e-05     -59.8352 
          20      1.02349  -0.00038628  2.08215e-05     -59.8352 
          20      1.05472 -0.000379488  2.13456e-05     -59.8351 
          20      1.08645 -0.000372364  2.18728e-05     -59.8351 
          20      1.11863 -0.000364969  2.23992e-05      -59.835 
          20       1.1513 -0.000357328  2.29234e-05      -59.835 
          20      1.18444 -0.000349493  2.34441e-05     -59.8349 
          20      1.21802 -0.000341501  2.39594e-05     -59.8348 
          20      1.25211 -0.000333352  2.44658e-05     -59.8348 
          20      1.28663 -0.000325086  2.49593e-05     -59.8347 
          20      1.32165 -0.000316712  2.54382e-05     -59.8346 
          20      1.35712 -0.000308261     2.59e-05     -59.8346 
          20      1.39308 -0.000299736  2.63437e-05     -59.8345 
          20      1.42951 -0.000291159  2.67679e-05     -59.8344 
          20      1.46638 -0.000282551  2.71708e-05     -59.8344 
          20      1.50375 -0.000273915  2.75508e-05     -59.8343 
          20      1.54156 -0.000265284  2.79045e-05     -59.8342 
          20      1.57987  -0.00025667  2.82276e-05     -59.8341 
          20      1.61863 -0.000248114  2.85209e-05      -59.834 
          20      1.65788  -0.00023963  2.87943e-05     -59.8339 
          20      1.69757 -0.000231258  2.90314e-05     -59.8338 
          20      1.73776 -0.000223017  2.92292e-05     -59.8337 
          20      1.77842 -0.000214935  2.93932e-05     -59.8336 
          20      1.81952 -0.000207063  2.95267e-05     -59.8335 
          20      1.86113 -0.000199418  2.96238e-05     -59.8334 
          20      1.90316  -0.00019203  2.96833e-05     -59.8333 
          20      1.94571 -0.000184911  2.97052e-05     -59.8332 
          20      1.98869 -0.000178097   2.9691e-05     -59.8331 
          20      2.03217 -0.000171603  2.96434e-05     -59.8329 
          20      2.07612 -0.000165462    2.956e-05     -59.8328 
          20      2.12051 -0.000159684  2.94322e-05     -59.8327 
          20       2.1654 -0.000154249  2.92768e-05     -59.8325 
          20      2.21073  -0.00014918  2.90933e-05     -59.8324 
          20      2.25656 -0.000144481  2.88811e-05     -59.8323 
          20      2.30283 -0.000140169  2.86403e-05     -59.8321 
          20       2.3496 -0.000136237  2.83705e-05      -59.832 
          20      2.39685  -0.00013268  2.80715e-05     -59.8318 
          20      2.44452 -0.000129475  2.77426e-05     -59.8317 
          20      2.49271 -0.000126602  2.73804e-05     -59.8315 
          20      2.54132  -0.00012415   2.6985e-05     -59.8313 
          20      2.59044 -0.000122023  2.65558e-05     -59.8312 
          20         2.64 -0.000120233  2.60861e-05      -59.831 
          20      2.69006 -0.000118771  2.55724e-05     -59.8308 
          20      2.74056 -0.000117618   2.5017e-05     -59.8307 
          20      2.79156 -0.000116744  2.44333e-05     -59.8305 
          20      2.84304 -0.000116125  2.38188e-05     -59.8303 
          20      2.89494 -0.000115725  2.31726e-05     -59.8301 
          20      2.94735 -0.000115511  2.24954e-05     -59.8299 
          20       3.0002 -0.000115451   2.1793e-05     -59.8297 
          20      3.05355 -0.000115515  2.10714e-05     -59.8295 
          20      3.10733  -0.00011568  2.03415e-05     -59.8293 
          20      3.16163 -0.000115923  1.96125e-05     -59.8291 
          20      3.21639 -0.000116222  1.88939e-05     -59.8289 
          20      3.27158  -0.00011656  1.81908e-05     -59.8287 
          20      3.32729 -0.000116916  1.74974e-05     -59.8284 
          20      3.38342  -0.00011727  1.67952e-05     -59.8282 
          20      3.44007 -0.000117598  1.61576e-05      -59.828 
          20      3.49714 -0.000117918   1.5525e-05     -59.8278 
          20      3.55472  -0.00011823  1.49124e-05     -59.8275 
          20      3.61273 -0.000118525   1.4333e-05     -59.8273 
          20      3.67125 -0.000118799  1.37826e-05      -59.827 
          20      3.73025 -0.000119048  1.32512e-05     -59.8268 
          20      3.78967  -0.00011927  1.27292e-05     -59.8265 
          20      3.84961 -0.000119469  1.22115e-05     -59.8263 
          20      3.90996 -0.000119652   1.1702e-05      -59.826 
          20      3.97084 -0.000119827  1.12095e-05     -59.8257 
          20      4.03214 -0.000120003  1.07456e-05     -59.8255 
          20      4.09395 -0.000120189  1.03118e-05     -59.8252 
          20      4.15624 -0.000120385  9.88696e-06     -59.8249 
          20      4.21895 -0.000120607  9.41796e-06     -59.8246 
          20      4.28217 -0.000120802  8.98223e-06     -59.8244 
          20      4.34582 -0.000120928  8.61162e-06     -59.8241 
          20      4.40998 -0.000121105  8.18875e-06     -59.8238 
          20      4.47457 -0.000121302  7.76278e-06     -59.8235 
          20      4.53968 -0.000121503  7.35718e-06     -59.8232 
          20      4.60525 -0.000121702  6.97917e-06     -59.8229 
          20      4.67125 -0.000121902  6.62519e-06     -59.8226 
          20      4.73777 -0.000122107  6.28579e-06     -59.8223 
          20       4.8047 -0.000122323  5.95227e-06     -59.8219 
          20      4.87216 -0.000122554  5.61801e-06     -59.8216 
          20      4.94003 -0.000122798  5.28253e-06     -59.8213 
          20      5.00843 -0.000123052  4.94969e-06      -59.821 
          20      5.07724 -0.000123308  4.62811e-06     -59.8206 
          20      5.14658 -0.000123559  4.32503e-06     -59.8203 
          20      5.21639   -0.0001238  4.04161e-06       -59.82 
          20      5.28661 -0.000124036  3.76256e-06     -59.8196 
          20      5.35736 -0.000124289  3.44277e-06     -59.8193 
          20      5.42852 -0.000124505  3.11869e-06      -59.819 
          20      5.50021 -0.000124772  2.85089e-06     -59.8186 
          20      5.57231 -0.000125062  2.58088e-06     -59.8183 
          20      5.64493 -0.000125305  2.28449e-06     -59.8179 
          20      5.71803 -0.000125515  1.98369e-06     -59.8175 
          20      5.79154 -0.000125724   1.6828e-06     -59.8172 
          20      5.86558 -0.000125937  1.38628e-06     -59.8168 
          20      5.94003 -0.000126154  1.09557e-06     -59.8164 
          20      6.01501 -0.000126375  8.09084e-07     -59.8161 
          20       6.0904 -0.000126597  5.25703e-07     -59.8157 
          20      6.16632 -0.000126818  2.44119e-07     -59.8153 
          20      6.24271 -0.000127034 -3.47448e-08     -59.8149 
          20       6.3195 -0.000127246  -3.0812e-07     -59.8146 
          20      6.39683 -0.000127452 -5.72324e-07     -59.8142 
          20      6.47457 -0.000127654 -8.22109e-07     -59.8138 
          20      6.55284 -0.000127854 -1.05398e-06     -59.8134 
          20      6.63152 -0.000128054 -1.26702e-06      -59.813 
          20      6.71073 -0.000128254 -1.46768e-06     -59.8126 
          20      6.79034 -0.000128454 -1.67267e-06     -59.8122 
          20      6.87049 -0.000128661 -1.83888e-06     -59.8118 
          20      6.95111 -0.000128798 -1.99888e-06     -59.8114 
          20      7.03214 -0.000128943 -2.16517e-06      -59.811 
          20       7.1137 -0.000129123 -2.34086e-06     -59.8106 
          20      7.19566 -0.000129331 -2.52569e-06     -59.8102 
          20      7.27816 -0.000129541 -2.71197e-06     -59.8097 
          20      7.36106 -0.000129725 -2.87267e-06     -59.8093 
          20      7.44451 -0.000129821 -3.05975e-06     -59.8089 
          20      7.52842 -0.000129935 -3.27141e-06     -59.8085 
          20      7.61273 -0.000130099 -3.47247e-06      -59.808 
          20      7.69758 -0.000130291 -3.66489e-06     -59.8076 
          20      7.78283 -0.000130481 -3.85176e-06     -59.8072 
          20      7.86862 -0.000130642 -4.03776e-06     -59.8067 
          20      7.95481 -0.000130758 -4.22625e-06     -59.8063 
          20      8.04155 -0.000130842 -4.41777e-06     -59.8059 
          20      8.12868 -0.000130952 -4.60509e-06     -59.8054 
          20      8.21635 -0.000131157 -4.79691e-06      -59.805 
          20      8.30449 -0.000131355 -4.96735e-06     -59.8045 
          20      8.39303 -0.000131544 -5.10348e-06     -59.8041 
          20      8.48211 -0.000131737 -5.22004e-06     -59.8036 
          20      8.57159 -0.000131943 -5.32949e-06     -59.8032 
          20      8.66161 -0.000132165 -5.44165e-06     -59.8027 
          20      8.75203 -0.000132404 -5.56223e-06     -59.8023 
          20      8.84299 -0.000132658 -5.69325e-06     -59.8018 
          20      8.93443  -0.00013292 -5.83247e-06     -59.8013 
          20      9.02626 -0.000133179 -5.97426e-06     -59.8009 
          20      9.11863 -0.000133427 -6.11123e-06     -59.8004 
          20      9.21139 -0.000133654 -6.23517e-06     -59.7999 
          20      9.30471 -0.000133852 -6.34046e-06     -59.7995 
          20      9.39841 -0.000134021 -6.42646e-06      -59.799 
          20      9.49267  -0.00013417 -6.50227e-06     -59.7985 
          20      9.58739 -0.000134321 -6.59112e-06      -59.798 
          20      9.68251 -0.000134515 -6.73637e-06     -59.7975 
          20      9.77817 -0.000134817 -7.00881e-06     -59.7971 
          20      9.87422 -0.000135039 -7.20979e-06     -59.7966 
          20      9.97083 -0.000135079 -7.14803e-06     -59.7961 
          20      10.0678 -0.000135175 -7.11594e-06     -59.7956 
          20      10.1654  -0.00013533 -7.11749e-06     -59.7951 
          20      10.2633 -0.000135517 -7.13007e-06     -59.7946 
          20      10.3618 -0.000135728 -7.13771e-06     -59.7941 
          20      10.4607 -0.000135958 -7.12222e-06     -59.7936 
          20      10.5601 -0.000136196 -7.07195e-06     -59.7931 
          20        10.66 -0.000136433 -6.98009e-06     -59.7926 
          20      10.7603  -0.00013657 -7.01912e-06     -59.7921 
          20      10.8611 -0.000136649 -7.06942e-06     -59.7916 
          20      10.9623 -0.000136712 -7.05969e-06     -59.7911 
          20      11.0641 -0.000136767 -7.00075e-06     -59.7905 
          20      11.1663 -0.000136815 -6.90691e-06       -59.79 
          20       11.269 -0.000136862 -6.79372e-06     -59.7895 
          20      11.3721 -0.000136909 -6.67556e-06      -59.789 
          20      11.4757  -0.00013696 -6.56465e-06     -59.7885 
          20      11.5798 -0.000137018  -6.4691e-06     -59.7879 
          20      11.6844 -0.000137084 -6.39299e-06     -59.7874 
          20      11.7894  -0.00013716 -6.33554e-06     -59.7869 
          20       11.895 -0.000137247 -6.29207e-06     -59.7863 
          20      12.0009 -0.000137344 -6.25492e-06     -59.7858 
          20      12.1073 -0.000137445 -6.21516e-06     -59.7852 
          20      12.2142 -0.000137541  -6.1655e-06     -59.7847 
          20      12.3216 -0.000137617 -6.10343e-06     -59.7842 
          20      12.4294 -0.000137648 -6.03594e-06     -59.7836 
          20      12.5378 -0.000137717 -5.99334e-06     -59.7831 
          20      12.6465 -0.000137838 -5.93783e-06     -59.7825 
          20      12.7558 -0.000137975 -5.87891e-06     -59.7819 
          20      12.8656  -0.00013812 -5.82879e-06     -59.7814 
          20      12.9757 -0.000138269 -5.79194e-06     -59.7808 
          20      13.0864 -0.000138421 -5.76684e-06     -59.7803 
          20      13.1975 -0.000138576 -5.74804e-06     -59.7797 
          20      13.3092 -0.000138731 -5.72806e-06     -59.7791 
          20      13.4212 -0.000138883 -5.69955e-06     -59.7786 
          20      13.5338 -0.000139024 -5.65743e-06      -59.778 
          20      13.6468 -0.000139145 -5.60128e-06     -59.7774 
          20      13.7603 -0.000139214 -5.56942e-06     -59.7768 
          20      13.8743   -0.0001393 -5.57239e-06     -59.7762 
          20      13.9886 -0.000139387 -5.60001e-06     -59.7756 
          20      14.1036 -0.000139461 -5.64814e-06      -59.775 
          20      14.2189 -0.000139519  -5.7161e-06     -59.7745 
          20      14.3348 -0.000139564 -5.80547e-06     -59.7739 
          20       14.451 -0.000139605 -5.91677e-06     -59.7733 
          20      14.5678  -0.00013965 -6.04572e-06     -59.7727 
          20      14.6851 -0.000139696  -6.1768e-06      -59.772 
          20      14.8028 -0.000139727 -6.27601e-06     -59.7714 
          20       14.921 -0.000139837 -6.38588e-06     -59.7708 
          20      15.0396 -0.000139927 -6.49971e-06     -59.7702 
          20      15.1588 -0.000139953 -6.57183e-06     -59.7696 
          20      15.2783 -0.000139966 -6.60182e-06      -59.769 
          20      15.3984 -0.000140009 -6.59912e-06     -59.7683 
          20       15.519 -0.000140106 -6.59677e-06     -59.7677 
          20        15.64 -0.000140259 -6.66565e-06     -59.7671 
          20      15.7615 -0.000140272  -6.7118e-06     -59.7664 
          20      15.8834 -0.000140288 -6.76668e-06     -59.7658 
          20      16.0058  -0.00014034 -6.82605e-06     -59.7652 
          20      16.1286 -0.000140424 -6.87995e-06     -59.7645 
          20       16.252 -0.000140529 -6.92846e-06     -59.7639 
          20      16.3759 -0.000140643 -6.97706e-06     -59.7632 
          20      16.5002 -0.000140752 -7.03302e-06     -59.7626 
          20       16.625 -0.000140845 -7.10254e-06     -59.7619 
          20      16.7501 -0.000140914  -7.1881e-06     -59.7612 
          20      16.8759 -0.000140954 -7.28739e-06     -59.7606 
          20       17.002 -0.000140964 -7.39214e-06     -59.7599 
          20      17.1287 -0.000140946 -7.48904e-06     -59.7592 
          20      17.2557 -0.000140902 -7.56045e-06     -59.7585 
          20      17.3834  -0.00014083 -7.58733e-06     -59.7578 
          20      17.5115  -0.00014072 -7.55249e-06     -59.7572 
          20      17.6399 -0.000140615 -7.55968e-06     -59.7565 
          20       17.769 -0.000140663 -7.75596e-06     -59.7558 
          20      17.8984 -0.000140737 -7.88923e-06     -59.7551 
          20      18.0284 -0.000140809 -7.97714e-06     -59.7544 
          20      18.1587 -0.000140868 -8.03707e-06     -59.7537 
          20      18.2896 -0.000140913  -8.0837e-06     -59.7529 
          20       18.421 -0.000140956 -8.12606e-06     -59.7522 
          20      18.5528 -0.000141008 -8.16536e-06     -59.7515 
          20      18.6851 -0.000141083 -8.19318e-06     -59.7508 
          20      18.8178 -0.000141185 -8.18981e-06       -59.75 
          20      18.9511 -0.000141303 -8.12332e-06     -59.7493 
          20      19.0847 -0.000141404 -7.94922e-06     -59.7486 
          20      19.2189  -0.00014142  -7.6098e-06     -59.7478 
          20      19.3535 -0.000141651 -7.71493e-06     -59.7471 
          20      19.4886 -0.000141784  -7.6865e-06     -59.7463 
          20      19.6242 -0.000141845  -7.5792e-06     -59.7456 
          20      19.7602 -0.000141861 -7.44449e-06     -59.7448 
          20      19.8968 -0.000141851 -7.32118e-06      -59.744 
          20      20.0337 -0.000141831 -7.23607e-06     -59.7433 
          20      20.1712 -0.000141807 -7.20332e-06     -59.7425 
          20      20.3091 -0.000141785 -7.22493e-06     -59.7417 
          20      20.4475 -0.000141764 -7.29073e-06     -59.7409 
          20      20.5864 -0.000141743 -7.37853e-06     -59.7401 
          20      20.7257  -0.00014172 -7.45437e-06     -59.7393 
          20      20.8655 -0.000141697 -7.47318e-06     -59.7385 
          20      21.0058 -0.000141685 -7.37887e-06     -59.7377 
          20      21.1465 -0.000141707 -7.10484e-06     -59.7369 
          20      21.2877 -0.000141804 -6.57544e-06     -59.7361 
          20      21.4294 -0.000141551 -6.72218e-06     -59.7353 
          20      21.5716 -0.000141401 -6.90203e-06     -59.7344 
          20      21.7142 -0.000141349 -7.05692e-06     -59.7336 
          20      21.8573 -0.000141364 -7.18375e-06     -59.7328 
          20      22.0008 -0.000141422 -7.28164e-06     -59.7319 
          20      22.1449 -0.000141505 -7.35218e-06     -59.7311 
          20      22.2893 -0.000141597 -7.39838e-06     -59.7302 
          20      22.4344 -0.000141685 -7.42466e-06     -59.7294 
          20      22.5797 -0.000141763 -7.43612e-06     -59.7285 
          20      22.7257 -0.000141824 -7.43832e-06     -59.7276 
          20      22.8721 -0.000141867 -7.43684e-06     -59.7268 
          20      23.0189 -0.000141891 -7.43698e-06     -59.7259 
          20      23.1663 -0.000141896  -7.4435e-06      -59.725 
          20       23.314 -0.000141886  -7.4603e-06     -59.7241 
          20      23.4623 -0.000141864 -7.49031e-06     -59.7232 
          20       23.611 -0.000141834 -7.53527e-06     -59.7223 
          20      23.7602 -0.000141799 -7.59574e-06     -59.7214 
          20        23.91 -0.000141765 -7.67092e-06     -59.7205 
          20        24.06 -0.000141735  -7.7587e-06     -59.7196 
          20      24.2107 -0.000141711   -7.856e-06     -59.7186 
          20      24.3617 -0.000141695 -7.95845e-06     -59.7177 
          20      24.5133 -0.000141689 -8.06119e-06     -59.7168 
          20      24.6653 -0.000141692 -8.15861e-06     -59.7158 
          20      24.8178   -0.0001417  -8.2453e-06     -59.7149 
          20      24.9708  -0.00014171 -8.31603e-06     -59.7139 
          20      25.1242 -0.000141716 -8.36661e-06     -59.7129 
          20      25.2781 -0.000141709  -8.3946e-06      -59.712 
          20      25.4324  -0.00014168 -8.39989e-06      -59.711 
          20      25.5873 -0.000141615 -8.38571e-06       -59.71 
          20      25.7426 -0.000141502 -8.35962e-06      -59.709 
          20      25.8984 -0.000141323 -8.33454e-06      -59.708 
          20      26.0546 -0.000141061 -8.33011e-06      -59.707 
          20      26.2114 -0.000140759 -8.44824e-06      -59.706 
          20      26.3686  -0.00014073 -8.79537e-06      -59.705 
          20      26.5262 -0.000140916 -9.01614e-06      -59.704 
          20      26.6844 -0.000141317  -8.9658e-06      -59.703 
          20      26.8429 -0.000141784 -9.49116e-06     -59.7019 
          20       27.002 -0.000142061 -9.61087e-06     -59.7009 
          20      27.1615 -0.000142177 -9.42816e-06     -59.6998 
          20      27.3216 -0.000142169 -9.07778e-06     -59.6988 
          20      27.4821  -0.00014204 -8.86524e-06     -59.6977 
          20       27.643 -0.000141814 -9.13168e-06     -59.6966 
          20      27.8044 -0.000141626 -9.37208e-06     -59.6956 
          20      27.9663  -0.00014148 -9.57962e-06     -59.6945 
          20      28.1287 -0.000141378 -9.75258e-06     -59.6934 
          20      28.2914 -0.000141315 -9.89205e-06     -59.6923 
          20      28.4548 -0.000141285 -1.00023e-05     -59.6912 
          20      28.6185 -0.000141278 -1.00888e-05     -59.6901 
          20      28.7828 -0.000141285 -1.01589e-05      -59.689 
          20      28.9475 -0.000141296 -1.02196e-05     -59.6879 
          20      29.1126 -0.000141303 -1.02782e-05     -59.6867 
          20      29.2784 -0.000141298 -1.03411e-05     -59.6856 
          20      29.4444 -0.000141277 -1.04137e-05     -59.6845 
          20       29.611 -0.000141237 -1.04997e-05     -59.6833 
          20       29.778 -0.000141179 -1.06009e-05     -59.6822 
          20      29.9456 -0.000141105 -1.07175e-05      -59.681 
          20      30.1137 -0.000141019  -1.0847e-05     -59.6798 
          20      30.2821 -0.000140931 -1.09852e-05     -59.6786 
          20      30.4511 -0.000140847  -1.1126e-05     -59.6774 
          20      30.6204 -0.000140779 -1.12612e-05     -59.6763 
          20      30.7903 -0.000140734 -1.13817e-05     -59.6751 
          20      30.9606 -0.000140721 -1.14771e-05     -59.6738 
          20      31.1315 -0.000140744 -1.15372e-05     -59.6726 
          20      31.3028 -0.000140802 -1.15521e-05     -59.6714 
          20      31.4745 -0.000140888 -1.15137e-05     -59.6702 
          20      31.6468 -0.000140983 -1.14162e-05     -59.6689 
          20      31.8194 -0.000141059 -1.12581e-05     -59.6677 
          20      31.9926  -0.00014107 -1.10429e-05     -59.6664 
          20      32.1662 -0.000140954 -1.07815e-05     -59.6652 
          20      32.3404 -0.000140624 -1.04932e-05     -59.6639 
          20      32.5149 -0.000140458 -1.09025e-05     -59.6626 
          20        32.69 -0.000140331 -1.12427e-05     -59.6614 
          20      32.8655 -0.000140226 -1.14667e-05     -59.6601 
          20      33.0414 -0.000140155 -1.16075e-05     -59.6588 
          20       33.218 -0.000140121 -1.16924e-05     -59.6575 
          20      33.3948 -0.000140123 -1.17427e-05     -59.6561 
          20      33.5723 -0.000140155  -1.1775e-05     -59.6548 
          20        33.75 -0.000140206 -1.18007e-05     -59.6535 
          20      33.9284 -0.000140264 -1.18277e-05     -59.6522 
          20      34.1073 -0.000140315   -1.186e-05     -59.6508 
          20      34.2865 -0.000140344 -1.18987e-05     -59.6495 
          20      34.4663 -0.000140339 -1.19425e-05     -59.6481 
          20      34.6465  -0.00014029 -1.19885e-05     -59.6467 
          20      34.8272 -0.000140189 -1.20327e-05     -59.6454 
          20      35.0083 -0.000140038 -1.20707e-05      -59.644 
          20        35.19 -0.000139842 -1.20985e-05     -59.6426 
          20      35.3721 -0.000139618 -1.21135e-05     -59.6412 
          20      35.5546 -0.000139613  -1.2164e-05     -59.6398 
          20      35.7377 -0.000139698 -1.22045e-05     -59.6384 
          20      35.9211 -0.000139753 -1.22223e-05     -59.6369 
          20      36.1052 -0.000139783 -1.22338e-05     -59.6355 
          20      36.2895 -0.000139793 -1.22509e-05     -59.6341 
          20      36.4745 -0.000139785 -1.22816e-05     -59.6326 
          20      36.6598 -0.000139764 -1.23306e-05     -59.6312 
          20      36.8457 -0.000139731 -1.23992e-05     -59.6297 
          20      37.0321 -0.000139692 -1.24865e-05     -59.6282 
          20      37.2188 -0.000139646 -1.25894e-05     -59.6267 
          20      37.4062 -0.000139597 -1.27039e-05     -59.6253 
          20      37.5938 -0.000139545 -1.28252e-05     -59.6238 
          20      37.7821  -0.00013949 -1.29495e-05     -59.6223 
          20      37.9707 -0.000139431 -1.30742e-05     -59.6208 
          20      38.1599 -0.000139363 -1.31994e-05     -59.6192 
          20      38.3496 -0.000139283 -1.33292e-05     -59.6177 
          20      38.5396 -0.000139183 -1.34723e-05     -59.6162 
          20      38.7302 -0.000139051 -1.36449e-05     -59.6146 
          20      38.9211 -0.000138873 -1.38705e-05     -59.6131 
          20      39.1127 -0.000138735 -1.40292e-05     -59.6115 
          20      39.3046 -0.000138805 -1.38704e-05     -59.6099 
          20      39.4971 -0.000138797 -1.38223e-05     -59.6084 
          20      39.6899 -0.000138733 -1.38484e-05     -59.6068 
          20      39.8833 -0.000138631 -1.39183e-05     -59.6052 
          20      40.0772 -0.000138506  -1.4008e-05     -59.6036 
          20      40.2714 -0.000138369 -1.41003e-05      -59.602 
          20      40.4663 -0.000138231 -1.41844e-05     -59.6004 
          20      40.6615   -0.0001381 -1.42556e-05     -59.5987 
          20      40.8573 -0.000137983 -1.43144e-05     -59.5971 
          20      41.0534 -0.000137885 -1.43655e-05     -59.5955 
          20      41.2501  -0.00013781 -1.44167e-05     -59.5938 
          20      41.4473 -0.000137761 -1.44771e-05     -59.5921 
          20      41.6448 -0.000137739 -1.45553e-05     -59.5905 
          20      41.8429 -0.000137741  -1.4657e-05     -59.5888 
          20      42.0414 -0.000137761 -1.47824e-05     -59.5871 
          20      42.2405 -0.000137791 -1.49236e-05     -59.5854 
          20      42.4399 -0.000137813 -1.50605e-05     -59.5837 
          20      42.6399 -0.000137805 -1.51577e-05      -59.582 
          20      42.8404 -0.000137735   -1.516e-05     -59.5803 
          20      43.0412 -0.000137559 -1.49879e-05     -59.5786 
          20      43.2426 -0.000137407 -1.50443e-05     -59.5768 
          20      43.4444 -0.000137416 -1.55083e-05     -59.5751 
          20      43.6467 -0.000137397 -1.57915e-05     -59.5733 
          20      43.8494 -0.000137356 -1.59401e-05     -59.5716 
          20      44.0527 -0.000137297 -1.59939e-05     -59.5698 
          20      44.2563 -0.000137225 -1.59855e-05     -59.5681 
          20      44.4606 -0.000137145 -1.59417e-05     -59.5663 
          20      44.6653 -0.000137059 -1.58835e-05     -59.5645 
          20      44.8704  -0.00013697 -1.58273e-05     -59.5627 
          20       45.076 -0.000136881 -1.57847e-05     -59.5609 
          20       45.282 -0.000136793 -1.57638e-05     -59.5591 
          20      45.4886 -0.000136707 -1.57692e-05     -59.5572 
          20      45.6955 -0.000136625 -1.58026e-05     -59.5554 
          20       45.903 -0.000136547 -1.58634e-05     -59.5536 
          20      46.1111 -0.000136473 -1.59491e-05     -59.5517 
          20      46.3194 -0.000136403 -1.60558e-05     -59.5499 
          20      46.5283 -0.000136337 -1.61784e-05      -59.548 
          20      46.7376 -0.000136274 -1.63113e-05     -59.5461 
          20      46.9475 -0.000136213 -1.64485e-05     -59.5442 
          20      47.1577 -0.000136153  -1.6584e-05     -59.5424 
          20      47.3685 -0.000136093 -1.67123e-05     -59.5405 
          20      47.5798 -0.000136032 -1.68283e-05     -59.5386 
          20      47.7914 -0.000135969 -1.69276e-05     -59.5366 
          20      48.0037 -0.000135902 -1.70072e-05     -59.5347 