Variables = x, y, u, v, p

Zone, I=800, F=POINT
         -70            0           -0           -0     -59.6991 
         -70     0.000234 -1.69787e-05 -3.80184e-09     -59.6991 
         -70     0.000939 -6.39939e-05 -1.49789e-08     -59.6991 
         -70     0.002113 -0.000129613 -3.27308e-08     -59.6991 
         -70     0.003759 -0.000198588 -5.60168e-08     -59.6991 
         -70     0.005872 -0.000255485 -8.36174e-08     -59.6991 
         -70     0.008457 -0.000289618 -1.14652e-07     -59.6991 
         -70      0.01151 -0.000297527 -1.48551e-07     -59.6991 
         -70     0.015036 -0.000284079 -1.85399e-07     -59.6991 
         -70     0.019031 -0.000260496 -2.25725e-07     -59.6991 
         -70     0.023493 -0.000240058 -2.70486e-07     -59.6991 
         -70     0.028429 -0.000232542 -3.20901e-07     -59.6991 
         -70     0.033831 -0.000239667 -3.77964e-07     -59.6991 
         -70     0.039706  -0.00025371 -4.42599e-07     -59.6991 
         -70     0.046047 -0.000261511  -5.1537e-07     -59.6991 
         -70     0.052863 -0.000253987 -5.97017e-07     -59.6991 
         -70      0.06015 -0.000237265 -6.88381e-07     -59.6991 
         -70       0.0679 -0.000234713 -7.90336e-07     -59.6991 
         -70     0.076126 -0.000257864 -9.02693e-07     -59.6991 
         -70     0.084816 -0.000235608 -1.02173e-06     -59.6991 
         -70     0.093982 -0.000243054 -1.15337e-06     -59.6991 
         -70     0.103611  -0.00024449 -1.29202e-06     -59.6991 
         -70     0.113718 -0.000242964 -1.44036e-06     -59.6991 
         -70     0.124286 -0.000240653 -1.59797e-06     -59.6991 
         -70     0.135333 -0.000238766 -1.76249e-06     -59.6991 
         -70      0.14685 -0.000237625 -1.92943e-06     -59.6991 
         -70     0.158827 -0.000236891 -2.09365e-06     -59.6991 
         -70     0.171284 -0.000235942 -2.25123e-06      -59.699 
         -70     0.184201 -0.000234323 -2.39983e-06      -59.699 
         -70     0.197599 -0.000232109 -2.54051e-06      -59.699 
         -70     0.211455 -0.000230004 -2.67624e-06      -59.699 
         -70     0.225792  -0.00022883 -2.80993e-06      -59.699 
         -70       0.2406 -0.000228001 -2.93686e-06      -59.699 
         -70     0.255865 -0.000225268 -3.08357e-06     -59.6989 
         -70     0.271613 -0.000223857 -3.27485e-06     -59.6989 
         -70     0.287818 -0.000222284 -3.49371e-06     -59.6989 
         -70     0.304506 -0.000220613  -3.7918e-06     -59.6989 
         -70      0.32165 -0.000218903 -4.19343e-06     -59.6988 
         -70     0.339278 -0.000217202 -4.69937e-06     -59.6988 
         -70     0.357377 -0.000215553 -5.28853e-06     -59.6988 
         -70      0.37593 -0.000213992 -5.92411e-06     -59.6987 
         -70     0.394968  -0.00021254 -6.56274e-06     -59.6987 
         -70     0.414461 -0.000211217 -7.15906e-06     -59.6986 
         -70      0.43444 -0.000210032 -7.67839e-06     -59.6986 
         -70     0.454872 -0.000208994 -8.10131e-06     -59.6985 
         -70     0.475791 -0.000208103  -8.4335e-06     -59.6985 
         -70     0.497163 -0.000207356 -8.70606e-06     -59.6984 
         -70     0.519021 -0.000206744 -8.97554e-06     -59.6983 
         -70      0.54135  -0.00020625 -9.31195e-06     -59.6983 
         -70     0.564131 -0.000205845 -9.77775e-06     -59.6982 
         -70       0.5874 -0.000205473 -1.03928e-05     -59.6981 
         -70     0.611121 -0.000205079 -1.10669e-05      -59.698 
         -70      0.63533  -0.00020495 -1.15871e-05     -59.6979 
         -70      0.65999 -0.000204851 -1.20518e-05     -59.6979 
         -70     0.685139 -0.000204789 -1.24841e-05     -59.6978 
         -70     0.710759 -0.000204771 -1.29018e-05     -59.6977 
         -70     0.736828 -0.000204806 -1.33181e-05     -59.6975 
         -70     0.763387 -0.000204901 -1.37428e-05     -59.6974 
         -70     0.790396 -0.000205063 -1.41804e-05     -59.6973 
         -70     0.817896 -0.000205299 -1.46329e-05     -59.6972 
         -70     0.845843 -0.000205613 -1.50982e-05      -59.697 
         -70     0.874283  -0.00020601 -1.55727e-05     -59.6969 
         -70      0.90317 -0.000206491   -1.605e-05     -59.6968 
         -70     0.932551 -0.000207057 -1.65242e-05     -59.6966 
         -70     0.962401 -0.000207704 -1.69884e-05     -59.6964 
         -70     0.992697 -0.000208426 -1.74366e-05     -59.6963 
         -70      1.02349 -0.000209217 -1.78656e-05     -59.6961 
         -70      1.05472 -0.000210066 -1.82734e-05     -59.6959 
         -70      1.08645 -0.000210959 -1.86623e-05     -59.6957 
         -70      1.11863 -0.000211882 -1.90366e-05     -59.6955 
         -70       1.1513  -0.00021282 -1.94052e-05     -59.6953 
         -70      1.18444 -0.000213756 -1.97788e-05     -59.6951 
         -70      1.21802 -0.000214676 -2.01695e-05     -59.6948 
         -70      1.25211  -0.00021557 -2.05899e-05     -59.6946 
         -70      1.28663 -0.000216433  -2.1048e-05     -59.6943 
         -70      1.32165 -0.000217271 -2.15462e-05     -59.6941 
         -70      1.35712   -0.0002181 -2.20723e-05     -59.6938 
         -70      1.39308 -0.000218959 -2.25965e-05     -59.6935 
         -70      1.42951 -0.000219905 -2.30595e-05     -59.6932 
         -70      1.46638  -0.00022103 -2.33628e-05     -59.6929 
         -70      1.50375 -0.000222465 -2.33566e-05     -59.6926 
         -70      1.54156  -0.00022403 -2.40333e-05     -59.6923 
         -70      1.57987  -0.00022566  -2.4551e-05     -59.6919 
         -70      1.61863 -0.000227328 -2.48786e-05     -59.6916 
         -70      1.65788 -0.000229002  -2.5062e-05     -59.6912 
         -70      1.69757  -0.00023065  -2.5142e-05     -59.6908 
         -70      1.73776 -0.000232249 -2.51554e-05     -59.6904 
         -70      1.77842 -0.000233776  -2.5134e-05       -59.69 
         -70      1.81952 -0.000235213 -2.51054e-05     -59.6896 
         -70      1.86113 -0.000236548 -2.50922e-05     -59.6891 
         -70      1.90316 -0.000237768 -2.51129e-05     -59.6887 
         -70      1.94571  -0.00023887 -2.51812e-05     -59.6882 
         -70      1.98869 -0.000239848 -2.53068e-05     -59.6877 
         -70      2.03217 -0.000240704 -2.54955e-05     -59.6872 
         -70      2.07612 -0.000241439  -2.5749e-05     -59.6867 
         -70      2.12051 -0.000242058 -2.60656e-05     -59.6862 
         -70       2.1654 -0.000242569 -2.64414e-05     -59.6856 
         -70      2.21073  -0.00024298 -2.68685e-05     -59.6851 
         -70      2.25656 -0.000243302 -2.73383e-05     -59.6845 
         -70      2.30283 -0.000243544 -2.78392e-05     -59.6839 
         -70       2.3496 -0.000243717 -2.83599e-05     -59.6832 
         -70      2.39685 -0.000243834 -2.88873e-05     -59.6826 
         -70      2.44452 -0.000243902 -2.94081e-05     -59.6819 
         -70      2.49271 -0.000243933 -2.99108e-05     -59.6813 
         -70      2.54132 -0.000243933 -3.03833e-05     -59.6806 
         -70      2.59044 -0.000243908 -3.08164e-05     -59.6798 
         -70         2.64 -0.000243863 -3.12016e-05     -59.6791 
         -70      2.69006 -0.000243799 -3.15339e-05     -59.6783 
         -70      2.74056 -0.000243716 -3.18097e-05     -59.6776 
         -70      2.79156  -0.00024361 -3.20295e-05     -59.6768 
         -70      2.84304 -0.000243476 -3.21957e-05     -59.6759 
         -70      2.89494  -0.00024331 -3.23142e-05     -59.6751 
         -70      2.94735 -0.000243101 -3.23935e-05     -59.6742 
         -70       3.0002 -0.000242844 -3.24442e-05     -59.6733 
         -70      3.05355 -0.000242529 -3.24786e-05     -59.6724 
         -70      3.10733 -0.000242153 -3.25097e-05     -59.6715 
         -70      3.16163 -0.000241715 -3.25497e-05     -59.6705 
         -70      3.21639 -0.000241218 -3.26089e-05     -59.6695 
         -70      3.27158 -0.000240678  -3.2693e-05     -59.6685 
         -70      3.32729 -0.000240119 -3.28016e-05     -59.6674 
         -70      3.38342 -0.000239582 -3.29241e-05     -59.6664 
         -70      3.44007 -0.000239126 -3.30377e-05     -59.6653 
         -70      3.49714 -0.000238837 -3.31017e-05     -59.6642 
         -70      3.55472 -0.000238827 -3.30542e-05      -59.663 
         -70      3.61273 -0.000239247 -3.28057e-05     -59.6618 
         -70      3.67125 -0.000240291 -3.22328e-05     -59.6606 
         -70      3.73025 -0.000242203 -3.11716e-05     -59.6594 
         -70      3.78967  -0.00024291 -3.06686e-05     -59.6581 
         -70      3.84961 -0.000242678 -3.11282e-05     -59.6569 
         -70      3.90996 -0.000242472 -3.20443e-05     -59.6555 
         -70      3.97084 -0.000242273 -3.32945e-05     -59.6542 
         -70      4.03214 -0.000242047 -3.47465e-05     -59.6528 
         -70      4.09395 -0.000241745 -3.62649e-05     -59.6514 
         -70      4.15624 -0.000242121 -3.70785e-05     -59.6499 
         -70      4.21895 -0.000242793 -3.75896e-05     -59.6485 
         -70      4.28217 -0.000243218 -3.82646e-05      -59.647 
         -70      4.34582 -0.000243439  -3.9067e-05     -59.6454 
         -70      4.40998 -0.000243494 -3.99666e-05     -59.6439 
         -70      4.47457 -0.000243412 -4.09333e-05     -59.6422 
         -70      4.53968 -0.000243217 -4.19418e-05     -59.6406 
         -70      4.60525  -0.00024293 -4.29652e-05     -59.6389 
         -70      4.67125 -0.000242568 -4.39765e-05     -59.6372 
         -70      4.73777 -0.000242145 -4.49508e-05     -59.6355 
         -70       4.8047 -0.000241677 -4.58598e-05     -59.6337 
         -70      4.87216 -0.000241177 -4.66785e-05     -59.6319 
         -70      4.94003  -0.00024066 -4.73805e-05       -59.63 
         -70      5.00843 -0.000240141 -4.79445e-05     -59.6281 
         -70      5.07724 -0.000239637 -4.83525e-05     -59.6262 
         -70      5.14658 -0.000239162 -4.85963e-05     -59.6242 
         -70      5.21639 -0.000238733 -4.86787e-05     -59.6222 
         -70      5.28661 -0.000238366 -4.86201e-05     -59.6202 
         -70      5.35736 -0.000238073 -4.84635e-05     -59.6181 
         -70      5.42852  -0.00023786 -4.82819e-05      -59.616 
         -70      5.50021 -0.000237728 -4.81862e-05     -59.6138 
         -70      5.57231 -0.000237667  -4.8335e-05     -59.6116 
         -70      5.64493 -0.000237649 -4.89462e-05     -59.6094 
         -70      5.71803 -0.000237631 -5.03093e-05     -59.6071 
         -70      5.79154 -0.000237541 -5.27975e-05     -59.6048 
         -70      5.86558  -0.00023794 -5.35083e-05     -59.6024 
         -70      5.94003 -0.000238497 -5.17106e-05        -59.6 
         -70      6.01501 -0.000238486 -5.09712e-05     -59.5975 
         -70       6.0904 -0.000238122 -5.09797e-05      -59.595 
         -70      6.16632 -0.000237575 -5.14883e-05     -59.5925 
         -70      6.24271 -0.000236976 -5.23039e-05     -59.5899 
         -70       6.3195 -0.000236419 -5.32786e-05     -59.5873 
         -70      6.39683 -0.000235966 -5.43053e-05     -59.5846 
         -70      6.47457 -0.000235651 -5.53041e-05     -59.5819 
         -70      6.55284 -0.000235484 -5.62227e-05     -59.5791 
         -70      6.63152 -0.000235455 -5.70238e-05     -59.5763 
         -70      6.71073 -0.000235542 -5.76873e-05     -59.5734 
         -70      6.79034  -0.00023571 -5.82017e-05     -59.5705 
         -70      6.87049 -0.000235917 -5.85671e-05     -59.5676 
         -70      6.95111 -0.000236125 -5.87927e-05     -59.5646 
         -70      7.03214 -0.000236292 -5.89012e-05     -59.5615 
         -70       7.1137 -0.000236391 -5.89331e-05     -59.5584 
         -70      7.19566   -0.0002364 -5.89544e-05     -59.5553 
         -70      7.27816 -0.000236317 -5.90669e-05     -59.5521 
         -70      7.36106 -0.000236158 -5.94223e-05     -59.5488 
         -70      7.44451 -0.000235962 -6.02397e-05     -59.5455 
         -70      7.52842 -0.000235794 -6.18264e-05     -59.5422 
         -70      7.61273 -0.000234616 -6.19313e-05     -59.5388 
         -70      7.69758 -0.000233154 -6.15624e-05     -59.5353 
         -70      7.78283 -0.000231943 -6.06192e-05     -59.5318 
         -70      7.86862 -0.000231472  -5.8676e-05     -59.5283 
         -70      7.95481 -0.000230943 -5.73655e-05     -59.5247 
         -70      8.04155 -0.000229263 -5.90375e-05      -59.521 
         -70      8.12868 -0.000228558 -5.99369e-05     -59.5173 
         -70      8.21635 -0.000228442 -6.03713e-05     -59.5135 
         -70      8.30449 -0.000228613 -6.05931e-05     -59.5097 
         -70      8.39303 -0.000228841 -6.08073e-05     -59.5058 
         -70      8.48211 -0.000228923 -6.11526e-05     -59.5019 
         -70      8.57159  -0.00022811 -6.12897e-05     -59.4979 
         -70      8.66161 -0.000227224  -6.1503e-05     -59.4938 
         -70      8.75203 -0.000226389 -6.17973e-05     -59.4898 
         -70      8.84299 -0.000225695 -6.22129e-05     -59.4856 
         -70      8.93443 -0.000225196  -6.2795e-05     -59.4814 
         -70      9.02626 -0.000224905 -6.35713e-05     -59.4771 
         -70      9.11863 -0.000224791 -6.45384e-05     -59.4728 
         -70      9.21139 -0.000224786 -6.56494e-05     -59.4684 
         -70      9.30471 -0.000224798 -6.68209e-05      -59.464 
         -70      9.39841 -0.000224718 -6.79374e-05     -59.4595 
         -70      9.49267 -0.000224446 -6.88804e-05     -59.4549 
         -70      9.58739 -0.000223918 -6.95559e-05     -59.4503 
         -70      9.68251 -0.000223138 -6.99455e-05     -59.4456 
         -70      9.77817 -0.000222216 -7.01681e-05     -59.4409 
         -70      9.87422 -0.000221427 -7.05552e-05     -59.4361 
         -70      9.97083 -0.000221256 -7.17477e-05     -59.4313 
         -70      10.0678 -0.000222476  -7.4804e-05     -59.4264 
         -70      10.1654 -0.000224199 -7.80679e-05     -59.4214 
         -70      10.2633 -0.000222918  -7.6986e-05     -59.4164 
         -70      10.3618 -0.000221532 -7.64592e-05     -59.4113 
         -70      10.4607 -0.000220227 -7.63628e-05     -59.4061 
         -70      10.5601 -0.000219135  -7.6584e-05     -59.4009 
         -70        10.66 -0.000218331 -7.70178e-05     -59.3957 
         -70      10.7603 -0.000217837 -7.75595e-05     -59.3903 
         -70      10.8611 -0.000217617 -7.81012e-05     -59.3849 
         -70      10.9623 -0.000217583 -7.85238e-05     -59.3795 
         -70      11.0641 -0.000217589 -7.86947e-05      -59.374 
         -70      11.1663 -0.000217126 -7.90465e-05     -59.3684 
         -70       11.269 -0.000216174 -7.97406e-05     -59.3627 
         -70      11.3721 -0.000215214 -8.02103e-05      -59.357 
         -70      11.4757 -0.000214318 -8.04971e-05     -59.3513 
         -70      11.5798  -0.00021353 -8.06371e-05     -59.3454 
         -70      11.6844 -0.000212873 -8.06622e-05     -59.3395 
         -70      11.7894 -0.000212351 -8.06028e-05     -59.3336 
         -70       11.895 -0.000211957   -8.049e-05     -59.3276 
         -70      12.0009  -0.00021167 -8.03559e-05     -59.3215 
         -70      12.1073 -0.000211463 -8.02334e-05     -59.3153 
         -70      12.2142 -0.000211305 -8.01558e-05     -59.3091 
         -70      12.3216 -0.000211157 -8.01538e-05     -59.3029 
         -70      12.4294 -0.000210984 -8.02533e-05     -59.2965 
         -70      12.5378 -0.000210744 -8.04702e-05     -59.2901 
         -70      12.6465 -0.000210398 -8.08044e-05     -59.2837 
         -70      12.7558   -0.0002099 -8.12335e-05     -59.2771 
         -70      12.8656 -0.000209203 -8.17026e-05     -59.2705 
         -70      12.9757 -0.000208252 -8.21143e-05     -59.2639 
         -70      13.0864 -0.000206979 -8.23173e-05     -59.2572 
         -70      13.1975 -0.000205306 -8.20902e-05     -59.2504 
         -70      13.3092 -0.000203125  -8.1126e-05     -59.2435 
         -70      13.4212 -0.000202369 -8.08778e-05     -59.2366 
         -70      13.5338 -0.000202686 -8.15978e-05     -59.2296 
         -70      13.6468 -0.000202555 -8.20829e-05     -59.2226 
         -70      13.7603 -0.000202122 -8.24219e-05     -59.2155 
         -70      13.8743 -0.000201502 -8.26849e-05     -59.2083 
         -70      13.9886 -0.000200781 -8.29233e-05     -59.2011 
         -70      14.1036 -0.000200022  -8.3174e-05     -59.1938 
         -70      14.2189 -0.000199266 -8.34607e-05     -59.1864 
         -70      14.3348 -0.000198538 -8.37969e-05      -59.179 
         -70       14.451 -0.000197847  -8.4187e-05     -59.1715 
         -70      14.5678 -0.000197193 -8.46298e-05      -59.164 
         -70      14.6851 -0.000196568 -8.51184e-05     -59.1563 
         -70      14.8028 -0.000195957  -8.5643e-05     -59.1486 
         -70       14.921 -0.000195343 -8.61936e-05     -59.1409 
         -70      15.0396 -0.000194711 -8.67584e-05     -59.1331 
         -70      15.1588 -0.000194044 -8.73281e-05     -59.1252 
         -70      15.2783 -0.000193332 -8.78938e-05     -59.1173 
         -70      15.3984 -0.000192567 -8.84508e-05     -59.1093 
         -70       15.519 -0.000191748 -8.89958e-05     -59.1012 
         -70        15.64 -0.000190882 -8.95284e-05     -59.0931 
         -70      15.7615 -0.000189981  -9.0052e-05     -59.0849 
         -70      15.8834 -0.000189063   -9.057e-05     -59.0766 
         -70      16.0058 -0.000188152 -9.10883e-05     -59.0683 
         -70      16.1286 -0.000187278 -9.16103e-05     -59.0599 
         -70       16.252 -0.000186469 -9.21382e-05     -59.0515 
         -70      16.3759 -0.000185755 -9.26677e-05      -59.043 
         -70      16.5002 -0.000185164 -9.31864e-05     -59.0344 
         -70       16.625 -0.000184712 -9.36711e-05     -59.0257 
         -70      16.7501 -0.000184404 -9.40814e-05     -59.0171 
         -70      16.8759 -0.000184226 -9.43572e-05     -59.0083 
         -70       17.002 -0.000184138 -9.44115e-05     -58.9995 
         -70      17.1287 -0.000184068 -9.41253e-05     -58.9906 
         -70      17.2557 -0.000184235  -9.3847e-05     -58.9816 
         -70      17.3834 -0.000184115 -9.35781e-05     -58.9726 
         -70      17.5115 -0.000183811 -9.39222e-05     -58.9636 
         -70      17.6399 -0.000183444 -9.55431e-05     -58.9544 
         -70       17.769 -0.000183009 -9.50953e-05     -58.9453 
         -70      17.8984 -0.000182289 -9.52426e-05      -58.936 
         -70      18.0284 -0.000181258 -9.60443e-05     -58.9267 
         -70      18.1587 -0.000179921  -9.7282e-05     -58.9173 
         -70      18.2896 -0.000178299 -9.88051e-05     -58.9079 
         -70       18.421 -0.000176735 -0.000100015     -58.8984 
         -70      18.5528  -0.00017597 -9.97024e-05     -58.8889 
         -70      18.6851 -0.000175207  -9.9315e-05     -58.8793 
         -70      18.8178 -0.000174449 -9.89145e-05     -58.8696 
         -70      18.9511 -0.000173693 -9.85453e-05     -58.8599 
         -70      19.0847 -0.000172937 -9.82388e-05     -58.8501 
         -70      19.2189  -0.00017218 -9.80135e-05     -58.8402 
         -70      19.3535  -0.00017142 -9.78787e-05     -58.8304 
         -70      19.4886 -0.000170654  -9.7835e-05     -58.8204 
         -70      19.6242 -0.000169881 -9.78772e-05     -58.8104 
         -70      19.7602 -0.000169102 -9.79951e-05     -58.8003 
         -70      19.8968 -0.000168316  -9.8176e-05     -58.7902 
         -70      20.0337 -0.000167526 -9.84052e-05       -58.78 
         -70      20.1712 -0.000166735 -9.86682e-05     -58.7698 
         -70      20.3091 -0.000165947 -9.89506e-05     -58.7595 
         -70      20.4475 -0.000165167 -9.92406e-05     -58.7491 
         -70      20.5864   -0.0001644 -9.95281e-05     -58.7387 
         -70      20.7257 -0.000163654 -9.98061e-05     -58.7283 
         -70      20.8655 -0.000162934 -0.000100071     -58.7178 
         -70      21.0058 -0.000162247 -0.000100322     -58.7072 
         -70      21.1465 -0.000161596 -0.000100562     -58.6966 
         -70      21.2877 -0.000160986 -0.000100794     -58.6859 
         -70      21.4294 -0.000160416 -0.000101026     -58.6752 
         -70      21.5716 -0.000159882 -0.000101262     -58.6644 
         -70      21.7142 -0.000159376 -0.000101506     -58.6536 
         -70      21.8573 -0.000158884 -0.000101761     -58.6427 
         -70      22.0008 -0.000158384 -0.000102022     -58.6318 
         -70      22.1449 -0.000157844 -0.000102274     -58.6208 
         -70      22.2893 -0.000157221 -0.000102493     -58.6098 
         -70      22.4344  -0.00015646 -0.000102637     -58.5987 
         -70      22.5797 -0.000155492 -0.000102646     -58.5876 
         -70      22.7257 -0.000154227 -0.000102434     -58.5764 
         -70      22.8721 -0.000152955 -0.000102462     -58.5651 
         -70      23.0189 -0.000152076 -0.000103047     -58.5539 
         -70      23.1663 -0.000151285 -0.000103658     -58.5425 
         -70       23.314 -0.000150566 -0.000104273     -58.5312 
         -70      23.4623   -0.0001499 -0.000104872     -58.5197 
         -70       23.611 -0.000149272 -0.000105436     -58.5083 
         -70      23.7602 -0.000148666 -0.000105949     -58.4968 
         -70        23.91 -0.000148069   -0.0001064     -58.4852 
         -70        24.06 -0.000147472  -0.00010678     -58.4736 
         -70      24.2107 -0.000146864 -0.000107082      -58.462 
         -70      24.3617  -0.00014624 -0.000107304     -58.4503 
         -70      24.5133 -0.000145594 -0.000107448     -58.4385 
         -70      24.6653 -0.000144926 -0.000107517     -58.4267 
         -70      24.8178 -0.000144235 -0.000107521     -58.4149 
         -70      24.9708 -0.000143526 -0.000107468      -58.403 
         -70      25.1242 -0.000142805 -0.000107373     -58.3911 
         -70      25.2781 -0.000142081 -0.000107252     -58.3792 
         -70      25.4324 -0.000141366 -0.000107121     -58.3672 
         -70      25.5873 -0.000140676 -0.000106998     -58.3552 
         -70      25.7426 -0.000140028 -0.000106904     -58.3431 
         -70      25.8984 -0.000139443 -0.000106855      -58.331 
         -70      26.0546 -0.000138944 -0.000106869     -58.3188 
         -70      26.2114 -0.000138557  -0.00010696     -58.3066 
         -70      26.3686 -0.000138341 -0.000106526     -58.2944 
         -70      26.5262 -0.000137971 -0.000106106     -58.2821 
         -70      26.6844 -0.000137452 -0.000105795     -58.2698 
         -70      26.8429 -0.000136814 -0.000105593     -58.2575 
         -70       27.002 -0.000136085 -0.000105499     -58.2451 
         -70      27.1615 -0.000135293 -0.000105506     -58.2326 
         -70      27.3216 -0.000134463 -0.000105605     -58.2202 
         -70      27.4821 -0.000133619 -0.000105786     -58.2077 
         -70       27.643 -0.000132784 -0.000106037     -58.1952 
         -70      27.8044 -0.000131973 -0.000106346     -58.1826 
         -70      27.9663 -0.000131205 -0.000106699       -58.17 
         -70      28.1287  -0.00013049 -0.000107086     -58.1574 
         -70      28.2914 -0.000129838 -0.000107495     -58.1447 
         -70      28.4548 -0.000129254 -0.000107919      -58.132 
         -70      28.6185 -0.000128739 -0.000108351     -58.1193 
         -70      28.7828 -0.000128289 -0.000108787     -58.1065 
         -70      28.9475 -0.000127896 -0.000109229     -58.0937 
         -70      29.1126 -0.000127549 -0.000109679     -58.0809 
         -70      29.2784  -0.00012723 -0.000110147      -58.068 
         -70      29.4444 -0.000126916 -0.000110644     -58.0551 
         -70       29.611 -0.000126581 -0.000111188     -58.0422 
         -70       29.778 -0.000126085 -0.000111431     -58.0293 
         -70      29.9456 -0.000125064 -0.000110321     -58.0163 
         -70      30.1137 -0.000123952 -0.000109329     -58.0033 
         -70      30.2821 -0.000122805 -0.000108477     -57.9903 
         -70      30.4511 -0.000121665 -0.000107772     -57.9772 
         -70      30.6204 -0.000120567 -0.000107219     -57.9641 
         -70      30.7903  -0.00011953  -0.00010681      -57.951 
         -70      30.9606  -0.00011857 -0.000106538     -57.9379 
         -70      31.1315 -0.000117692 -0.000106388     -57.9247 
         -70      31.3028 -0.000116895 -0.000106342     -57.9115 
         -70      31.4745 -0.000116175 -0.000106384     -57.8983 
         -70      31.6468  -0.00011552 -0.000106493     -57.8851 
         -70      31.8194 -0.000114919 -0.000106651     -57.8718 
         -70      31.9926 -0.000114355 -0.000106838     -57.8585 
         -70      32.1662 -0.000113812 -0.000107038     -57.8452 
         -70      32.3404 -0.000113272 -0.000107236     -57.8319 
         -70      32.5149 -0.000112722 -0.000107418     -57.8186 
         -70        32.69 -0.000112143 -0.000107574     -57.8052 
         -70      32.8655 -0.000111526 -0.000107695     -57.7918 
         -70      33.0414  -0.00011086 -0.000107774     -57.7784 
         -70       33.218 -0.000110139 -0.000107806     -57.7649 
         -70      33.3948 -0.000109362 -0.000107789     -57.7515 
         -70      33.5723 -0.000108531 -0.000107717      -57.738 
         -70        33.75 -0.000107655 -0.000107587     -57.7245 
         -70      33.9284 -0.000106747 -0.000107392      -57.711 
         -70      34.1073 -0.000105827 -0.000107122     -57.6975 
         -70      34.2865 -0.000104921 -0.000106763     -57.6839 
         -70      34.4663 -0.000104059  -0.00010629     -57.6704 
         -70      34.6465  -0.00010328 -0.000105674     -57.6568 
         -70      34.8272 -0.000102626 -0.000104869     -57.6432 
         -70      35.0083 -0.000104585 -0.000104193     -57.6296 
         -70        35.19 -0.000107556 -0.000104391      -57.616 
         -70      35.3721 -0.000106813 -0.000104478     -57.6023 
         -70      35.5546 -0.000105789 -0.000104267     -57.5887 
         -70      35.7377  -0.00010462 -0.000103896      -57.575 
         -70      35.9211 -0.000103412  -0.00010347     -57.5613 
         -70      36.1052 -0.000102239 -0.000103064     -57.5476 
         -70      36.2895 -0.000101155 -0.000102727     -57.5339 
         -70      36.4745 -0.000100189 -0.000102486     -57.5202 
         -70      36.6598 -9.93551e-05 -0.000102351     -57.5065 
         -70      36.8457 -9.86518e-05 -0.000102318     -57.4927 
         -70      37.0321 -9.80682e-05 -0.000102372      -57.479 
         -70      37.2188 -9.75849e-05  -0.00010249     -57.4652 
         -70      37.4062 -9.71763e-05 -0.000102645     -57.4514 
         -70      37.5938 -9.68158e-05 -0.000102809     -57.4376 
         -70      37.7821 -9.64747e-05 -0.000102954     -57.4238 
         -70      37.9707 -9.61271e-05 -0.000103053       -57.41 
         -70      38.1599 -9.57493e-05 -0.000103087     -57.3962 
         -70      38.3496 -9.53228e-05 -0.000103039     -57.3824 
         -70      38.5396  -9.4835e-05 -0.000102901     -57.3686 
         -70      38.7302 -9.42785e-05 -0.000102673     -57.3547 
         -70      38.9211 -9.36542e-05 -0.000102362     -57.3409 
         -70      39.1127  -9.2968e-05  -0.00010198     -57.3271 
         -70      39.3046 -9.22343e-05  -0.00010155     -57.3132 
         -70      39.4971 -9.14704e-05 -0.000101098     -57.2993 
         -70      39.6899 -9.07006e-05 -0.000100655     -57.2855 
         -70      39.8833  -8.9949e-05 -0.000100253     -57.2716 
         -70      40.0772 -8.92423e-05 -9.99225e-05     -57.2577 
         -70      40.2714 -8.86041e-05  -9.9692e-05     -57.2438 
         -70      40.4663 -8.80514e-05 -9.95795e-05       -57.23 
         -70      40.6615 -8.75935e-05 -9.95911e-05     -57.2161 
         -70      40.8573 -8.72241e-05 -9.97147e-05     -57.2022 
         -70      41.0534 -8.69199e-05  -9.9914e-05     -57.1883 
         -70      41.2501 -8.66319e-05 -0.000100122     -57.1744 
         -70      41.4473 -8.62814e-05 -0.000100235     -57.1605 
         -70      41.6448 -8.57523e-05 -0.000100101     -57.1466 
         -70      41.8429 -8.53455e-05 -0.000100029     -57.1327 
         -70      42.0414 -8.52213e-05 -9.96891e-05     -57.1188 
         -70      42.2405 -8.47662e-05   -9.819e-05     -57.1049 
         -70      42.4399 -8.43389e-05 -9.71503e-05      -57.091 
         -70      42.6399   -8.393e-05 -9.64824e-05     -57.0771 
         -70      42.8404 -8.35325e-05 -9.61086e-05     -57.0632 
         -70      43.0412 -8.31404e-05  -9.5958e-05     -57.0493 
         -70      43.2426 -8.27482e-05 -9.59668e-05     -57.0354 
         -70      43.4444 -8.23527e-05 -9.60789e-05     -57.0215 
         -70      43.6467 -8.19505e-05 -9.62454e-05     -57.0076 
         -70      43.8494   -8.154e-05 -9.64241e-05     -56.9937 
         -70      44.0527 -8.11194e-05 -9.65804e-05     -56.9798 
         -70      44.2563 -8.06887e-05 -9.66855e-05     -56.9659 
         -70      44.4606 -8.02472e-05 -9.67178e-05      -56.952 
         -70      44.6653 -7.97956e-05 -9.66613e-05     -56.9381 
         -70      44.8704  -7.9335e-05 -9.65064e-05     -56.9243 
         -70       45.076 -7.88658e-05 -9.62486e-05     -56.9104 
         -70       45.282 -7.83901e-05 -9.58892e-05     -56.8965 
         -70      45.4886 -7.79085e-05 -9.54335e-05     -56.8827 
         -70      45.6955 -7.74234e-05 -9.48923e-05     -56.8688 
         -70       45.903 -7.69355e-05 -9.42789e-05     -56.8549 
         -70      46.1111 -7.64468e-05 -9.36114e-05     -56.8411 
         -70      46.3194 -7.59561e-05 -9.29096e-05     -56.8273 
         -70      46.5283 -7.54609e-05 -9.22107e-05     -56.8134 
         -70      46.7376 -7.49831e-05 -9.15569e-05     -56.7996 
         -70      46.9475  -7.4521e-05 -9.09664e-05     -56.7858 
         -70      47.1577 -7.40735e-05 -9.04567e-05      -56.772 
         -70      47.3685 -7.36379e-05 -9.00405e-05     -56.7582 
         -70      47.5798 -7.32118e-05 -8.97281e-05     -56.7444 
         -70      47.7914 -7.27927e-05 -8.95255e-05     -56.7306 
         -70      48.0037  -7.2377e-05 -8.94335e-05     -56.7168 