Variables = x, y, u, v, p

Zone, I=800, F=POINT
         -25            0 -1.54523e-19  3.79584e-24      46.1118 
         -25     0.000234 -7.67148e-06  1.85779e-10      46.1118 
         -25     0.000939 -2.90927e-05  6.72289e-10      46.1118 
         -25     0.002113 -5.95665e-05  1.25395e-09      46.1118 
         -25     0.003759 -9.27874e-05  1.63943e-09      46.1118 
         -25     0.005872 -0.000122229  1.50843e-09      46.1118 
         -25     0.008457 -0.000143177   5.7925e-10      46.1118 
         -25      0.01151 -0.000153696 -1.33747e-09      46.1118 
         -25     0.015036 -0.000155191 -4.31642e-09      46.1118 
         -25     0.019031 -0.000151688 -8.31155e-09      46.1118 
         -25     0.023493  -0.00014827 -1.32005e-08      46.1118 
         -25     0.028429 -0.000148939 -1.88559e-08      46.1118 
         -25     0.033831 -0.000154783 -2.51834e-08      46.1118 
         -25     0.039706 -0.000163322 -3.21998e-08      46.1118 
         -25     0.046047 -0.000169813 -4.00046e-08      46.1118 
         -25     0.052863 -0.000170711 -4.87797e-08      46.1118 
         -25      0.06015 -0.000167854 -5.87193e-08      46.1118 
         -25       0.0679 -0.000169582 -7.01205e-08      46.1118 
         -25     0.076126 -0.000180741 -8.38532e-08      46.1118 
         -25     0.084816 -0.000176816 -1.01716e-07      46.1118 
         -25     0.093982 -0.000181967 -1.21177e-07      46.1118 
         -25     0.103611 -0.000185343  -1.4446e-07      46.1118 
         -25     0.113718 -0.000187831 -1.72057e-07      46.1118 
         -25     0.124286 -0.000190053 -2.04464e-07      46.1118 
         -25     0.135333  -0.00019236 -2.42352e-07      46.1118 
         -25      0.14685 -0.000194831 -2.86365e-07      46.1118 
         -25     0.158827 -0.000197352 -3.37151e-07      46.1118 
         -25     0.171284 -0.000199732 -3.95466e-07      46.1118 
         -25     0.184201 -0.000201818 -4.61837e-07      46.1118 
         -25     0.197599 -0.000203623 -5.36921e-07      46.1118 
         -25     0.211455 -0.000205339 -6.21086e-07      46.1118 
         -25     0.225792 -0.000207205 -7.14991e-07      46.1118 
         -25       0.2406 -0.000209059  -8.1931e-07      46.1118 
         -25     0.255865 -0.000210251 -9.34884e-07      46.1118 
         -25     0.271613 -0.000211701 -1.06134e-06      46.1118 
         -25     0.287818 -0.000212995 -1.19866e-06      46.1118 
         -25     0.304506 -0.000214165 -1.34758e-06      46.1118 
         -25      0.32165 -0.000215234 -1.50855e-06      46.1118 
         -25     0.339278 -0.000216224 -1.68258e-06      46.1118 
         -25     0.357377 -0.000217151 -1.87038e-06      46.1118 
         -25      0.37593 -0.000218026 -2.07252e-06      46.1118 
         -25     0.394968  -0.00021886 -2.28997e-06      46.1118 
         -25     0.414461 -0.000219657 -2.52278e-06      46.1118 
         -25      0.43444 -0.000220423 -2.77136e-06      46.1118 
         -25     0.454872 -0.000221161  -3.0349e-06      46.1117 
         -25     0.475791 -0.000221874 -3.31293e-06      46.1117 
         -25     0.497163 -0.000222566 -3.60354e-06      46.1117 
         -25     0.519021 -0.000223242 -3.90518e-06      46.1117 
         -25      0.54135 -0.000223901 -4.21522e-06      46.1117 
         -25     0.564131  -0.00022454 -4.53077e-06      46.1117 
         -25       0.5874 -0.000225143 -4.84984e-06      46.1117 
         -25     0.611121 -0.000225674 -5.16943e-06      46.1117 
         -25      0.63533 -0.000226159 -5.48557e-06      46.1117 
         -25      0.65999 -0.000226579 -5.80855e-06      46.1117 
         -25     0.685139 -0.000226907 -6.13938e-06      46.1117 
         -25     0.710759  -0.00022712 -6.47786e-06      46.1117 
         -25     0.736828 -0.000227197 -6.82327e-06      46.1116 
         -25     0.763387 -0.000227118 -7.17528e-06      46.1116 
         -25     0.790396 -0.000226867 -7.53215e-06      46.1116 
         -25     0.817896 -0.000226431 -7.89285e-06      46.1116 
         -25     0.845843   -0.0002258   -8.255e-06      46.1116 
         -25     0.874283 -0.000224967 -8.61726e-06      46.1116 
         -25      0.90317  -0.00022393   -8.977e-06      46.1116 
         -25     0.932551 -0.000222687 -9.33282e-06      46.1116 
         -25     0.962401 -0.000221241 -9.68254e-06      46.1115 
         -25     0.992697 -0.000219602 -1.00243e-05      46.1115 
         -25      1.02349 -0.000217775 -1.03573e-05      46.1115 
         -25      1.05472 -0.000215777 -1.06803e-05      46.1115 
         -25      1.08645 -0.000213617 -1.09932e-05      46.1115 
         -25      1.11863 -0.000211317 -1.12958e-05      46.1114 
         -25       1.1513 -0.000208892 -1.15891e-05      46.1114 
         -25      1.18444 -0.000206363 -1.18739e-05      46.1114 
         -25      1.21802 -0.000203752 -1.21515e-05      46.1114 
         -25      1.25211 -0.000201078 -1.24236e-05      46.1113 
         -25      1.28663 -0.000198365 -1.26911e-05      46.1113 
         -25      1.32165 -0.000195629  -1.2955e-05      46.1113 
         -25      1.35712 -0.000192894 -1.32144e-05      46.1113 
         -25      1.39308 -0.000190173 -1.34671e-05      46.1112 
         -25      1.42951 -0.000187486 -1.37076e-05      46.1112 
         -25      1.46638 -0.000184848 -1.39263e-05      46.1112 
         -25      1.50375 -0.000182268 -1.41088e-05      46.1111 
         -25      1.54156 -0.000179475 -1.42816e-05      46.1111 
         -25      1.57987 -0.000176918  -1.4484e-05      46.1111 
         -25      1.61863 -0.000174553 -1.46992e-05       46.111 
         -25      1.65788 -0.000172307 -1.49134e-05       46.111 
         -25      1.69757 -0.000170124 -1.51137e-05       46.111 
         -25      1.73776 -0.000167948 -1.52904e-05      46.1109 
         -25      1.77842  -0.00016574 -1.54354e-05      46.1109 
         -25      1.81952 -0.000163469  -1.5543e-05      46.1108 
         -25      1.86113 -0.000161108 -1.56095e-05      46.1108 
         -25      1.90316 -0.000158648 -1.56336e-05      46.1107 
         -25      1.94571 -0.000156078 -1.56159e-05      46.1107 
         -25      1.98869 -0.000153406 -1.55589e-05      46.1106 
         -25      2.03217 -0.000150637  -1.5467e-05      46.1106 
         -25      2.07612 -0.000147792 -1.53463e-05      46.1105 
         -25      2.12051 -0.000144896 -1.52043e-05      46.1105 
         -25       2.1654 -0.000141973 -1.50499e-05      46.1104 
         -25      2.21073 -0.000139061 -1.48933e-05      46.1104 
         -25      2.25656 -0.000136192 -1.47449e-05      46.1103 
         -25      2.30283 -0.000133408 -1.46165e-05      46.1102 
         -25       2.3496 -0.000130745 -1.45195e-05      46.1102 
         -25      2.39685 -0.000128245 -1.44659e-05      46.1101 
         -25      2.44452 -0.000125947  -1.4467e-05      46.1101 
         -25      2.49271 -0.000123881 -1.45337e-05        46.11 
         -25      2.54132 -0.000122083 -1.46759e-05      46.1099 
         -25      2.59044 -0.000120574 -1.49025e-05      46.1098 
         -25         2.64 -0.000119377 -1.52204e-05      46.1098 
         -25      2.69006 -0.000118501 -1.56355e-05      46.1097 
         -25      2.74056 -0.000117951 -1.61505e-05      46.1096 
         -25      2.79156 -0.000117721 -1.67672e-05      46.1095 
         -25      2.84304 -0.000117796 -1.74838e-05      46.1094 
         -25      2.89494 -0.000118152 -1.82954e-05      46.1093 
         -25      2.94735 -0.000118756 -1.91965e-05      46.1093 
         -25       3.0002 -0.000119562 -2.01759e-05      46.1092 
         -25      3.05355 -0.000120521 -2.12228e-05      46.1091 
         -25      3.10733 -0.000121574 -2.23207e-05       46.109 
         -25      3.16163 -0.000122661 -2.34539e-05      46.1089 
         -25      3.21639 -0.000123716 -2.46025e-05      46.1088 
         -25      3.27158 -0.000124677 -2.57448e-05      46.1087 
         -25      3.32729 -0.000125488 -2.68614e-05      46.1086 
         -25      3.38342 -0.000126105 -2.79295e-05      46.1085 
         -25      3.44007 -0.000126499 -2.89307e-05      46.1083 
         -25      3.49714 -0.000126669 -2.98463e-05      46.1082 
         -25      3.55472 -0.000126647 -3.06643e-05      46.1081 
         -25      3.61273 -0.000126509 -3.13761e-05       46.108 
         -25      3.67125 -0.000126387 -3.19834e-05      46.1079 
         -25      3.73025 -0.000126481 -3.24967e-05      46.1077 
         -25      3.78967 -0.000126596 -3.29942e-05      46.1076 
         -25      3.84961 -0.000126554 -3.34518e-05      46.1075 
         -25      3.90996 -0.000126497 -3.38548e-05      46.1073 
         -25      3.97084 -0.000126441 -3.42169e-05      46.1072 
         -25      4.03214 -0.000126398 -3.45466e-05      46.1071 
         -25      4.09395 -0.000126377 -3.48501e-05      46.1069 
         -25      4.15624 -0.000126386 -3.51299e-05      46.1068 
         -25      4.21895  -0.00012643 -3.53863e-05      46.1066 
         -25      4.28217  -0.00012651  -3.5619e-05      46.1064 
         -25      4.34582 -0.000126629 -3.58256e-05      46.1063 
         -25      4.40998 -0.000126786 -3.60045e-05      46.1061 
         -25      4.47457 -0.000126981 -3.61533e-05       46.106 
         -25      4.53968 -0.000127211 -3.62711e-05      46.1058 
         -25      4.60525 -0.000127474 -3.63577e-05      46.1056 
         -25      4.67125 -0.000127765 -3.64144e-05      46.1054 
         -25      4.73777 -0.000128081 -3.64443e-05      46.1052 
         -25       4.8047 -0.000128417  -3.6452e-05      46.1051 
         -25      4.87216 -0.000128768 -3.64441e-05      46.1049 
         -25      4.94003 -0.000129129 -3.64283e-05      46.1047 
         -25      5.00843 -0.000129493 -3.64133e-05      46.1045 
         -25      5.07724 -0.000129852 -3.64085e-05      46.1043 
         -25      5.14658 -0.000130199 -3.64224e-05      46.1041 
         -25      5.21639 -0.000130523 -3.64618e-05      46.1039 
         -25      5.28661 -0.000130809 -3.65304e-05      46.1036 
         -25      5.35736 -0.000131041 -3.66266e-05      46.1034 
         -25      5.42852 -0.000131236 -3.66442e-05      46.1032 
         -25      5.50021 -0.000131354 -3.64598e-05       46.103 
         -25      5.57231 -0.000131355 -3.61248e-05      46.1027 
         -25      5.64493   -0.0001312 -3.61178e-05      46.1025 
         -25      5.71803 -0.000131063 -3.65315e-05      46.1023 
         -25      5.79154  -0.00013108 -3.67017e-05       46.102 
         -25      5.86558 -0.000131203 -3.67254e-05      46.1018 
         -25      5.94003 -0.000131393  -3.6675e-05      46.1015 
         -25      6.01501 -0.000131622 -3.66019e-05      46.1013 
         -25       6.0904 -0.000131868 -3.65397e-05       46.101 
         -25      6.16632 -0.000132118 -3.65062e-05      46.1007 
         -25      6.24271 -0.000132361 -3.65078e-05      46.1004 
         -25       6.3195 -0.000132553 -3.65306e-05      46.1002 
         -25      6.39683 -0.000132684 -3.65658e-05      46.0999 
         -25      6.47457 -0.000132817 -3.66117e-05      46.0996 
         -25      6.55284 -0.000132954 -3.66535e-05      46.0993 
         -25      6.63152 -0.000133097 -3.66825e-05       46.099 
         -25      6.71073 -0.000133247 -3.66967e-05      46.0987 
         -25      6.79034 -0.000133406 -3.67008e-05      46.0984 
         -25      6.87049 -0.000133575 -3.67063e-05      46.0981 
         -25      6.95111 -0.000133754   -3.673e-05      46.0977 
         -25      7.03214 -0.000133941 -3.67919e-05      46.0974 
         -25       7.1137 -0.000134136 -3.69132e-05      46.0971 
         -25      7.19566 -0.000134332 -3.71117e-05      46.0967 
         -25      7.27816 -0.000134525  -3.7398e-05      46.0964 
         -25      7.36106 -0.000134704 -3.77683e-05       46.096 
         -25      7.44451 -0.000134859 -3.81994e-05      46.0957 
         -25      7.52842  -0.00013497 -3.86376e-05      46.0953 
         -25      7.61273 -0.000135018 -3.89905e-05      46.0949 
         -25      7.69758 -0.000134975 -3.91154e-05      46.0946 
         -25      7.78283 -0.000134806 -3.88052e-05      46.0942 
         -25      7.86862  -0.00013478 -3.85209e-05      46.0938 
         -25      7.95481 -0.000135057 -3.92501e-05      46.0934 
         -25      8.04155 -0.000135185 -4.04439e-05       46.093 
         -25      8.12868 -0.000135148 -4.09984e-05      46.0926 
         -25      8.21635 -0.000135351  -4.0219e-05      46.0922 
         -25      8.30449 -0.000135778 -3.97569e-05      46.0917 
         -25      8.39303 -0.000136339 -3.95254e-05      46.0913 
         -25      8.48211 -0.000136954 -3.94456e-05      46.0909 
         -25      8.57159 -0.000137558 -3.94475e-05      46.0904 
         -25      8.66161 -0.000138098 -3.94695e-05        46.09 
         -25      8.75203 -0.000138529 -3.94591e-05      46.0895 
         -25      8.84299 -0.000138495 -3.94187e-05      46.0891 
         -25      8.93443 -0.000138317 -3.93203e-05      46.0886 
         -25      9.02626 -0.000138185 -3.91609e-05      46.0881 
         -25      9.11863 -0.000138098 -3.89558e-05      46.0877 
         -25      9.21139  -0.00013805 -3.87177e-05      46.0872 
         -25      9.30471 -0.000138032 -3.84565e-05      46.0867 
         -25      9.39841 -0.000138036 -3.81808e-05      46.0862 
         -25      9.49267 -0.000138049 -3.78966e-05      46.0856 
         -25      9.58739 -0.000138061 -3.76096e-05      46.0851 
         -25      9.68251 -0.000138063 -3.73244e-05      46.0846 
         -25      9.77817 -0.000138048 -3.70441e-05      46.0841 
         -25      9.87422 -0.000138011 -3.67725e-05      46.0835 
         -25      9.97083 -0.000137951 -3.65121e-05       46.083 
         -25      10.0678 -0.000137869 -3.62663e-05      46.0824 
         -25      10.1654 -0.000137773 -3.60374e-05      46.0818 
         -25      10.2633 -0.000137671 -3.58284e-05      46.0813 
         -25      10.3618 -0.000137577 -3.56415e-05      46.0807 
         -25      10.4607 -0.000137507 -3.54786e-05      46.0801 
         -25      10.5601 -0.000137479 -3.53412e-05      46.0795 
         -25        10.66 -0.000137513  -3.5229e-05      46.0789 
         -25      10.7603 -0.000137628 -3.51406e-05      46.0783 
         -25      10.8611 -0.000137843 -3.50719e-05      46.0776 
         -25      10.9623 -0.000138173 -3.50158e-05       46.077 
         -25      11.0641 -0.000138624  -3.4961e-05      46.0764 
         -25      11.1663 -0.000138752 -3.49412e-05      46.0757 
         -25       11.269 -0.000138232 -3.48964e-05       46.075 
         -25      11.3721 -0.000137834 -3.47412e-05      46.0744 
         -25      11.4757 -0.000137538 -3.45258e-05      46.0737 
         -25      11.5798 -0.000137324 -3.42939e-05       46.073 
         -25      11.6844 -0.000137171  -3.4081e-05      46.0723 
         -25      11.7894 -0.000137061 -3.39116e-05      46.0716 
         -25       11.895 -0.000136976 -3.37983e-05      46.0709 
         -25      12.0009 -0.000136903 -3.37399e-05      46.0702 
         -25      12.1073 -0.000136833 -3.37193e-05      46.0694 
         -25      12.2142 -0.000136762 -3.37036e-05      46.0687 
         -25      12.3216  -0.00013669  -3.3642e-05      46.0679 
         -25      12.4294 -0.000136628 -3.34664e-05      46.0672 
         -25      12.5378 -0.000136588 -3.30898e-05      46.0664 
         -25      12.6465 -0.000136595 -3.24082e-05      46.0656 
         -25      12.7558 -0.000136753 -3.18205e-05      46.0648 
         -25      12.8656 -0.000137084 -3.19482e-05       46.064 
         -25      12.9757  -0.00013739 -3.19099e-05      46.0632 
         -25      13.0864 -0.000137656 -3.17607e-05      46.0624 
         -25      13.1975 -0.000137871 -3.15447e-05      46.0616 
         -25      13.3092 -0.000138032 -3.12953e-05      46.0607 
         -25      13.4212 -0.000138142  -3.1037e-05      46.0599 
         -25      13.5338 -0.000138206 -3.07849e-05       46.059 
         -25      13.6468 -0.000138231 -3.05479e-05      46.0581 
         -25      13.7603 -0.000138225 -3.03293e-05      46.0573 
         -25      13.8743 -0.000138189 -3.01282e-05      46.0564 
         -25      13.9886 -0.000138123 -2.99429e-05      46.0555 
         -25      14.1036 -0.000138015 -2.97721e-05      46.0546 
         -25      14.2189 -0.000137838 -2.96184e-05      46.0536 
         -25      14.3348 -0.000137551 -2.94909e-05      46.0527 
         -25       14.451 -0.000137088  -2.9409e-05      46.0517 
         -25      14.5678 -0.000136355 -2.94058e-05      46.0508 
         -25      14.6851 -0.000136501 -2.92973e-05      46.0498 
         -25      14.8028 -0.000136958 -2.91637e-05      46.0488 
         -25       14.921 -0.000137288 -2.90635e-05      46.0478 
         -25      15.0396   -0.0001375 -2.89827e-05      46.0468 
         -25      15.1588 -0.000137607 -2.89114e-05      46.0458 
         -25      15.2783 -0.000137626 -2.88434e-05      46.0448 
         -25      15.3984 -0.000137575 -2.87751e-05      46.0438 
         -25       15.519 -0.000137471 -2.87056e-05      46.0427 
         -25        15.64 -0.000137333 -2.86354e-05      46.0417 
         -25      15.7615 -0.000137178 -2.85666e-05      46.0406 
         -25      15.8834 -0.000137021 -2.85018e-05      46.0395 
         -25      16.0058 -0.000136876  -2.8444e-05      46.0384 
         -25      16.1286 -0.000136751 -2.83961e-05      46.0373 
         -25       16.252 -0.000136654 -2.83603e-05      46.0362 
         -25      16.3759 -0.000136587 -2.83385e-05      46.0351 
         -25      16.5002 -0.000136548 -2.83311e-05      46.0339 
         -25       16.625 -0.000136533 -2.83376e-05      46.0328 
         -25      16.7501 -0.000136532 -2.83563e-05      46.0316 
         -25      16.8759 -0.000136533 -2.83841e-05      46.0304 
         -25       17.002 -0.000136521 -2.84166e-05      46.0292 
         -25      17.1287 -0.000136477 -2.84487e-05       46.028 
         -25      17.2557 -0.000136383 -2.84744e-05      46.0268 
         -25      17.3834 -0.000136219 -2.84875e-05      46.0256 
         -25      17.5115 -0.000135966 -2.84816e-05      46.0243 
         -25      17.6399 -0.000135609 -2.84515e-05      46.0231 
         -25       17.769 -0.000135137 -2.83934e-05      46.0218 
         -25      17.8984 -0.000134839  -2.8423e-05      46.0205 
         -25      18.0284 -0.000134862  -2.8561e-05      46.0192 
         -25      18.1587 -0.000134975 -2.87069e-05      46.0179 
         -25      18.2896 -0.000135159 -2.88715e-05      46.0166 
         -25       18.421  -0.00013539 -2.90746e-05      46.0153 
         -25      18.5528 -0.000135627 -2.93462e-05      46.0139 
         -25      18.6851 -0.000135822 -2.97284e-05      46.0125 
         -25      18.8178 -0.000135909 -3.02746e-05      46.0112 
         -25      18.9511 -0.000135688 -3.02658e-05      46.0098 
         -25      19.0847 -0.000135543 -3.01893e-05      46.0084 
         -25      19.2189 -0.000135537 -3.02438e-05       46.007 
         -25      19.3535 -0.000135629 -3.03478e-05      46.0055 
         -25      19.4886 -0.000135779 -3.04447e-05      46.0041 
         -25      19.6242 -0.000135739 -3.04969e-05      46.0026 
         -25      19.7602  -0.00013535 -3.05882e-05      46.0012 
         -25      19.8968 -0.000135005 -3.07528e-05      45.9997 
         -25      20.0337  -0.00013471 -3.09686e-05      45.9982 
         -25      20.1712 -0.000134467 -3.12138e-05      45.9967 
         -25      20.3091 -0.000134276  -3.1467e-05      45.9952 
         -25      20.4475  -0.00013413 -3.17096e-05      45.9936 
         -25      20.5864 -0.000134025 -3.19258e-05      45.9921 
         -25      20.7257 -0.000133952 -3.21031e-05      45.9905 
         -25      20.8655 -0.000133902 -3.22341e-05      45.9889 
         -25      21.0058 -0.000133867 -3.23152e-05      45.9873 
         -25      21.1465 -0.000133837  -3.2348e-05      45.9857 
         -25      21.2877 -0.000133805 -3.23385e-05      45.9841 
         -25      21.4294 -0.000133765 -3.22969e-05      45.9825 
         -25      21.5716 -0.000133711 -3.22372e-05      45.9808 
         -25      21.7142 -0.000133642 -3.21761e-05      45.9791 
         -25      21.8573 -0.000133553 -3.21318e-05      45.9775 
         -25      22.0008 -0.000133447 -3.21226e-05      45.9758 
         -25      22.1449 -0.000133325 -3.21651e-05       45.974 
         -25      22.2893  -0.00013319 -3.22717e-05      45.9723 
         -25      22.4344 -0.000133045 -3.24488e-05      45.9706 
         -25      22.5797 -0.000132895 -3.26926e-05      45.9688 
         -25      22.7257 -0.000132743 -3.29875e-05       45.967 
         -25      22.8721 -0.000132592 -3.33003e-05      45.9653 
         -25      23.0189 -0.000132441 -3.35772e-05      45.9635 
         -25      23.1663 -0.000132286 -3.37394e-05      45.9616 
         -25       23.314 -0.000132119 -3.36765e-05      45.9598 
         -25      23.4623 -0.000131922 -3.32417e-05       45.958 
         -25       23.611 -0.000131672 -3.22459e-05      45.9561 
         -25      23.7602 -0.000131867 -3.18883e-05      45.9542 
         -25        23.91 -0.000132385 -3.27197e-05      45.9523 
         -25        24.06 -0.000132594 -3.32419e-05      45.9504 
         -25      24.2107 -0.000132579 -3.35285e-05      45.9485 
         -25      24.3617 -0.000132412 -3.36421e-05      45.9466 
         -25      24.5133 -0.000132148 -3.36366e-05      45.9446 
         -25      24.6653 -0.000131831 -3.35576e-05      45.9426 
         -25      24.8178 -0.000131493 -3.34422e-05      45.9406 
         -25      24.9708 -0.000131159 -3.33206e-05      45.9386 
         -25      25.1242 -0.000130845  -3.3216e-05      45.9366 
         -25      25.2781 -0.000130558 -3.31451e-05      45.9346 
         -25      25.4324 -0.000130305 -3.31195e-05      45.9326 
         -25      25.5873 -0.000130086 -3.31453e-05      45.9305 
         -25      25.7426 -0.000129898 -3.32244e-05      45.9284 
         -25      25.8984 -0.000129738 -3.33548e-05      45.9263 
         -25      26.0546   -0.0001296 -3.35313e-05      45.9242 
         -25      26.2114 -0.000129482 -3.37461e-05      45.9221 
         -25      26.3686 -0.000129378 -3.39894e-05      45.9199 
         -25      26.5262 -0.000129286 -3.42496e-05      45.9178 
         -25      26.6844 -0.000129204 -3.45151e-05      45.9156 
         -25      26.8429 -0.000129133 -3.47731e-05      45.9134 
         -25       27.002 -0.000129074 -3.50121e-05      45.9112 
         -25      27.1615 -0.000129028 -3.52207e-05       45.909 
         -25      27.3216 -0.000129001 -3.53895e-05      45.9067 
         -25      27.4821 -0.000128995 -3.55108e-05      45.9045 
         -25       27.643 -0.000129012 -3.55796e-05      45.9022 
         -25      27.8044 -0.000129053 -3.55941e-05      45.8999 
         -25      27.9663 -0.000129116 -3.55559e-05      45.8976 
         -25      28.1287 -0.000129191 -3.54707e-05      45.8953 
         -25      28.2914 -0.000129264 -3.53487e-05       45.893 
         -25      28.4548 -0.000129309  -3.5205e-05      45.8906 
         -25      28.6185 -0.000129289 -3.50603e-05      45.8882 
         -25      28.7828 -0.000128864 -3.51545e-05      45.8859 
         -25      28.9475 -0.000127732 -3.56262e-05      45.8835 
         -25      29.1126 -0.000126452 -3.61522e-05       45.881 
         -25      29.2784 -0.000126189 -3.63329e-05      45.8786 
         -25      29.4444 -0.000125885 -3.63958e-05      45.8761 
         -25       29.611 -0.000125821 -3.65696e-05      45.8737 
         -25       29.778 -0.000125937 -3.68076e-05      45.8712 
         -25      29.9456 -0.000126019 -3.70084e-05      45.8687 
         -25      30.1137 -0.000126064 -3.71504e-05      45.8662 
         -25      30.2821 -0.000126072 -3.72229e-05      45.8637 
         -25      30.4511 -0.000126043 -3.72242e-05      45.8611 
         -25      30.6204 -0.000125982 -3.71602e-05      45.8585 
         -25      30.7903 -0.000125896 -3.70419e-05       45.856 
         -25      30.9606 -0.000125791 -3.68852e-05      45.8534 
         -25      31.1315 -0.000125671 -3.67076e-05      45.8507 
         -25      31.3028 -0.000125544 -3.65287e-05      45.8481 
         -25      31.4745 -0.000125414 -3.63677e-05      45.8455 
         -25      31.6468 -0.000125283 -3.62423e-05      45.8428 
         -25      31.8194 -0.000125153 -3.61682e-05      45.8401 
         -25      31.9926 -0.000125023 -3.61576e-05      45.8374 
         -25      32.1662 -0.000124892 -3.62189e-05      45.8347 
         -25      32.3404 -0.000124756 -3.63558e-05       45.832 
         -25      32.5149 -0.000124609 -3.65665e-05      45.8292 
         -25        32.69 -0.000124447 -3.68443e-05      45.8265 
         -25      32.8655 -0.000124263 -3.71766e-05      45.8237 
         -25      33.0414 -0.000124053 -3.75447e-05      45.8209 
         -25       33.218 -0.000123813 -3.79258e-05      45.8181 
         -25      33.3948 -0.000123543 -3.82911e-05      45.8153 
         -25      33.5723 -0.000123247 -3.86085e-05      45.8124 
         -25        33.75 -0.000122934 -3.88418e-05      45.8096 
         -25      33.9284 -0.000122621 -3.89536e-05      45.8067 
         -25      34.1073 -0.000122337  -3.8905e-05      45.8038 
         -25      34.2865  -0.00012212 -3.86589e-05      45.8009 
         -25      34.4663 -0.000121979 -3.84323e-05       45.798 
         -25      34.6465 -0.000121734 -3.89996e-05       45.795 
         -25      34.8272 -0.000121508 -3.93612e-05      45.7921 
         -25      35.0083 -0.000121302 -3.95667e-05      45.7891 
         -25        35.19 -0.000121114 -3.96583e-05      45.7861 
         -25      35.3721 -0.000120944 -3.96712e-05      45.7831 
         -25      35.5546 -0.000120792 -3.96337e-05      45.7801 
         -25      35.7377 -0.000120654 -3.95682e-05       45.777 
         -25      35.9211 -0.000120528 -3.94921e-05       45.774 
         -25      36.1052 -0.000120411 -3.94177e-05      45.7709 
         -25      36.2895 -0.000120296 -3.93538e-05      45.7678 
         -25      36.4745 -0.000120179 -3.93058e-05      45.7647 
         -25      36.6598 -0.000120057 -3.92768e-05      45.7616 
         -25      36.8457 -0.000119924 -3.92684e-05      45.7585 
         -25      37.0321 -0.000119779 -3.92814e-05      45.7553 
         -25      37.2188 -0.000119625  -3.9317e-05      45.7521 
         -25      37.4062 -0.000119465 -3.93773e-05      45.7489 
         -25      37.5938 -0.000119311 -3.94667e-05      45.7458 
         -25      37.7821 -0.000119182 -3.95927e-05      45.7425 
         -25      37.9707 -0.000119107 -3.97667e-05      45.7393 
         -25      38.1599 -0.000119123 -4.00059e-05      45.7361 
         -25      38.3496 -0.000119284 -4.03334e-05      45.7328 
         -25      38.5396 -0.000119185 -4.04891e-05      45.7295 
         -25      38.7302 -0.000118656 -4.02884e-05      45.7262 
         -25      38.9211 -0.000118299 -4.00923e-05      45.7229 
         -25      39.1127  -0.00011808 -3.99104e-05      45.7196 
         -25      39.3046 -0.000117961 -3.97549e-05      45.7163 
         -25      39.4971 -0.000117897 -3.96397e-05      45.7129 
         -25      39.6899  -0.00011784 -3.95821e-05      45.7095 
         -25      39.8833 -0.000117738 -3.96027e-05      45.7061 
         -25      40.0772  -0.00011754 -3.97265e-05      45.7027 
         -25      40.2714 -0.000117191 -3.99835e-05      45.6993 
         -25      40.4663 -0.000116643 -4.04096e-05      45.6959 
         -25      40.6615 -0.000115848 -4.10463e-05      45.6924 
         -25      40.8573 -0.000114769  -4.1944e-05       45.689 
         -25      41.0534 -0.000113943   -4.239e-05      45.6855 
         -25      41.2501 -0.000113867 -4.19972e-05       45.682 
         -25      41.4473 -0.000113868 -4.17292e-05      45.6785 
         -25      41.6448 -0.000113914 -4.15635e-05       45.675 
         -25      41.8429 -0.000113978 -4.14795e-05      45.6714 
         -25      42.0414 -0.000114041 -4.14583e-05      45.6679 
         -25      42.2405 -0.000114086  -4.1483e-05      45.6643 
         -25      42.4399 -0.000114102 -4.15385e-05      45.6607 
         -25      42.6399 -0.000114082 -4.16116e-05      45.6572 
         -25      42.8404  -0.00011402 -4.16907e-05      45.6535 
         -25      43.0412 -0.000113917 -4.17661e-05      45.6499 
         -25      43.2426 -0.000113772   -4.183e-05      45.6463 
         -25      43.4444 -0.000113588 -4.18759e-05      45.6426 
         -25      43.6467 -0.000113371 -4.18994e-05       45.639 
         -25      43.8494 -0.000113126 -4.18973e-05      45.6353 
         -25      44.0527 -0.000112859 -4.18683e-05      45.6316 
         -25      44.2563 -0.000112578 -4.18122e-05      45.6279 
         -25      44.4606  -0.00011229 -4.17302e-05      45.6242 
         -25      44.6653 -0.000112002  -4.1625e-05      45.6204 
         -25      44.8704 -0.000111721 -4.15002e-05      45.6167 
         -25       45.076 -0.000111453 -4.13604e-05      45.6129 
         -25       45.282 -0.000111203 -4.12114e-05      45.6091 
         -25      45.4886 -0.000110976 -4.10591e-05      45.6053 
         -25      45.6955 -0.000110773 -4.09107e-05      45.6015 
         -25       45.903 -0.000110597 -4.07733e-05      45.5977 
         -25      46.1111 -0.000110448 -4.06544e-05      45.5939 
         -25      46.3194 -0.000110324 -4.05615e-05        45.59 
         -25      46.5283 -0.000110222  -4.0502e-05      45.5862 
         -25      46.7376 -0.000110138 -4.04826e-05      45.5823 
         -25      46.9475 -0.000110065 -4.05097e-05      45.5784 
         -25      47.1577 -0.000109998 -4.05885e-05      45.5745 
         -25      47.3685 -0.000109927 -4.07231e-05      45.5706 
         -25      47.5798 -0.000109844 -4.09161e-05      45.5667 
         -25      47.7914 -0.000109738 -4.11682e-05      45.5627 
         -25      48.0037 -0.000109598 -4.14612e-05      45.5588 