Variables = x, y, u, v, p

Zone, I=800, F=POINT
         -10            0 -8.34708e-20  2.89571e-25      20.2097 
         -10     0.000234 -4.13536e-06  8.97032e-12      20.2097 
         -10     0.000939 -1.55809e-05  -3.2165e-11      20.2097 
         -10     0.002113 -3.15349e-05 -3.24267e-10      20.2097 
         -10     0.003759 -4.82537e-05 -1.19228e-09      20.2097 
         -10     0.005872 -6.19361e-05 -3.06354e-09      20.2097 
         -10     0.008457 -6.99265e-05 -6.45909e-09      20.2097 
         -10      0.01151 -7.13258e-05  -1.1955e-08      20.2097 
         -10     0.015036  -6.7267e-05 -2.01839e-08      20.2097 
         -10     0.019031 -6.04504e-05 -3.17797e-08      20.2097 
         -10     0.023493  -5.4105e-05  -4.7373e-08      20.2097 
         -10     0.028429 -5.06361e-05 -6.76078e-08      20.2097 
         -10     0.033831 -5.05128e-05 -9.30297e-08      20.2097 
         -10     0.039706 -5.18968e-05  -1.2419e-07      20.2097 
         -10     0.046047 -5.15885e-05 -1.61489e-07      20.2097 
         -10     0.052863 -4.73007e-05  -2.0532e-07      20.2097 
         -10      0.06015 -4.03902e-05 -2.55883e-07      20.2097 
         -10       0.0679 -3.64863e-05 -3.13223e-07      20.2097 
         -10     0.076126 -3.87885e-05 -3.77465e-07      20.2097 
         -10     0.084816 -3.10432e-05 -4.48486e-07      20.2097 
         -10     0.093982 -2.91437e-05   -5.257e-07      20.2097 
         -10     0.103611 -2.61671e-05 -6.08742e-07      20.2097 
         -10     0.113718 -2.26744e-05 -6.97095e-07      20.2097 
         -10     0.124286 -1.90845e-05 -7.89877e-07      20.2097 
         -10     0.135333 -1.56347e-05 -8.86441e-07      20.2097 
         -10      0.14685 -1.24121e-05 -9.85841e-07      20.2097 
         -10     0.158827 -9.38468e-06 -1.08707e-06      20.2097 
         -10     0.171284 -6.45954e-06 -1.18933e-06      20.2097 
         -10     0.184201 -3.57754e-06 -1.29146e-06      20.2097 
         -10     0.197599 -7.59617e-07 -1.39259e-06      20.2097 
         -10     0.211455  1.85726e-06 -1.49157e-06      20.2097 
         -10     0.225792  4.12399e-06 -1.58766e-06      20.2097 
         -10       0.2406   6.1277e-06 -1.68014e-06      20.2097 
         -10     0.255865  8.25846e-06 -1.76816e-06      20.2097 
         -10     0.271613  9.98344e-06 -1.85044e-06      20.2097 
         -10     0.287818  1.15441e-05 -1.92672e-06      20.2097 
         -10     0.304506  1.29395e-05 -1.99667e-06      20.2097 
         -10      0.32165  1.41684e-05 -2.05992e-06      20.2097 
         -10     0.339278  1.52372e-05 -2.11649e-06      20.2097 
         -10     0.357377  1.61524e-05 -2.16642e-06      20.2097 
         -10      0.37593  1.69231e-05 -2.20994e-06      20.2097 
         -10     0.394968  1.75615e-05 -2.24751e-06      20.2097 
         -10     0.414461  1.80774e-05  -2.2796e-06      20.2097 
         -10      0.43444  1.84812e-05 -2.30685e-06      20.2097 
         -10     0.454872  1.87791e-05 -2.32985e-06      20.2097 
         -10     0.475791  1.89754e-05 -2.34933e-06      20.2097 
         -10     0.497163  1.90694e-05  -2.3659e-06      20.2097 
         -10     0.519021  1.90571e-05 -2.38028e-06      20.2097 
         -10      0.54135  1.89314e-05 -2.39312e-06      20.2097 
         -10     0.564131  1.86848e-05 -2.40521e-06      20.2097 
         -10       0.5874  1.83133e-05  -2.4175e-06      20.2097 
         -10     0.611121  1.78209e-05 -2.43032e-06      20.2097 
         -10      0.63533  1.71763e-05 -2.43868e-06      20.2097 
         -10      0.65999  1.63804e-05 -2.45475e-06      20.2097 
         -10     0.685139  1.54222e-05 -2.47822e-06      20.2097 
         -10     0.710759  1.42958e-05 -2.50878e-06      20.2097 
         -10     0.736828  1.29999e-05 -2.54607e-06      20.2097 
         -10     0.763387  1.15333e-05 -2.58987e-06      20.2097 
         -10     0.790396  9.90287e-06  -2.6398e-06      20.2097 
         -10     0.817896  8.11373e-06  -2.6956e-06      20.2097 
         -10     0.845843  6.17931e-06 -2.75684e-06      20.2097 
         -10     0.874283  4.10945e-06  -2.8232e-06      20.2097 
         -10      0.90317  1.92243e-06  -2.8941e-06      20.2097 
         -10     0.932551 -3.69018e-07 -2.96911e-06      20.2097 
         -10     0.962401 -2.74596e-06 -3.04754e-06      20.2097 
         -10     0.992697 -5.18943e-06 -3.12861e-06      20.2097 
         -10      1.02349 -7.68692e-06 -3.21161e-06      20.2097 
         -10      1.05472 -1.02192e-05  -3.2955e-06      20.2097 
         -10      1.08645 -1.27772e-05 -3.37943e-06      20.2097 
         -10      1.11863 -1.53462e-05 -3.46219e-06      20.2097 
         -10       1.1513 -1.79226e-05 -3.54287e-06      20.2097 
         -10      1.18444 -2.04996e-05 -3.62035e-06      20.2097 
         -10      1.21802 -2.30737e-05 -3.69366e-06      20.2097 
         -10      1.25211 -2.56506e-05  -3.7622e-06      20.2097 
         -10      1.28663 -2.82291e-05 -3.82549e-06      20.2097 
         -10      1.32165 -3.08178e-05 -3.88376e-06      20.2097 
         -10      1.35712 -3.34153e-05 -3.93777e-06      20.2097 
         -10      1.39308 -3.60253e-05 -3.98939e-06      20.2097 
         -10      1.42951 -3.86378e-05 -4.04163e-06      20.2096 
         -10      1.46638 -4.12314e-05 -4.09911e-06      20.2096 
         -10      1.50375 -4.37735e-05 -4.16864e-06      20.2096 
         -10      1.54156  -4.6106e-05 -4.23118e-06      20.2096 
         -10      1.57987 -4.86037e-05 -4.28067e-06      20.2096 
         -10      1.61863 -5.12347e-05 -4.32086e-06      20.2096 
         -10      1.65788 -5.39594e-05 -4.35481e-06      20.2096 
         -10      1.69757 -5.67335e-05 -4.38532e-06      20.2096 
         -10      1.73776 -5.95259e-05 -4.41512e-06      20.2096 
         -10      1.77842 -6.23029e-05 -4.44668e-06      20.2096 
         -10      1.81952  -6.5035e-05  -4.4822e-06      20.2096 
         -10      1.86113 -6.77035e-05 -4.52368e-06      20.2096 
         -10      1.90316  -7.0285e-05  -4.5727e-06      20.2096 
         -10      1.94571 -7.27686e-05 -4.63059e-06      20.2096 
         -10      1.98869 -7.51389e-05 -4.69813e-06      20.2096 
         -10      2.03217 -7.73919e-05 -4.77587e-06      20.2096 
         -10      2.07612 -7.95211e-05 -4.86374e-06      20.2096 
         -10      2.12051 -8.15232e-05 -4.96113e-06      20.2096 
         -10       2.1654 -8.34021e-05 -5.06718e-06      20.2096 
         -10      2.21073 -8.51579e-05 -5.18014e-06      20.2095 
         -10      2.25656 -8.67979e-05  -5.2981e-06      20.2095 
         -10      2.30283 -8.83255e-05 -5.41818e-06      20.2095 
         -10       2.3496 -8.97496e-05 -5.53737e-06      20.2095 
         -10      2.39685 -9.10759e-05 -5.65178e-06      20.2095 
         -10      2.44452   -9.231e-05 -5.75706e-06      20.2095 
         -10      2.49271 -9.34599e-05 -5.84858e-06      20.2095 
         -10      2.54132 -9.45284e-05 -5.92098e-06      20.2095 
         -10      2.59044 -9.55205e-05 -5.96877e-06      20.2095 
         -10         2.64 -9.64356e-05 -5.98596e-06      20.2095 
         -10      2.69006 -9.72742e-05 -5.96647e-06      20.2095 
         -10      2.74056 -9.80314e-05 -5.90412e-06      20.2095 
         -10      2.79156 -9.87023e-05 -5.79265e-06      20.2094 
         -10      2.84304 -9.92776e-05 -5.62615e-06      20.2094 
         -10      2.89494 -9.97461e-05 -5.39928e-06      20.2094 
         -10      2.94735 -0.000100096  -5.1068e-06      20.2094 
         -10       3.0002 -0.000100311 -4.74515e-06      20.2094 
         -10      3.05355 -0.000100379 -4.31095e-06      20.2094 
         -10      3.10733 -0.000100284 -3.80357e-06      20.2094 
         -10      3.16163 -0.000100015 -3.22279e-06      20.2094 
         -10      3.21639 -9.95627e-05 -2.57189e-06      20.2093 
         -10      3.27158 -9.89271e-05 -1.85715e-06      20.2093 
         -10      3.32729 -9.81139e-05 -1.08643e-06      20.2093 
         -10      3.38342 -9.71434e-05 -2.73796e-07      20.2093 
         -10      3.44007 -9.60492e-05  5.64584e-07      20.2093 
         -10      3.49714 -9.48882e-05  1.40474e-06      20.2093 
         -10      3.55472 -9.37393e-05  2.21929e-06      20.2093 
         -10      3.61273  -9.2716e-05  2.97137e-06      20.2092 
         -10      3.67125 -9.19664e-05  3.61867e-06      20.2092 
         -10      3.73025 -9.16867e-05  4.10822e-06      20.2092 
         -10      3.78967 -9.14486e-05  4.53539e-06      20.2092 
         -10      3.84961 -9.09628e-05  4.97443e-06      20.2092 
         -10      3.90996 -9.04488e-05  5.36119e-06      20.2092 
         -10      3.97084 -8.99296e-05  5.68995e-06      20.2091 
         -10      4.03214 -8.94189e-05  5.96966e-06      20.2091 
         -10      4.09395 -8.89195e-05  6.22258e-06      20.2091 
         -10      4.15624 -8.84279e-05  6.47916e-06      20.2091 
         -10      4.21895 -8.79345e-05  6.77517e-06       20.209 
         -10      4.28217 -8.74507e-05  6.86699e-06       20.209 
         -10      4.34582 -8.69805e-05  6.90411e-06       20.209 
         -10      4.40998 -8.65183e-05  6.96167e-06       20.209 
         -10      4.47457 -8.60654e-05  7.03703e-06       20.209 
         -10      4.53968 -8.56226e-05  7.12559e-06      20.2089 
         -10      4.60525 -8.51931e-05  7.22076e-06      20.2089 
         -10      4.67125 -8.47803e-05  7.31457e-06      20.2089 
         -10      4.73777  -8.4387e-05  7.39879e-06      20.2089 
         -10       4.8047 -8.40168e-05  7.46556e-06      20.2088 
         -10      4.87216 -8.36709e-05  7.50944e-06      20.2088 
         -10      4.94003 -8.33503e-05   7.5289e-06      20.2088 
         -10      5.00843  -8.3052e-05  7.52906e-06      20.2087 
         -10      5.07724 -8.27708e-05  7.52438e-06      20.2087 
         -10      5.14658 -8.24961e-05  7.54222e-06      20.2087 
         -10      5.21639 -8.22119e-05  7.62698e-06      20.2086 
         -10      5.28661 -8.19094e-05  7.78664e-06      20.2086 
         -10      5.35736 -8.15838e-05  7.75113e-06      20.2086 
         -10      5.42852 -8.11663e-05  7.77076e-06      20.2085 
         -10      5.50021 -8.07093e-05  7.79441e-06      20.2085 
         -10      5.57231 -8.02484e-05  7.79085e-06      20.2085 
         -10      5.64493 -7.98035e-05  7.74509e-06      20.2084 
         -10      5.71803 -7.93845e-05  7.65482e-06      20.2084 
         -10      5.79154 -7.89933e-05  7.52712e-06      20.2084 
         -10      5.86558 -7.86256e-05  7.37477e-06      20.2083 
         -10      5.94003 -7.82762e-05  7.21398e-06      20.2083 
         -10      6.01501 -7.79383e-05  7.06083e-06      20.2082 
         -10       6.0904 -7.76076e-05  6.92993e-06      20.2082 
         -10      6.16632 -7.72819e-05  6.83171e-06      20.2082 
         -10      6.24271 -7.69632e-05  6.77185e-06      20.2081 
         -10       6.3195 -7.66567e-05  6.75023e-06      20.2081 
         -10      6.39683   -7.637e-05  6.76104e-06       20.208 
         -10      6.47457 -7.61124e-05  6.79374e-06       20.208 
         -10      6.55284 -7.58906e-05  6.83487e-06      20.2079 
         -10      6.63152 -7.57066e-05  6.87074e-06      20.2079 
         -10      6.71073 -7.55516e-05  6.89157e-06      20.2078 
         -10      6.79034 -7.54001e-05  6.89658e-06      20.2078 
         -10      6.87049 -7.52016e-05  6.90069e-06      20.2077 
         -10      6.95111 -7.48104e-05  7.01454e-06      20.2076 
         -10      7.03214 -7.40225e-05  7.29353e-06      20.2076 
         -10       7.1137  -7.3935e-05  6.74234e-06      20.2075 
         -10      7.19566 -7.36657e-05  6.36706e-06      20.2075 
         -10      7.27816 -7.32836e-05  6.69189e-06      20.2074 
         -10      7.36106 -7.29419e-05  6.97592e-06      20.2073 
         -10      7.44451  -7.2646e-05  7.15796e-06      20.2073 
         -10      7.52842 -7.23933e-05  7.21683e-06      20.2072 
         -10      7.61273 -7.21754e-05  7.16103e-06      20.2071 
         -10      7.69758 -7.19801e-05  7.01758e-06      20.2071 
         -10      7.78283 -7.17948e-05  6.82313e-06       20.207 
         -10      7.86862 -7.16073e-05  6.61494e-06      20.2069 
         -10      7.95481 -7.14085e-05  6.42547e-06      20.2069 
         -10      8.04155 -7.11922e-05  6.27625e-06      20.2068 
         -10      8.12868 -7.09573e-05   6.1762e-06      20.2067 
         -10      8.21635 -7.07066e-05  6.12005e-06      20.2066 
         -10      8.30449  -7.0447e-05  6.09096e-06      20.2066 
         -10      8.39303 -7.01884e-05  6.06493e-06      20.2065 
         -10      8.48211 -6.99407e-05  6.01865e-06      20.2064 
         -10      8.57159 -6.97126e-05  5.94108e-06      20.2063 
         -10      8.66161 -6.95061e-05  5.84812e-06      20.2062 
         -10      8.75203 -6.93135e-05   5.8023e-06      20.2061 
         -10      8.84299   -6.911e-05  5.93613e-06       20.206 
         -10      8.93443 -6.89339e-05  6.02541e-06      20.2059 
         -10      9.02626 -6.88271e-05  5.89507e-06      20.2059 
         -10      9.11863 -6.86932e-05  5.87575e-06      20.2058 
         -10      9.21139 -6.85337e-05  5.83706e-06      20.2057 
         -10      9.30471 -6.83557e-05  5.72236e-06      20.2056 
         -10      9.39841 -6.81625e-05  5.54192e-06      20.2055 
         -10      9.49267 -6.79439e-05  5.35875e-06      20.2054 
         -10      9.58739 -6.78778e-05  5.39691e-06      20.2052 
         -10      9.68251 -6.78446e-05  5.38076e-06      20.2051 
         -10      9.77817 -6.77629e-05  5.24146e-06       20.205 
         -10      9.87422 -6.76558e-05   5.0327e-06      20.2049 
         -10      9.97083 -6.75411e-05  4.80192e-06      20.2048 
         -10      10.0678 -6.74317e-05  4.58777e-06      20.2047 
         -10      10.1654 -6.73352e-05    4.416e-06      20.2046 
         -10      10.2633 -6.72541e-05  4.29933e-06      20.2044 
         -10      10.3618 -6.71867e-05  4.23619e-06      20.2043 
         -10      10.4607 -6.71281e-05  4.21277e-06      20.2042 
         -10      10.5601  -6.7071e-05  4.20552e-06      20.2041 
         -10        10.66 -6.70079e-05  4.18598e-06      20.2039 
         -10      10.7603 -6.69331e-05  4.12743e-06      20.2038 
         -10      10.8611 -6.68451e-05  4.01341e-06      20.2037 
         -10      10.9623   -6.675e-05  3.84915e-06      20.2035 
         -10      11.0641  -6.6665e-05  3.67424e-06      20.2034 
         -10      11.1663 -6.66152e-05  3.57912e-06      20.2032 
         -10       11.269 -6.64204e-05  3.43039e-06      20.2031 
         -10      11.3721  -6.6322e-05  3.12095e-06      20.2029 
         -10      11.4757 -6.62823e-05  2.74309e-06      20.2028 
         -10      11.5798 -6.62691e-05  2.37127e-06      20.2026 
         -10      11.6844 -6.62561e-05  2.06144e-06      20.2025 
         -10      11.7894 -6.62245e-05  1.84624e-06      20.2023 
         -10       11.895 -6.61634e-05  1.73447e-06      20.2022 
         -10      12.0009  -6.6071e-05  1.70792e-06       20.202 
         -10      12.1073 -6.59552e-05  1.71982e-06      20.2018 
         -10      12.2142 -6.58349e-05  1.69358e-06      20.2017 
         -10      12.3216 -6.57402e-05  1.52149e-06      20.2015 
         -10      12.4294 -6.57139e-05  1.06463e-06      20.2013 
         -10      12.5378 -6.56434e-05  6.53716e-07      20.2011 
         -10      12.6465 -6.54399e-05  5.61248e-07       20.201 
         -10      12.7558 -6.52628e-05  4.03578e-07      20.2008 
         -10      12.8656 -6.51314e-05  2.04997e-07      20.2006 
         -10      12.9757 -6.50553e-05 -1.39584e-08      20.2004 
         -10      13.0864 -6.50358e-05  -2.3713e-07      20.2002 
         -10      13.1975 -6.50672e-05 -4.51437e-07         20.2 
         -10      13.3092 -6.51383e-05 -6.48171e-07      20.1998 
         -10      13.4212 -6.52343e-05 -8.21582e-07      20.1996 
         -10      13.5338 -6.53391e-05 -9.70019e-07      20.1994 
         -10      13.6468 -6.54373e-05 -1.09481e-06      20.1992 
         -10      13.7603 -6.55178e-05 -1.20066e-06       20.199 
         -10      13.8743 -6.55764e-05 -1.29568e-06      20.1988 
         -10      13.9886 -6.56198e-05 -1.39068e-06      20.1985 
         -10      14.1036 -6.56695e-05 -1.49969e-06      20.1983 
         -10      14.2189 -6.57663e-05 -1.63912e-06      20.1981 
         -10      14.3348 -6.57363e-05 -1.78633e-06      20.1979 
         -10       14.451 -6.51353e-05 -1.84346e-06      20.1976 
         -10      14.5678 -6.47312e-05 -1.92999e-06      20.1974 
         -10      14.6851 -6.44769e-05  -2.0363e-06      20.1972 
         -10      14.8028 -6.43314e-05 -2.15463e-06      20.1969 
         -10       14.921   -6.426e-05 -2.27915e-06      20.1967 
         -10      15.0396 -6.42339e-05 -2.40514e-06      20.1964 
         -10      15.1588 -6.42301e-05 -2.52952e-06      20.1962 
         -10      15.2783 -6.42303e-05 -2.64991e-06      20.1959 
         -10      15.3984 -6.42212e-05 -2.76522e-06      20.1957 
         -10       15.519 -6.41934e-05 -2.87479e-06      20.1954 
         -10        15.64 -6.41418e-05 -2.97852e-06      20.1951 
         -10      15.7615 -6.40639e-05   -3.077e-06      20.1949 
         -10      15.8834 -6.39608e-05 -3.17075e-06      20.1946 
         -10      16.0058 -6.38353e-05 -3.26078e-06      20.1943 
         -10      16.1286 -6.36927e-05 -3.34786e-06       20.194 
         -10       16.252  -6.3539e-05 -3.43305e-06      20.1937 
         -10      16.3759 -6.33818e-05  -3.5171e-06      20.1935 
         -10      16.5002 -6.32289e-05 -3.60067e-06      20.1932 
         -10       16.625 -6.30878e-05 -3.68454e-06      20.1929 
         -10      16.7501 -6.29657e-05  -3.7691e-06      20.1926 
         -10      16.8759 -6.28687e-05 -3.85498e-06      20.1923 
         -10       17.002 -6.28012e-05 -3.94263e-06       20.192 
         -10      17.1287 -6.27658e-05  -4.0329e-06      20.1916 
         -10      17.2557 -6.27626e-05 -4.12672e-06      20.1913 
         -10      17.3834 -6.27885e-05 -4.22585e-06       20.191 
         -10      17.5115 -6.28372e-05 -4.33259e-06      20.1907 
         -10      17.6399 -6.28986e-05  -4.4503e-06      20.1904 
         -10       17.769 -6.29581e-05 -4.58403e-06        20.19 
         -10      17.8984 -6.29966e-05 -4.74021e-06      20.1897 
         -10      18.0284 -6.29899e-05 -4.92799e-06      20.1894 
         -10      18.1587 -6.34644e-05 -4.57357e-06       20.189 
         -10      18.2896 -6.35928e-05  -4.9531e-06      20.1887 
         -10       18.421 -6.30635e-05 -5.55334e-06      20.1883 
         -10      18.5528 -6.30031e-05 -5.04004e-06       20.188 
         -10      18.6851 -6.29473e-05 -4.63256e-06      20.1876 
         -10      18.8178 -6.28862e-05 -4.34637e-06      20.1872 
         -10      18.9511 -6.28143e-05 -4.18231e-06      20.1869 
         -10      19.0847 -6.27304e-05 -4.13146e-06      20.1865 
         -10      19.2189 -6.26358e-05 -4.17701e-06      20.1861 
         -10      19.3535 -6.25338e-05 -4.29728e-06      20.1857 
         -10      19.4886 -6.24289e-05 -4.46842e-06      20.1853 
         -10      19.6242 -6.23257e-05 -4.66606e-06      20.1849 
         -10      19.7602 -6.22289e-05 -4.86747e-06      20.1846 
         -10      19.8968 -6.21421e-05 -5.05366e-06      20.1842 
         -10      20.0337  -6.2068e-05 -5.20965e-06      20.1838 
         -10      20.1712 -6.20078e-05 -5.32644e-06      20.1833 
         -10      20.3091 -6.19615e-05 -5.40058e-06      20.1829 
         -10      20.4475 -6.19277e-05 -5.43501e-06      20.1825 
         -10      20.5864  -6.1904e-05 -5.43819e-06      20.1821 
         -10      20.7257 -6.18874e-05 -5.42349e-06      20.1817 
         -10      20.8655 -6.18752e-05 -5.40776e-06      20.1812 
         -10      21.0058 -6.18656e-05 -5.40935e-06      20.1808 
         -10      21.1465  -6.1859e-05 -5.44567e-06      20.1804 
         -10      21.2877 -6.18594e-05 -5.52986e-06      20.1799 
         -10      21.4294 -6.18757e-05 -5.66731e-06      20.1795 
         -10      21.5716 -6.19243e-05  -5.8507e-06       20.179 
         -10      21.7142 -6.20304e-05 -6.05479e-06      20.1786 
         -10      21.8573 -6.22313e-05 -6.23095e-06      20.1781 
         -10      22.0008 -6.25784e-05 -6.29926e-06      20.1776 
         -10      22.1449 -6.31417e-05 -6.14152e-06      20.1772 
         -10      22.2893 -6.25952e-05 -6.45308e-06      20.1767 
         -10      22.4344 -6.20848e-05 -6.84077e-06      20.1762 
         -10      22.5797 -6.17476e-05 -7.17596e-06      20.1757 
         -10      22.7257 -6.15313e-05 -7.43607e-06      20.1752 
         -10      22.8721 -6.13963e-05 -7.61011e-06      20.1747 
         -10      23.0189 -6.13127e-05 -7.70091e-06      20.1742 
         -10      23.1663 -6.12591e-05 -7.72504e-06      20.1737 
         -10       23.314 -6.12205e-05 -7.71116e-06      20.1732 
         -10      23.4623 -6.11844e-05 -7.69776e-06      20.1727 
         -10       23.611 -6.11378e-05 -7.72919e-06      20.1722 
         -10      23.7602 -6.10626e-05 -7.85046e-06      20.1716 
         -10        23.91 -6.09304e-05 -8.10015e-06      20.1711 
         -10        24.06 -6.08539e-05 -8.33094e-06      20.1706 
         -10      24.2107 -6.11441e-05 -8.14708e-06        20.17 
         -10      24.3617 -6.12871e-05 -8.08823e-06      20.1695 
         -10      24.5133 -6.13131e-05 -8.12097e-06      20.1689 
         -10      24.6653 -6.12512e-05 -8.21418e-06      20.1684 
         -10      24.8178 -6.11292e-05 -8.33998e-06      20.1678 
         -10      24.9708 -6.09725e-05 -8.47395e-06      20.1673 
         -10      25.1242 -6.08039e-05 -8.59592e-06      20.1667 
         -10      25.2781 -6.06421e-05 -8.69071e-06      20.1661 
         -10      25.4324 -6.05022e-05 -8.74779e-06      20.1655 
         -10      25.5873 -6.03944e-05 -8.76202e-06       20.165 
         -10      25.7426 -6.03241e-05 -8.73324e-06      20.1644 
         -10      25.8984 -6.02914e-05 -8.66628e-06      20.1638 
         -10      26.0546 -6.02909e-05 -8.57073e-06      20.1632 
         -10      26.2114 -6.03117e-05 -8.46003e-06      20.1626 
         -10      26.3686 -6.03373e-05 -8.35126e-06       20.162 
         -10      26.5262 -6.03458e-05 -8.26395e-06      20.1613 
         -10      26.6844 -6.03099e-05 -8.21874e-06      20.1607 
         -10      26.8429 -6.01978e-05 -8.23643e-06      20.1601 
         -10       27.002 -5.99758e-05 -8.33605e-06      20.1595 
         -10      27.1615 -6.00484e-05 -8.48541e-06      20.1588 
         -10      27.3216 -6.01478e-05 -8.64118e-06      20.1582 
         -10      27.4821 -6.02517e-05 -8.77915e-06      20.1575 
         -10       27.643 -6.03428e-05 -8.88476e-06      20.1569 
         -10      27.8044 -6.04079e-05 -8.95192e-06      20.1562 
         -10      27.9663 -6.04378e-05 -8.98118e-06      20.1556 
         -10      28.1287 -6.04269e-05 -8.97877e-06      20.1549 
         -10      28.2914 -6.03734e-05 -8.95501e-06      20.1542 
         -10      28.4548 -6.02785e-05 -8.92291e-06      20.1536 
         -10      28.6185  -6.0147e-05 -8.89681e-06      20.1529 
         -10      28.7828 -5.99861e-05 -8.89079e-06      20.1522 
         -10      28.9475 -5.98067e-05 -8.91732e-06      20.1515 
         -10      29.1126 -5.96224e-05 -8.98561e-06      20.1508 
         -10      29.2784 -5.94497e-05 -9.10032e-06      20.1501 
         -10      29.4444 -5.93082e-05 -9.25961e-06      20.1494 
         -10       29.611 -5.92207e-05 -9.45428e-06      20.1487 
         -10       29.778 -5.92132e-05 -9.66524e-06      20.1479 
         -10      29.9456 -5.93154e-05 -9.86313e-06      20.1472 
         -10      30.1137 -5.95606e-05 -1.00056e-05      20.1465 
         -10      30.2821 -5.99861e-05 -1.00362e-05      20.1457 
         -10      30.4511 -5.96806e-05 -1.03645e-05       20.145 
         -10      30.6204 -5.94372e-05 -1.05352e-05      20.1443 
         -10      30.7903 -5.92608e-05 -1.05952e-05      20.1435 
         -10      30.9606 -5.91366e-05 -1.05926e-05      20.1427 
         -10      31.1315 -5.90499e-05 -1.05658e-05       20.142 
         -10      31.3028 -5.89867e-05 -1.05433e-05      20.1412 
         -10      31.4745 -5.89342e-05 -1.05437e-05      20.1404 
         -10      31.6468 -5.88813e-05 -1.05761e-05      20.1397 
         -10      31.8194 -5.88198e-05  -1.0641e-05      20.1389 
         -10      31.9926 -5.87449e-05 -1.07318e-05      20.1381 
         -10      32.1662 -5.86567e-05  -1.0836e-05      20.1373 
         -10      32.3404 -5.85611e-05 -1.09378e-05      20.1365 
         -10      32.5149 -5.84719e-05 -1.10203e-05      20.1357 
         -10        32.69 -5.84114e-05 -1.10692e-05      20.1349 
         -10      32.8655 -5.84135e-05 -1.10756e-05      20.1341 
         -10      33.0414 -5.85243e-05 -1.10407e-05      20.1332 
         -10       33.218  -5.8404e-05 -1.13469e-05      20.1324 
         -10      33.3948 -5.82039e-05 -1.16512e-05      20.1316 
         -10      33.5723 -5.80857e-05 -1.18036e-05      20.1307 
         -10        33.75 -5.80369e-05 -1.18527e-05      20.1299 
         -10      33.9284 -5.80438e-05 -1.18369e-05       20.129 
         -10      34.1073 -5.80921e-05 -1.17858e-05      20.1282 
         -10      34.2865 -5.81672e-05 -1.17208e-05      20.1273 
         -10      34.4663 -5.82555e-05 -1.16557e-05      20.1264 
         -10      34.6465  -5.8344e-05 -1.15987e-05      20.1256 
         -10      34.8272 -5.84219e-05 -1.15526e-05      20.1247 
         -10      35.0083 -5.84798e-05 -1.15158e-05      20.1238 
         -10        35.19 -5.85113e-05 -1.14836e-05      20.1229 
         -10      35.3721 -5.85123e-05 -1.14492e-05       20.122 
         -10      35.5546 -5.84819e-05 -1.14042e-05      20.1211 
         -10      35.7377 -5.84225e-05 -1.13397e-05      20.1202 
         -10      35.9211 -5.83399e-05 -1.12477e-05      20.1193 
         -10      36.1052 -5.82429e-05 -1.11212e-05      20.1184 
         -10      36.2895 -5.81445e-05 -1.09557e-05      20.1175 
         -10      36.4745 -5.80604e-05 -1.07496e-05      20.1166 
         -10      36.6598 -5.80098e-05 -1.05057e-05      20.1156 
         -10      36.8457 -5.79599e-05 -1.04051e-05      20.1147 
         -10      37.0321 -5.77783e-05 -1.07716e-05      20.1137 
         -10      37.2188  -5.7593e-05 -1.11164e-05      20.1128 
         -10      37.4062 -5.74084e-05 -1.14274e-05      20.1118 
         -10      37.5938 -5.72291e-05 -1.16922e-05      20.1109 
         -10      37.7821 -5.70593e-05 -1.19014e-05      20.1099 
         -10      37.9707 -5.69031e-05  -1.2047e-05       20.109 
         -10      38.1599 -5.67635e-05 -1.21247e-05       20.108 
         -10      38.3496 -5.66432e-05 -1.21339e-05       20.107 
         -10      38.5396 -5.65437e-05 -1.20794e-05       20.106 
         -10      38.7302 -5.64649e-05 -1.19715e-05       20.105 
         -10      38.9211 -5.64053e-05 -1.18283e-05       20.104 
         -10      39.1127 -5.63614e-05 -1.16756e-05       20.103 
         -10      39.3046 -5.63275e-05 -1.15498e-05       20.102 
         -10      39.4971 -5.62949e-05 -1.14979e-05       20.101 
         -10      39.6899 -5.62523e-05   -1.158e-05         20.1 
         -10      39.8833 -5.61845e-05 -1.18709e-05       20.099 
         -10      40.0772 -5.61118e-05 -1.23675e-05      20.0979 
         -10      40.2714 -5.62655e-05 -1.22863e-05      20.0969 
         -10      40.4663 -5.63346e-05 -1.22237e-05      20.0959 
         -10      40.6615 -5.63431e-05 -1.21818e-05      20.0948 
         -10      40.8573 -5.63097e-05 -1.21607e-05      20.0938 
         -10      41.0534  -5.6249e-05 -1.21595e-05      20.0927 
         -10      41.2501 -5.61714e-05 -1.21762e-05      20.0916 
         -10      41.4473 -5.60843e-05 -1.22079e-05      20.0906 
         -10      41.6448 -5.59925e-05 -1.22516e-05      20.0895 
         -10      41.8429 -5.58985e-05 -1.23037e-05      20.0884 
         -10      42.0414 -5.58036e-05 -1.23607e-05      20.0874 
         -10      42.2405 -5.57077e-05 -1.24193e-05      20.0863 
         -10      42.4399 -5.56103e-05 -1.24763e-05      20.0852 
         -10      42.6399 -5.55103e-05 -1.25294e-05      20.0841 
         -10      42.8404 -5.54068e-05 -1.25764e-05       20.083 
         -10      43.0412 -5.52993e-05 -1.26161e-05      20.0819 
         -10      43.2426 -5.51876e-05 -1.26477e-05      20.0808 
         -10      43.4444 -5.50724e-05 -1.26714e-05      20.0796 
         -10      43.6467  -5.4955e-05 -1.26881e-05      20.0785 
         -10      43.8494 -5.48376e-05 -1.26993e-05      20.0774 
         -10      44.0527  -5.4723e-05  -1.2707e-05      20.0763 
         -10      44.2563 -5.46149e-05 -1.27139e-05      20.0751 
         -10      44.4606 -5.45173e-05  -1.2723e-05       20.074 
         -10      44.6653 -5.44343e-05 -1.27373e-05      20.0728 
         -10      44.8704 -5.43702e-05 -1.27598e-05      20.0717 
         -10       45.076 -5.43283e-05  -1.2793e-05      20.0705 
         -10       45.282 -5.43111e-05 -1.28388e-05      20.0694 
         -10      45.4886 -5.43191e-05 -1.28978e-05      20.0682 
         -10      45.6955 -5.43504e-05 -1.29693e-05       20.067 
         -10       45.903 -5.44001e-05 -1.30503e-05      20.0658 
         -10      46.1111 -5.44588e-05 -1.31355e-05      20.0647 
         -10      46.3194 -5.45118e-05 -1.32159e-05      20.0635 
         -10      46.5283 -5.45382e-05 -1.32794e-05      20.0623 
         -10      46.7376 -5.45094e-05 -1.33088e-05      20.0611 
         -10      46.9475 -5.43877e-05 -1.32816e-05      20.0599 
         -10      47.1577 -5.41249e-05 -1.31693e-05      20.0587 
         -10      47.3685 -5.36956e-05 -1.30015e-05      20.0575 
         -10      47.5798 -5.35282e-05  -1.3366e-05      20.0563 
         -10      47.7914 -5.34143e-05 -1.36757e-05       20.055 
         -10      48.0037  -5.3345e-05  -1.3933e-05      20.0538 