Variables = x, y, u, v, p

Zone, I=800, F=POINT
         800            0           -0           -0      3.37056 
         800     0.000234  2.09589e-06 -8.54775e-13      3.37056 
         800     0.000939  7.09001e-06 -1.37452e-11      3.37056 
         800     0.002113  1.13551e-05 -8.07488e-11      3.37056 
         800     0.003759  9.94729e-06 -3.09314e-10      3.37056 
         800     0.005872 -2.07118e-06 -9.24619e-10      3.37056 
         800     0.008457 -2.83163e-05 -2.34591e-09      3.37056 
         800      0.01151 -6.99929e-05 -5.26985e-09      3.37056 
         800     0.015036 -0.000125734 -1.07852e-08      3.37056 
         800     0.019031 -0.000191866 -2.04668e-08      3.37056 
         800     0.023493 -0.000263834 -3.64962e-08      3.37056 
         800     0.028429 -0.000337988 -6.18253e-08      3.37056 
         800     0.033831 -0.000412698 -1.00184e-07      3.37056 
         800     0.039706 -0.000489349 -1.56347e-07      3.37056 
         800     0.046047 -0.000570924 -2.36018e-07      3.37056 
         800     0.052863 -0.000659717 -3.46222e-07      3.37056 
         800      0.06015 -0.000753611 -4.95021e-07      3.37056 
         800       0.0679 -0.000845216 -6.91518e-07      3.37056 
         800     0.076126 -0.000929749 -9.46558e-07      3.37056 
         800     0.084816  -0.00102482 -1.27147e-06      3.37056 
         800     0.093982  -0.00111274  -1.6796e-06      3.37056 
         800     0.103611  -0.00119981 -2.18427e-06      3.37056 
         800     0.113718  -0.00128491 -2.80111e-06      3.37056 
         800     0.124286  -0.00136685 -3.54469e-06      3.37056 
         800     0.135333   -0.0014449 -4.43256e-06      3.37056 
         800      0.14685  -0.00151838 -5.48086e-06      3.37056 
         800     0.158827  -0.00158675 -6.70546e-06      3.37056 
         800     0.171284   -0.0016498 -8.12532e-06      3.37056 
         800     0.184201  -0.00170714 -9.75484e-06      3.37056 
         800     0.197599  -0.00175855 -1.16129e-05      3.37056 
         800     0.211455  -0.00180361 -1.37117e-05      3.37056 
         800     0.225792  -0.00184214 -1.60693e-05      3.37056 
         800       0.2406  -0.00187414  -1.8698e-05      3.37056 
         800     0.255865      -0.0019 -2.16072e-05      3.37056 
         800     0.271613  -0.00191935 -2.48122e-05      3.37056 
         800     0.287818  -0.00193259 -2.83168e-05      3.37056 
         800     0.304506  -0.00193997 -3.21342e-05      3.37056 
         800      0.32165  -0.00194181  -3.6264e-05      3.37056 
         800     0.339278  -0.00193846 -4.07168e-05      3.37056 
         800     0.357377  -0.00193033 -4.54914e-05      3.37056 
         800      0.37593  -0.00191788 -5.05833e-05      3.37056 
         800     0.394968  -0.00190157 -5.59994e-05      3.37056 
         800     0.414461  -0.00188193 -6.17278e-05      3.37056 
         800      0.43444  -0.00185943 -6.77728e-05      3.37056 
         800     0.454872  -0.00183461 -7.41184e-05      3.37056 
         800     0.475791  -0.00180793  -8.0768e-05      3.37056 
         800     0.497163   -0.0017799 -8.77024e-05      3.37056 
         800     0.519021  -0.00175095 -9.49232e-05      3.37056 
         800      0.54135   -0.0017215 -0.000102415      3.37056 
         800     0.564131  -0.00169198 -0.000110161      3.37056 
         800       0.5874  -0.00166269 -0.000118159      3.37056 
         800     0.611121  -0.00163401 -0.000126382      3.37056 
         800      0.63533  -0.00160612 -0.000134837      3.37056 
         800      0.65999  -0.00157937 -0.000143498      3.37056 
         800     0.685139  -0.00155387 -0.000152364      3.37056 
         800     0.710759  -0.00152975 -0.000161415      3.37056 
         800     0.736828  -0.00150712  -0.00017063      3.37056 
         800     0.763387  -0.00148598 -0.000180008      3.37056 
         800     0.790396  -0.00146636 -0.000189523      3.37056 
         800     0.817896  -0.00144821 -0.000199175      3.37056 
         800     0.845843  -0.00143149 -0.000208936      3.37056 
         800     0.874283  -0.00141607 -0.000218809      3.37056 
         800      0.90317  -0.00140185 -0.000228763      3.37056 
         800     0.932551  -0.00138864 -0.000238804      3.37056 
         800     0.962401  -0.00137628 -0.000248908      3.37056 
         800     0.992697  -0.00136457 -0.000259057      3.37056 
         800      1.02349  -0.00135327 -0.000269253      3.37056 
         800      1.05472  -0.00134219 -0.000279466      3.37056 
         800      1.08645  -0.00133107 -0.000289702      3.37056 
         800      1.11863  -0.00131972  -0.00029993      3.37056 
         800       1.1513  -0.00130789 -0.000310154      3.37056 
         800      1.18444  -0.00129541 -0.000320354      3.37056 
         800      1.21802  -0.00128212 -0.000330509      3.37056 
         800      1.25211  -0.00126784 -0.000340625      3.37056 
         800      1.28663  -0.00125249 -0.000350675      3.37056 
         800      1.32165  -0.00123595 -0.000360665      3.37056 
         800      1.35712  -0.00121821 -0.000370574      3.37056 
         800      1.39308  -0.00119921 -0.000380412      3.37056 
         800      1.42951  -0.00117896 -0.000390173      3.37056 
         800      1.46638  -0.00115748 -0.000399853      3.37056 
         800      1.50375  -0.00113474 -0.000409479      3.37056 
         800      1.54156  -0.00111077 -0.000418902      3.37056 
         800      1.57987  -0.00108583 -0.000428243      3.37056 
         800      1.61863  -0.00106009 -0.000437491      3.37056 
         800      1.65788   -0.0010336 -0.000446653      3.37056 
         800      1.69757  -0.00100648 -0.000455707      3.37056 
         800      1.73776 -0.000978784 -0.000464661      3.37056 
         800      1.77842 -0.000950596 -0.000473501      3.37056 
         800      1.81952 -0.000922008 -0.000482213      3.37056 
         800      1.86113 -0.000893029 -0.000490803      3.37056 
         800      1.90316 -0.000863754 -0.000499252      3.37056 
         800      1.94571 -0.000834176 -0.000507565      3.37057 
         800      1.98869 -0.000804378 -0.000515723      3.37057 
         800      2.03217 -0.000774336 -0.000523732      3.37057 
         800      2.07612 -0.000744095 -0.000531579      3.37057 
         800      2.12051 -0.000713692  -0.00053925      3.37057 
         800       2.1654 -0.000683088  -0.00054675      3.37057 
         800      2.21073 -0.000652337 -0.000554062      3.37057 
         800      2.25656 -0.000621391 -0.000561188      3.37057 
         800      2.30283 -0.000590297 -0.000568111      3.37057 
         800       2.3496 -0.000559005 -0.000574834      3.37058 
         800      2.39685 -0.000527535 -0.000581344      3.37058 
         800      2.44452 -0.000495913  -0.00058763      3.37058 
         800      2.49271 -0.000464087 -0.000593692      3.37058 
         800      2.54132 -0.000432112 -0.000599513      3.37058 
         800      2.59044 -0.000399944 -0.000605096      3.37058 
         800         2.64 -0.000367648 -0.000610423      3.37059 
         800      2.69006 -0.000335192 -0.000615495      3.37059 
         800      2.74056 -0.000302653 -0.000620296      3.37059 
         800      2.79156 -0.000270014 -0.000624826      3.37059 
         800      2.84304 -0.000237342 -0.000629073       3.3706 
         800      2.89494 -0.000204713 -0.000633028       3.3706 
         800      2.94735 -0.000172134 -0.000636688       3.3706 
         800       3.0002 -0.000139722 -0.000640042       3.3706 
         800      3.05355   -0.0001075  -0.00064309      3.37061 
         800      3.10733 -7.55965e-05 -0.000645821      3.37061 
         800      3.16163 -4.40423e-05 -0.000648237      3.37061 
         800      3.21639 -1.29468e-05 -0.000650331      3.37061 
         800      3.27158  1.75849e-05 -0.000652101      3.37062 
         800      3.32729  4.75266e-05 -0.000653551      3.37062 
         800      3.38342   7.6767e-05 -0.000654681      3.37062 
         800      3.44007  0.000105305 -0.000655498      3.37063 
         800      3.49714  0.000133071 -0.000656009      3.37063 
         800      3.55472  0.000160119 -0.000656226      3.37063 
         800      3.61273  0.000186455 -0.000656166      3.37063 
         800      3.67125  0.000212222 -0.000655847      3.37064 
         800      3.73025  0.000237566 -0.000655295      3.37064 
         800      3.78967  0.000262225 -0.000654314      3.37064 
         800      3.84961  0.000285776 -0.000652944      3.37065 
         800      3.90996  0.000308255  -0.00065129      3.37065 
         800      3.97084  0.000329702 -0.000649358      3.37066 
         800      4.03214  0.000350083 -0.000647161      3.37066 
         800      4.09395  0.000369435 -0.000644703      3.37066 
         800      4.15624  0.000387749 -0.000641996      3.37067 
         800      4.21895   0.00040502  -0.00063905      3.37067 
         800      4.28217  0.000421284  -0.00063587      3.37067 
         800      4.34582  0.000436527 -0.000632471      3.37068 
         800      4.40998  0.000450787 -0.000628856      3.37068 
         800      4.47457  0.000464056 -0.000625041      3.37069 
         800      4.53968  0.000476371 -0.000621029      3.37069 
         800      4.60525  0.000487739 -0.000616832      3.37069 
         800      4.67125  0.000498173 -0.000612464       3.3707 
         800      4.73777  0.000507708 -0.000607927       3.3707 
         800       4.8047  0.000516352 -0.000603238      3.37071 
         800      4.87216  0.000524142 -0.000598399      3.37071 
         800      4.94003  0.000531091 -0.000593427      3.37071 
         800      5.00843  0.000537234 -0.000588324      3.37072 
         800      5.07724   0.00054259 -0.000583107      3.37072 
         800      5.14658  0.000547194 -0.000577777      3.37072 
         800      5.21639  0.000551069 -0.000572347      3.37073 
         800      5.28661  0.000554243 -0.000566831      3.37073 
         800      5.35736  0.000556751  -0.00056123      3.37074 
         800      5.42852  0.000558618  -0.00055556      3.37074 
         800      5.50021  0.000559878 -0.000549821      3.37074 
         800      5.57231   0.00056056 -0.000544031      3.37075 
         800      5.64493  0.000560696 -0.000538189      3.37075 
         800      5.71803  0.000560285 -0.000532333      3.37076 
         800      5.79154  0.000559384 -0.000526444      3.37076 
         800      5.86558  0.000558025 -0.000520519      3.37076 
         800      5.94003  0.000556241 -0.000514576      3.37077 
         800      6.01501  0.000554061 -0.000508611      3.37077 
         800       6.0904  0.000551519 -0.000502642      3.37077 
         800      6.16632  0.000548643 -0.000496667      3.37078 
         800      6.24271  0.000545463 -0.000490696      3.37078 
         800       6.3195  0.000542012  -0.00048474      3.37079 
         800      6.39683  0.000538311 -0.000478796      3.37079 
         800      6.47457  0.000534394 -0.000472878      3.37079 
         800      6.55284   0.00053028 -0.000466983       3.3708 
         800      6.63152  0.000525998 -0.000461124       3.3708 
         800      6.71073  0.000521566 -0.000455296       3.3708 
         800      6.79034   0.00051701 -0.000449512      3.37081 
         800      6.87049  0.000512344 -0.000443767      3.37081 
         800      6.95111  0.000507588 -0.000438067      3.37081 
         800      7.03214  0.000502763  -0.00043242      3.37082 
         800       7.1137  0.000497876 -0.000426819      3.37082 
         800      7.19566  0.000492947 -0.000421273      3.37082 
         800      7.27816  0.000487982 -0.000415775      3.37083 
         800      7.36106  0.000482996 -0.000410334      3.37083 
         800      7.44451  0.000477993 -0.000404941      3.37084 
         800      7.52842  0.000472983 -0.000399599      3.37084 
         800      7.61273  0.000467978 -0.000394311      3.37084 
         800      7.69758  0.000462977 -0.000389068      3.37084 
         800      7.78283  0.000457994 -0.000383874      3.37085 
         800      7.86862  0.000453028  -0.00037872      3.37085 
         800      7.95481  0.000448094  -0.00037361      3.37085 
         800      8.04155  0.000443193 -0.000368532      3.37086 
         800      8.12868  0.000438344 -0.000363489      3.37086 
         800      8.21635   0.00043355 -0.000358471      3.37086 
         800      8.30449  0.000428832 -0.000353475      3.37087 
         800      8.39303  0.000424213   -0.0003485      3.37087 
         800      8.48211   0.00041971 -0.000343533      3.37087 
         800      8.57159  0.000415362 -0.000338576      3.37088 
         800      8.66161  0.000411198 -0.000333615      3.37088 
         800      8.75203  0.000407224 -0.000328674      3.37088 
         800      8.84299  0.000402387 -0.000324195      3.37088 
         800      8.93443  0.000397682 -0.000319708      3.37089 
         800      9.02626    0.0003931 -0.000315223      3.37089 
         800      9.11863  0.000388625 -0.000310739      3.37089 
         800      9.21139  0.000384253  -0.00030627       3.3709 
         800      9.30471   0.00037997 -0.000301814       3.3709 
         800      9.39841  0.000375773 -0.000297383       3.3709 
         800      9.49267  0.000371649 -0.000292976       3.3709 
         800      9.58739  0.000367593   -0.0002886      3.37091 
         800      9.68251  0.000363604 -0.000284265      3.37091 
         800      9.77817  0.000359669 -0.000279967      3.37091 
         800      9.87422   0.00035579 -0.000275717      3.37091 
         800      9.97083  0.000351956 -0.000271512      3.37092 
         800      10.0678  0.000348168 -0.000267362      3.37092 
         800      10.1654  0.000344419 -0.000263264      3.37092 
         800      10.2633  0.000340709 -0.000259229      3.37092 
         800      10.3618  0.000337031 -0.000255251      3.37093 
         800      10.4607  0.000333385 -0.000251338      3.37093 
         800      10.5601  0.000329772 -0.000247496      3.37093 
         800        10.66  0.000326182  -0.00024372      3.37093 
         800      10.7603   0.00032262  -0.00024002      3.37094 
         800      10.8611  0.000319161 -0.000236242      3.37094 
         800      10.9623  0.000315746  -0.00023252      3.37094 
         800      11.0641  0.000312368 -0.000228849      3.37094 
         800      11.1663  0.000309031 -0.000225229      3.37095 
         800       11.269  0.000305738 -0.000221659      3.37095 
         800      11.3721  0.000302484 -0.000218132      3.37095 
         800      11.4757  0.000299274  -0.00021465      3.37095 
         800      11.5798  0.000296103 -0.000211207      3.37095 
         800      11.6844  0.000292977 -0.000207806      3.37096 
         800      11.7894   0.00028989  -0.00020444      3.37096 
         800       11.895  0.000286844 -0.000201112      3.37096 
         800      12.0009  0.000283843 -0.000197823      3.37096 
         800      12.1073   0.00028088 -0.000194568      3.37096 
         800      12.2142  0.000277961 -0.000191353      3.37097 
         800      12.3216  0.000275079 -0.000188172      3.37097 
         800      12.4294   0.00027224 -0.000185031      3.37097 
         800      12.5378  0.000269438 -0.000181927      3.37097 
         800      12.6465  0.000266677 -0.000178865      3.37097 
         800      12.7558  0.000263952 -0.000175842      3.37098 
         800      12.8656  0.000261265 -0.000172861      3.37098 
         800      12.9757  0.000258619 -0.000169926      3.37098 
         800      13.0864  0.000256007 -0.000167032      3.37098 
         800      13.1975  0.000253435 -0.000164185      3.37098 
         800      13.3092  0.000250898  -0.00016138      3.37098 
         800      13.4212  0.000248401 -0.000158621      3.37099 
         800      13.5338   0.00024594   -0.0001559      3.37099 
         800      13.6468  0.000243519 -0.000153218      3.37099 
         800      13.7603  0.000241139 -0.000150572      3.37099 
         800      13.8743    0.0002388 -0.000147951      3.37099 
         800      13.9886  0.000236507 -0.000145351      3.37099 
         800      14.1036  0.000234259 -0.000142757        3.371 
         800      14.2189  0.000232062 -0.000140161        3.371 
         800      14.3348  0.000229918 -0.000137541        3.371 
         800       14.451  0.000227688 -0.000135059        3.371 
         800      14.5678  0.000225362 -0.000132762        3.371 
         800      14.6851   0.00022311 -0.000130472        3.371 
         800      14.8028  0.000220928 -0.000128192        3.371 
         800       14.921  0.000218809 -0.000125924      3.37101 
         800      15.0396  0.000216751 -0.000123675      3.37101 
         800      15.1588  0.000214747 -0.000121443      3.37101 
         800      15.2783  0.000212796 -0.000119236      3.37101 
         800      15.3984  0.000210892  -0.00011705      3.37101 
         800       15.519  0.000209033 -0.000114892      3.37101 
         800        15.64  0.000207215 -0.000112762      3.37101 
         800      15.7615  0.000205435 -0.000110661      3.37102 
         800      15.8834  0.000203691 -0.000108591      3.37102 
         800      16.0058  0.000201979 -0.000106552      3.37102 
         800      16.1286  0.000200297 -0.000104546      3.37102 
         800       16.252  0.000198643 -0.000102571      3.37102 
         800      16.3759  0.000197014 -0.000100628      3.37102 
         800      16.5002  0.000195411 -9.87204e-05      3.37102 
         800       16.625  0.000193828 -9.68438e-05      3.37102 
         800      16.7501  0.000192269 -9.50014e-05      3.37102 
         800      16.8759  0.000190728 -9.31899e-05      3.37103 
         800       17.002  0.000189208 -9.14118e-05      3.37103 
         800      17.1287  0.000187705 -8.96637e-05      3.37103 
         800      17.2557  0.000186221 -8.79479e-05      3.37103 
         800      17.3834  0.000184754 -8.62609e-05      3.37103 
         800      17.5115  0.000183304 -8.46036e-05      3.37103 
         800      17.6399  0.000181873 -8.29765e-05      3.37103 
         800       17.769  0.000180459 -8.13763e-05      3.37103 
         800      17.8984  0.000179064 -7.98049e-05      3.37103 
         800      18.0284  0.000177687  -7.8259e-05      3.37104 
         800      18.1587  0.000176331 -7.67404e-05      3.37104 
         800      18.2896  0.000174994 -7.52461e-05      3.37104 
         800       18.421  0.000173678 -7.37766e-05      3.37104 
         800      18.5528  0.000172385 -7.23325e-05      3.37104 
         800      18.6851  0.000171114 -7.09109e-05      3.37104 
         800      18.8178  0.000169869 -6.95138e-05      3.37104 
         800      18.9511  0.000168647 -6.81383e-05      3.37104 
         800      19.0847  0.000167452 -6.67863e-05      3.37104 
         800      19.2189  0.000166283 -6.54553e-05      3.37104 
         800      19.3535  0.000165143 -6.41471e-05      3.37104 
         800      19.4886  0.000164031 -6.28593e-05      3.37104 
         800      19.6242  0.000162948 -6.15929e-05      3.37105 
         800      19.7602  0.000161895 -6.03484e-05      3.37105 
         800      19.8968  0.000160871 -5.91236e-05      3.37105 
         800      20.0337  0.000159877 -5.79203e-05      3.37105 
         800      20.1712  0.000158911 -5.67362e-05      3.37105 
         800      20.3091  0.000157975 -5.55726e-05      3.37105 
         800      20.4475  0.000157064 -5.44274e-05      3.37105 
         800      20.5864  0.000156178 -5.33006e-05      3.37105 
         800      20.7257  0.000155316 -5.21924e-05      3.37105 
         800      20.8655  0.000154473 -5.10998e-05      3.37105 
         800      21.0058  0.000153647 -5.00233e-05      3.37105 
         800      21.1465  0.000152834 -4.89919e-05      3.37105 
         800      21.2877  0.000152016 -4.79781e-05      3.37105 
         800      21.4294  0.000151171  -4.6969e-05      3.37105 
         800      21.5716  0.000150277  -4.5961e-05      3.37106 
         800      21.7142  0.000149306 -4.49489e-05      3.37106 
         800      21.8573  0.000148484 -4.40553e-05      3.37106 
         800      22.0008  0.000147766 -4.31794e-05      3.37106 
         800      22.1449  0.000147102 -4.22918e-05      3.37106 
         800      22.2893  0.000146494 -4.13904e-05      3.37106 
         800      22.4344  0.000145863 -4.04891e-05      3.37106 
         800      22.5797  0.000145195 -3.96076e-05      3.37106 
         800      22.7257  0.000144501 -3.87447e-05      3.37106 
         800      22.8721  0.000143795 -3.79014e-05      3.37106 
         800      23.0189  0.000143086 -3.70781e-05      3.37106 
         800      23.1663  0.000142383 -3.62734e-05      3.37106 
         800       23.314  0.000141692  -3.5488e-05      3.37106 
         800      23.4623  0.000141018   -3.472e-05      3.37106 
         800       23.611  0.000140365 -3.39699e-05      3.37106 
         800      23.7602  0.000139735 -3.32359e-05      3.37106 
         800        23.91   0.00013913 -3.25177e-05      3.37106 
         800        24.06  0.000138551 -3.18149e-05      3.37106 
         800      24.2107  0.000137997 -3.11258e-05      3.37107 
         800      24.3617  0.000137467 -3.04506e-05      3.37107 
         800      24.5133   0.00013696 -2.97875e-05      3.37107 
         800      24.6653  0.000136473 -2.91369e-05      3.37107 
         800      24.8178  0.000136005 -2.84974e-05      3.37107 
         800      24.9708  0.000135552 -2.78689e-05      3.37107 
         800      25.1242  0.000135114 -2.72517e-05      3.37107 
         800      25.2781  0.000134686 -2.66447e-05      3.37107 
         800      25.4324  0.000134266 -2.60488e-05      3.37107 
         800      25.5873  0.000133853 -2.54632e-05      3.37107 
         800      25.7426  0.000133443 -2.48889e-05      3.37107 
         800      25.8984  0.000133036 -2.43256e-05      3.37107 
         800      26.0546   0.00013263 -2.37746e-05      3.37107 
         800      26.2114  0.000132224 -2.32355e-05      3.37107 
         800      26.3686  0.000131817 -2.27095e-05      3.37107 
         800      26.5262  0.000131409 -2.21978e-05      3.37107 
         800      26.6844  0.000131001 -2.17002e-05      3.37107 
         800      26.8429  0.000130595 -2.12183e-05      3.37107 
         800       27.002  0.000130189 -2.07519e-05      3.37107 
         800      27.1615  0.000129788 -2.03023e-05      3.37107 
         800      27.3216  0.000129393 -1.98691e-05      3.37107 
         800      27.4821  0.000129005 -1.94529e-05      3.37107 
         800       27.643  0.000128628 -1.90538e-05      3.37107 
         800      27.8044  0.000128265 -1.86706e-05      3.37107 
         800      27.9663  0.000127917 -1.83027e-05      3.37108 
         800      28.1287  0.000127587 -1.79481e-05      3.37108 
         800      28.2914  0.000127277  -1.7605e-05      3.37108 
         800      28.4548  0.000126988 -1.72696e-05      3.37108 
         800      28.6185  0.000126721 -1.69387e-05      3.37108 
         800      28.7828  0.000126475 -1.66064e-05      3.37108 
         800      28.9475  0.000126248 -1.62668e-05      3.37108 
         800      29.1126  0.000126037 -1.59126e-05      3.37108 
         800      29.2784  0.000125836 -1.55341e-05      3.37108 
         800      29.4444  0.000125636 -1.51209e-05      3.37108 
         800       29.611  0.000125427 -1.46597e-05      3.37108 
         800       29.778  0.000125195 -1.41363e-05      3.37108 
         800      29.9456  0.000124755 -1.39179e-05      3.37108 
         800      30.1137  0.000124376 -1.36879e-05      3.37108 
         800      30.2821  0.000124055  -1.3438e-05      3.37108 
         800      30.4511  0.000123782 -1.31735e-05      3.37108 
         800      30.6204  0.000123549 -1.28997e-05      3.37108 
         800      30.7903  0.000123346 -1.26205e-05      3.37108 
         800      30.9606  0.000123167   -1.234e-05      3.37108 
         800      31.1315  0.000123006  -1.2061e-05      3.37108 
         800      31.3028  0.000122857 -1.17861e-05      3.37108 
         800      31.4745  0.000122717 -1.15179e-05      3.37108 
         800      31.6468  0.000122582 -1.12575e-05      3.37108 
         800      31.8194  0.000122449 -1.10065e-05      3.37108 
         800      31.9926  0.000122315 -1.07654e-05      3.37108 
         800      32.1662  0.000122179 -1.05352e-05      3.37108 
         800      32.3404   0.00012204 -1.03156e-05      3.37108 
         800      32.5149  0.000121898 -1.01071e-05      3.37108 
         800        32.69  0.000121752 -9.90885e-06      3.37108 
         800      32.8655  0.000121601 -9.72068e-06      3.37108 
         800      33.0414  0.000121448 -9.54201e-06      3.37108 
         800       33.218  0.000121292 -9.37179e-06      3.37108 
         800      33.3948  0.000121134 -9.20938e-06      3.37109 
         800      33.5723  0.000120975 -9.05356e-06      3.37109 
         800        33.75  0.000120816 -8.90356e-06      3.37109 
         800      33.9284  0.000120658  -8.7581e-06      3.37109 
         800      34.1073  0.000120502  -8.6163e-06      3.37109 
         800      34.2865  0.000120349 -8.47727e-06      3.37109 
         800      34.4663  0.000120201 -8.33987e-06      3.37109 
         800      34.6465  0.000120058 -8.20346e-06      3.37109 
         800      34.8272   0.00011992 -8.06708e-06      3.37109 
         800      35.0083  0.000119789 -7.93029e-06      3.37109 
         800        35.19  0.000119664 -7.79238e-06      3.37109 
         800      35.3721  0.000119546 -7.65308e-06      3.37109 
         800      35.5546  0.000119435 -7.51228e-06      3.37109 
         800      35.7377   0.00011933 -7.36969e-06      3.37109 
         800      35.9211  0.000119232 -7.22563e-06      3.37109 
         800      36.1052  0.000119138 -7.08014e-06      3.37109 
         800      36.2895  0.000119049 -6.93386e-06      3.37109 
         800      36.4745  0.000118964 -6.78712e-06      3.37109 
         800      36.6598  0.000118881 -6.64086e-06      3.37109 
         800      36.8457  0.000118799 -6.49569e-06      3.37109 
         800      37.0321  0.000118716 -6.35267e-06      3.37109 
         800      37.2188  0.000118631 -6.21296e-06      3.37109 
         800      37.4062  0.000118544 -6.07743e-06      3.37109 
         800      37.5938  0.000118451 -5.94744e-06      3.37109 
         800      37.7821  0.000118353 -5.82392e-06      3.37109 
         800      37.9707  0.000118248 -5.70814e-06      3.37109 
         800      38.1599  0.000118136 -5.60094e-06      3.37109 
         800      38.3496  0.000118016 -5.50328e-06      3.37109 
         800      38.5396  0.000117889 -5.41589e-06      3.37109 
         800      38.7302  0.000117756 -5.33905e-06      3.37109 
         800      38.9211  0.000117619 -5.27297e-06      3.37109 
         800      39.1127  0.000117481 -5.21724e-06      3.37109 
         800      39.3046  0.000117345 -5.17114e-06      3.37109 
         800      39.4971  0.000117421 -5.08416e-06      3.37109 
         800      39.6899  0.000117596 -4.94125e-06      3.37109 
         800      39.8833   0.00011786 -4.72712e-06       3.3711 
         800      40.0772  0.000118202 -4.43119e-06       3.3711 
         800      40.2714  0.000117998 -4.44315e-06       3.3711 
         800      40.4663  0.000117866 -4.40871e-06       3.3711 
         800      40.6615  0.000117797 -4.34034e-06       3.3711 
         800      40.8573  0.000117758 -4.25853e-06       3.3711 
         800      41.0534  0.000117623 -4.21078e-06       3.3711 
         800      41.2501  0.000117509 -4.15305e-06       3.3711 
         800      41.4473  0.000117412 -4.08739e-06       3.3711 
         800      41.6448  0.000117331 -4.01577e-06       3.3711 
         800      41.8429  0.000117261 -3.93986e-06       3.3711 
         800      42.0414  0.000117201 -3.86141e-06       3.3711 
         800      42.2405  0.000117149  -3.7818e-06       3.3711 
         800      42.4399  0.000117103  -3.7025e-06       3.3711 
         800      42.6399  0.000117062 -3.62458e-06       3.3711 
         800      42.8404  0.000117024 -3.54914e-06       3.3711 
         800      43.0412  0.000116989  -3.4771e-06       3.3711 
         800      43.2426  0.000116957 -3.40904e-06       3.3711 
         800      43.4444  0.000116926 -3.34559e-06       3.3711 
         800      43.6467  0.000116897 -3.28703e-06       3.3711 
         800      43.8494  0.000116869 -3.23364e-06       3.3711 
         800      44.0527  0.000116843 -3.18536e-06       3.3711 
         800      44.2563  0.000116818 -3.14216e-06       3.3711 
         800      44.4606  0.000116794 -3.10367e-06       3.3711 
         800      44.6653  0.000116772 -3.06952e-06       3.3711 
         800      44.8704  0.000116751 -3.03918e-06       3.3711 
         800       45.076  0.000116732 -3.01191e-06       3.3711 
         800       45.282  0.000116715 -2.98699e-06       3.3711 
         800      45.4886  0.000116701 -2.96349e-06       3.3711 
         800      45.6955  0.000116688 -2.94051e-06       3.3711 
         800       45.903  0.000116677 -2.91701e-06       3.3711 
         800      46.1111  0.000116668 -2.89196e-06       3.3711 
         800      46.3194  0.000116662 -2.86436e-06       3.3711 
         800      46.5283  0.000116657 -2.83314e-06      3.37111 
         800      46.7376  0.000116653 -2.79739e-06      3.37111 
         800      46.9475  0.000116651 -2.75616e-06      3.37111 
         800      47.1577   0.00011665 -2.70876e-06      3.37111 
         800      47.3685  0.000116649  -2.6545e-06      3.37111 
         800      47.5798  0.000116649 -2.59301e-06      3.37111 
         800      47.7914  0.000116647 -2.52417e-06      3.37111 
         800      48.0037  0.000116645 -2.44801e-06      3.37111 