Variables = x, y, u, v, p

Zone, I=800, F=POINT
         -10            0 -2.66357e-19 -2.13156e-24     -39.8574 
         -10     0.000234 -1.32017e-05 -1.10887e-10     -39.8574 
         -10     0.000939 -4.98076e-05 -4.81851e-10     -39.8574 
         -10     0.002113 -0.000101061 -1.22133e-09     -39.8574 
         -10     0.003759 -0.000155281 -2.51022e-09     -39.8574 
         -10     0.005872 -0.000200615 -4.58681e-09     -39.8574 
         -10     0.008457 -0.000228832 -7.75471e-09     -39.8574 
         -10      0.01151 -0.000237194 -1.23558e-08     -39.8574 
         -10     0.015036 -0.000229321 -1.87835e-08     -39.8574 
         -10     0.019031  -0.00021368 -2.74446e-08     -39.8574 
         -10     0.023493 -0.000200313 -3.87632e-08     -39.8574 
         -10     0.028429 -0.000196605 -5.31938e-08     -39.8574 
         -10     0.033831 -0.000203783 -7.11435e-08     -39.8574 
         -10     0.039706  -0.00021587 -9.30469e-08     -39.8574 
         -10     0.046047 -0.000222711 -1.19259e-07     -39.8574 
         -10     0.052863 -0.000217265 -1.50156e-07     -39.8574 
         -10      0.06015 -0.000204146  -1.8601e-07     -39.8574 
         -10       0.0679 -0.000201368 -2.27012e-07     -39.8574 
         -10     0.076126 -0.000218539 -2.73422e-07     -39.8574 
         -10     0.084816 -0.000202619  -3.2532e-07     -39.8574 
         -10     0.093982 -0.000207137 -3.82686e-07     -39.8574 
         -10     0.103611 -0.000207836 -4.45483e-07     -39.8574 
         -10     0.113718 -0.000206684 -5.13679e-07     -39.8574 
         -10     0.124286 -0.000205093 -5.86971e-07     -39.8574 
         -10     0.135333 -0.000203855 -6.65243e-07     -39.8574 
         -10      0.14685 -0.000203186 -7.48147e-07     -39.8574 
         -10     0.158827 -0.000202874 -8.35286e-07     -39.8574 
         -10     0.171284 -0.000202525 -9.26445e-07     -39.8574 
         -10     0.184201 -0.000201839  -1.0211e-06     -39.8574 
         -10     0.197599 -0.000200856 -1.11899e-06     -39.8574 
         -10     0.211455 -0.000200016 -1.21957e-06     -39.8574 
         -10     0.225792 -0.000199846 -1.32261e-06     -39.8574 
         -10       0.2406 -0.000199991  -1.4277e-06     -39.8574 
         -10     0.255865 -0.000199025 -1.53464e-06     -39.8574 
         -10     0.271613 -0.000198941 -1.64202e-06     -39.8574 
         -10     0.287818 -0.000198828 -1.74942e-06     -39.8574 
         -10     0.304506  -0.00019873 -1.85752e-06     -39.8574 
         -10      0.32165 -0.000198676 -1.96635e-06     -39.8574 
         -10     0.339278 -0.000198686   -2.076e-06     -39.8574 
         -10     0.357377 -0.000198769 -2.18609e-06     -39.8574 
         -10      0.37593 -0.000198923 -2.29614e-06     -39.8574 
         -10     0.394968 -0.000199143 -2.40592e-06     -39.8574 
         -10     0.414461 -0.000199417 -2.51498e-06     -39.8574 
         -10      0.43444 -0.000199732 -2.62343e-06     -39.8574 
         -10     0.454872  -0.00020008 -2.73132e-06     -39.8574 
         -10     0.475791 -0.000200455  -2.8394e-06     -39.8574 
         -10     0.497163 -0.000200856 -2.94829e-06     -39.8574 
         -10     0.519021 -0.000201292 -3.05902e-06     -39.8574 
         -10      0.54135 -0.000201769 -3.17206e-06     -39.8574 
         -10     0.564131  -0.00020229 -3.28696e-06     -39.8574 
         -10       0.5874 -0.000202839 -3.40165e-06     -39.8574 
         -10     0.611121 -0.000203368 -3.51136e-06     -39.8574 
         -10      0.63533 -0.000203946 -3.62961e-06     -39.8574 
         -10      0.65999 -0.000204553 -3.75629e-06     -39.8574 
         -10     0.685139  -0.00020519 -3.88861e-06     -39.8574 
         -10     0.710759 -0.000205855 -4.02411e-06     -39.8574 
         -10     0.736828 -0.000206545 -4.16089e-06     -39.8574 
         -10     0.763387 -0.000207256 -4.29794e-06     -39.8574 
         -10     0.790396 -0.000207983 -4.43433e-06     -39.8574 
         -10     0.817896  -0.00020872    -4.57e-06     -39.8574 
         -10     0.845843 -0.000209459 -4.70482e-06     -39.8574 
         -10     0.874283 -0.000210194 -4.83936e-06     -39.8574 
         -10      0.90317 -0.000210919  -4.9739e-06     -39.8574 
         -10     0.932551 -0.000211627 -5.10917e-06     -39.8574 
         -10     0.962401 -0.000212312 -5.24549e-06     -39.8574 
         -10     0.992697 -0.000212969 -5.38296e-06     -39.8574 
         -10      1.02349 -0.000213598  -5.5217e-06     -39.8574 
         -10      1.05472 -0.000214195 -5.66095e-06     -39.8574 
         -10      1.08645 -0.000214765 -5.79999e-06     -39.8574 
         -10      1.11863 -0.000215309 -5.93714e-06     -39.8574 
         -10       1.1513 -0.000215836 -6.07076e-06     -39.8573 
         -10      1.18444 -0.000216356 -6.19862e-06     -39.8573 
         -10      1.21802 -0.000216879 -6.31843e-06     -39.8573 
         -10      1.25211 -0.000217421 -6.42853e-06     -39.8573 
         -10      1.28663 -0.000217998 -6.52768e-06     -39.8573 
         -10      1.32165 -0.000218627 -6.61648e-06     -39.8573 
         -10      1.35712 -0.000219322 -6.69762e-06     -39.8573 
         -10      1.39308 -0.000220099 -6.77757e-06     -39.8573 
         -10      1.42951 -0.000220965 -6.86758e-06     -39.8573 
         -10      1.46638  -0.00022192 -6.98556e-06     -39.8573 
         -10      1.50375 -0.000222954 -7.15857e-06     -39.8573 
         -10      1.54156 -0.000223904 -7.14169e-06     -39.8573 
         -10      1.57987 -0.000224993 -7.14982e-06     -39.8573 
         -10      1.61863 -0.000226213 -7.19242e-06     -39.8573 
         -10      1.65788 -0.000227542 -7.25991e-06     -39.8573 
         -10      1.69757 -0.000228955 -7.34295e-06     -39.8572 
         -10      1.73776  -0.00023043 -7.43296e-06     -39.8572 
         -10      1.77842 -0.000231941 -7.52175e-06     -39.8572 
         -10      1.81952 -0.000233462 -7.60178e-06     -39.8572 
         -10      1.86113 -0.000234971 -7.66647e-06     -39.8572 
         -10      1.90316 -0.000236443 -7.70978e-06     -39.8572 
         -10      1.94571 -0.000237855 -7.72679e-06     -39.8572 
         -10      1.98869 -0.000239184 -7.71338e-06     -39.8572 
         -10      2.03217 -0.000240411 -7.66647e-06     -39.8572 
         -10      2.07612 -0.000241516 -7.58405e-06     -39.8572 
         -10      2.12051 -0.000242482 -7.46534e-06     -39.8571 
         -10       2.1654 -0.000243296  -7.3104e-06     -39.8571 
         -10      2.21073 -0.000243945 -7.12088e-06     -39.8571 
         -10      2.25656 -0.000244422 -6.89909e-06     -39.8571 
         -10      2.30283  -0.00024472 -6.64916e-06     -39.8571 
         -10       2.3496 -0.000244839 -6.37565e-06     -39.8571 
         -10      2.39685 -0.000244781 -6.08484e-06     -39.8571 
         -10      2.44452 -0.000244552 -5.78419e-06      -39.857 
         -10      2.49271 -0.000244162 -5.48145e-06      -39.857 
         -10      2.54132 -0.000243626 -5.18622e-06      -39.857 
         -10      2.59044 -0.000242962 -4.90805e-06      -39.857 
         -10         2.64 -0.000242194 -4.65802e-06      -39.857 
         -10      2.69006 -0.000241345 -4.44694e-06      -39.857 
         -10      2.74056 -0.000240446 -4.28663e-06     -39.8569 
         -10      2.79156 -0.000239529 -4.18845e-06     -39.8569 
         -10      2.84304 -0.000238628 -4.16398e-06     -39.8569 
         -10      2.89494  -0.00023778 -4.22406e-06     -39.8569 
         -10      2.94735 -0.000237019 -4.37889e-06     -39.8569 
         -10       3.0002 -0.000236381 -4.63708e-06     -39.8568 
         -10      3.05355 -0.000235898 -5.00622e-06     -39.8568 
         -10      3.10733 -0.000235598 -5.49074e-06     -39.8568 
         -10      3.16163 -0.000235504  -6.0937e-06     -39.8568 
         -10      3.21639 -0.000235629 -6.81371e-06     -39.8567 
         -10      3.27158 -0.000235975 -7.64499e-06     -39.8567 
         -10      3.32729 -0.000236531 -8.57904e-06     -39.8567 
         -10      3.38342 -0.000237265 -9.59899e-06     -39.8567 
         -10      3.44007 -0.000238127 -1.06846e-05     -39.8566 
         -10      3.49714 -0.000239038 -1.18048e-05     -39.8566 
         -10      3.55472 -0.000239891 -1.29235e-05     -39.8566 
         -10      3.61273 -0.000240537 -1.39915e-05     -39.8565 
         -10      3.67125  -0.00024079 -1.49519e-05     -39.8565 
         -10      3.73025  -0.00024041 -1.57331e-05     -39.8565 
         -10      3.78967  -0.00024015  -1.6646e-05     -39.8564 
         -10      3.84961 -0.000240182  -1.7591e-05     -39.8564 
         -10      3.90996 -0.000240158 -1.84061e-05     -39.8564 
         -10      3.97084 -0.000240084   -1.911e-05     -39.8563 
         -10      4.03214 -0.000239963 -1.97226e-05     -39.8563 
         -10      4.09395 -0.000239794 -2.02673e-05     -39.8563 
         -10      4.15624 -0.000239576 -2.07647e-05     -39.8562 
         -10      4.21895 -0.000239309 -2.12326e-05     -39.8562 
         -10      4.28217 -0.000239063 -2.17161e-05     -39.8561 
         -10      4.34582 -0.000238785 -2.21389e-05     -39.8561 
         -10      4.40998 -0.000238456 -2.25051e-05      -39.856 
         -10      4.47457 -0.000238083 -2.28298e-05      -39.856 
         -10      4.53968 -0.000237669 -2.31244e-05      -39.856 
         -10      4.60525 -0.000237221 -2.33958e-05     -39.8559 
         -10      4.67125 -0.000236747 -2.36484e-05     -39.8559 
         -10      4.73777 -0.000236253 -2.38859e-05     -39.8558 
         -10       4.8047 -0.000235745 -2.41103e-05     -39.8558 
         -10      4.87216 -0.000235231 -2.43246e-05     -39.8557 
         -10      4.94003 -0.000234714 -2.45315e-05     -39.8556 
         -10      5.00843 -0.000234199 -2.47349e-05     -39.8556 
         -10      5.07724 -0.000233685 -2.49388e-05     -39.8555 
         -10      5.14658 -0.000233167 -2.51479e-05     -39.8555 
         -10      5.21639 -0.000232637 -2.53653e-05     -39.8554 
         -10      5.28661 -0.000232087 -2.55822e-05     -39.8553 
         -10      5.35736 -0.000231616  -2.5754e-05     -39.8553 
         -10      5.42852 -0.000231182  -2.5929e-05     -39.8552 
         -10      5.50021 -0.000230764 -2.60949e-05     -39.8551 
         -10      5.57231 -0.000230348  -2.6243e-05     -39.8551 
         -10      5.64493 -0.000229931 -2.63685e-05      -39.855 
         -10      5.71803 -0.000229512 -2.64689e-05     -39.8549 
         -10      5.79154 -0.000229097  -2.6545e-05     -39.8549 
         -10      5.86558 -0.000228688 -2.65993e-05     -39.8548 
         -10      5.94003  -0.00022829 -2.66363e-05     -39.8547 
         -10      6.01501 -0.000227904 -2.66614e-05     -39.8546 
         -10       6.0904 -0.000227528 -2.66811e-05     -39.8545 
         -10      6.16632 -0.000227159 -2.67016e-05     -39.8544 
         -10      6.24271 -0.000226788 -2.67291e-05     -39.8544 
         -10       6.3195 -0.000226407 -2.67687e-05     -39.8543 
         -10      6.39683 -0.000226007 -2.68241e-05     -39.8542 
         -10      6.47457  -0.00022558  -2.6897e-05     -39.8541 
         -10      6.55284 -0.000225127 -2.69864e-05      -39.854 
         -10      6.63152 -0.000224659 -2.70883e-05     -39.8539 
         -10      6.71073 -0.000224202 -2.71949e-05     -39.8538 
         -10      6.79034  -0.00022381 -2.72943e-05     -39.8537 
         -10      6.87049 -0.000223566 -2.73697e-05     -39.8536 
         -10      6.95111 -0.000223488 -2.74302e-05     -39.8535 
         -10      7.03214 -0.000223204 -2.73966e-05     -39.8534 
         -10       7.1137 -0.000222902 -2.75419e-05     -39.8532 
         -10      7.19566 -0.000222642 -2.74851e-05     -39.8531 
         -10      7.27816 -0.000222333 -2.75836e-05      -39.853 
         -10      7.36106 -0.000222014 -2.77048e-05     -39.8529 
         -10      7.44451 -0.000221669 -2.78354e-05     -39.8528 
         -10      7.52842 -0.000221292 -2.79584e-05     -39.8526 
         -10      7.61273 -0.000220885 -2.80565e-05     -39.8525 
         -10      7.69758 -0.000220452 -2.81159e-05     -39.8524 
         -10      7.78283 -0.000220005 -2.81279e-05     -39.8522 
         -10      7.86862 -0.000219557 -2.80908e-05     -39.8521 
         -10      7.95481 -0.000219119 -2.80109e-05     -39.8519 
         -10      8.04155 -0.000218704 -2.79019e-05     -39.8518 
         -10      8.12868 -0.000218322 -2.77843e-05     -39.8516 
         -10      8.21635 -0.000217978 -2.76823e-05     -39.8515 
         -10      8.30449 -0.000217676 -2.76211e-05     -39.8513 
         -10      8.39303 -0.000217414 -2.76209e-05     -39.8512 
         -10      8.48211 -0.000217187 -2.76907e-05      -39.851 
         -10      8.57159 -0.000216985 -2.78199e-05     -39.8509 
         -10      8.66161 -0.000216794 -2.79681e-05     -39.8507 
         -10      8.75203 -0.000216601 -2.80526e-05     -39.8505 
         -10      8.84299  -0.00021639  -2.7934e-05     -39.8503 
         -10      8.93443 -0.000215936 -2.78386e-05     -39.8502 
         -10      9.02626 -0.000215426 -2.81236e-05       -39.85 
         -10      9.11863 -0.000215083 -2.81912e-05     -39.8498 
         -10      9.21139 -0.000214797 -2.79249e-05     -39.8496 
         -10      9.30471 -0.000214518 -2.73743e-05     -39.8494 
         -10      9.39841 -0.000214244 -2.67908e-05     -39.8492 
         -10      9.49267 -0.000214013  -2.6665e-05      -39.849 
         -10      9.58739  -0.00021362 -2.64828e-05     -39.8488 
         -10      9.68251 -0.000213169 -2.61387e-05     -39.8486 
         -10      9.77817 -0.000212772 -2.59595e-05     -39.8484 
         -10      9.87422 -0.000212417 -2.58713e-05     -39.8481 
         -10      9.97083 -0.000212087 -2.58248e-05     -39.8479 
         -10      10.0678  -0.00021177 -2.57896e-05     -39.8477 
         -10      10.1654 -0.000211453 -2.57482e-05     -39.8474 
         -10      10.2633 -0.000211131 -2.56914e-05     -39.8472 
         -10      10.3618 -0.000210802 -2.56149e-05      -39.847 
         -10      10.4607 -0.000210471 -2.55167e-05     -39.8467 
         -10      10.5601 -0.000210147 -2.53962e-05     -39.8465 
         -10        10.66 -0.000209841  -2.5254e-05     -39.8462 
         -10      10.7603 -0.000209566 -2.50951e-05     -39.8459 
         -10      10.8611 -0.000209329 -2.49314e-05     -39.8457 
         -10      10.9623 -0.000209128 -2.47891e-05     -39.8454 
         -10      11.0641 -0.000208947 -2.47148e-05     -39.8451 
         -10      11.1663 -0.000208742 -2.47767e-05     -39.8449 
         -10       11.269 -0.000208388 -2.46238e-05     -39.8446 
         -10      11.3721 -0.000208096 -2.45363e-05     -39.8443 
         -10      11.4757 -0.000207868 -2.44948e-05      -39.844 
         -10      11.5798 -0.000207696 -2.44826e-05     -39.8437 
         -10      11.6844 -0.000207571 -2.44866e-05     -39.8434 
         -10      11.7894 -0.000207478 -2.44974e-05     -39.8431 
         -10       11.895   -0.0002074 -2.45102e-05     -39.8427 
         -10      12.0009 -0.000207318 -2.45251e-05     -39.8424 
         -10      12.1073 -0.000207208 -2.45481e-05     -39.8421 
         -10      12.2142 -0.000207049 -2.45916e-05     -39.8418 
         -10      12.3216  -0.00020682 -2.46754e-05     -39.8414 
         -10      12.4294 -0.000206503 -2.48271e-05     -39.8411 
         -10      12.5378 -0.000206327 -2.49487e-05     -39.8407 
         -10      12.6465 -0.000206334 -2.49375e-05     -39.8404 
         -10      12.7558 -0.000206276 -2.49327e-05       -39.84 
         -10      12.8656 -0.000206152 -2.49602e-05     -39.8396 
         -10      12.9757 -0.000205969  -2.5028e-05     -39.8393 
         -10      13.0864 -0.000205739 -2.51323e-05     -39.8389 
         -10      13.1975 -0.000205476  -2.5262e-05     -39.8385 
         -10      13.3092   -0.0002052 -2.54032e-05     -39.8381 
         -10      13.4212 -0.000204929 -2.55425e-05     -39.8377 
         -10      13.5338 -0.000204678 -2.56693e-05     -39.8373 
         -10      13.6468 -0.000204462 -2.57774e-05     -39.8369 
         -10      13.7603 -0.000204285 -2.58648e-05     -39.8365 
         -10      13.8743 -0.000204141 -2.59332e-05     -39.8361 
         -10      13.9886 -0.000204015 -2.59851e-05     -39.8356 
         -10      14.1036 -0.000203869 -2.60202e-05     -39.8352 
         -10      14.2189  -0.00020365   -2.603e-05     -39.8348 
         -10      14.3348 -0.000203393 -2.60827e-05     -39.8343 
         -10       14.451  -0.00020337 -2.63333e-05     -39.8339 
         -10      14.5678 -0.000203274 -2.64883e-05     -39.8334 
         -10      14.6851 -0.000203134 -2.65781e-05     -39.8329 
         -10      14.8028 -0.000202972 -2.66272e-05     -39.8325 
         -10       14.921 -0.000202805 -2.66542e-05      -39.832 
         -10      15.0396 -0.000202646 -2.66731e-05     -39.8315 
         -10      15.1588 -0.000202501 -2.66933e-05      -39.831 
         -10      15.2783 -0.000202374 -2.67212e-05     -39.8305 
         -10      15.3984 -0.000202266   -2.676e-05       -39.83 
         -10       15.519 -0.000202176  -2.6811e-05     -39.8295 
         -10        15.64   -0.0002021 -2.68736e-05     -39.8289 
         -10      15.7615 -0.000202034 -2.69465e-05     -39.8284 
         -10      15.8834 -0.000201973 -2.70273e-05     -39.8279 
         -10      16.0058  -0.00020191 -2.71137e-05     -39.8273 
         -10      16.1286 -0.000201842 -2.72033e-05     -39.8268 
         -10       16.252 -0.000201764 -2.72941e-05     -39.8262 
         -10      16.3759 -0.000201673 -2.73846e-05     -39.8256 
         -10      16.5002 -0.000201566 -2.74736e-05     -39.8251 
         -10       16.625 -0.000201444 -2.75608e-05     -39.8245 
         -10      16.7501 -0.000201307 -2.76459e-05     -39.8239 
         -10      16.8759 -0.000201159 -2.77289e-05     -39.8233 
         -10       17.002 -0.000201004 -2.78091e-05     -39.8227 
         -10      17.1287 -0.000200848 -2.78855e-05     -39.8221 
         -10      17.2557 -0.000200698 -2.79549e-05     -39.8214 
         -10      17.3834 -0.000200563 -2.80123e-05     -39.8208 
         -10      17.5115  -0.00020045 -2.80487e-05     -39.8202 
         -10      17.6399 -0.000200368 -2.80508e-05     -39.8195 
         -10       17.769 -0.000200323 -2.79993e-05     -39.8189 
         -10      17.8984 -0.000200322 -2.78673e-05     -39.8182 
         -10      18.0284 -0.000200365 -2.76183e-05     -39.8175 
         -10      18.1587 -0.000200224 -2.80558e-05     -39.8169 
         -10      18.2896 -0.000199437 -2.78837e-05     -39.8162 
         -10       18.421 -0.000198813 -2.74296e-05     -39.8155 
         -10      18.5528 -0.000198587 -2.77542e-05     -39.8148 
         -10      18.6851 -0.000198433 -2.80795e-05     -39.8141 
         -10      18.8178 -0.000198335 -2.84163e-05     -39.8134 
         -10      18.9511 -0.000198279 -2.87679e-05     -39.8126 
         -10      19.0847 -0.000198253 -2.91304e-05     -39.8119 
         -10      19.2189 -0.000198246 -2.94967e-05     -39.8112 
         -10      19.3535 -0.000198249 -2.98562e-05     -39.8104 
         -10      19.4886 -0.000198256 -3.01989e-05     -39.8096 
         -10      19.6242 -0.000198261 -3.05144e-05     -39.8089 
         -10      19.7602  -0.00019826 -3.07943e-05     -39.8081 
         -10      19.8968 -0.000198249 -3.10337e-05     -39.8073 
         -10      20.0337 -0.000198228 -3.12306e-05     -39.8065 
         -10      20.1712 -0.000198194  -3.1387e-05     -39.8057 
         -10      20.3091 -0.000198148 -3.15086e-05     -39.8049 
         -10      20.4475  -0.00019809 -3.16048e-05     -39.8041 
         -10      20.5864  -0.00019802 -3.16875e-05     -39.8032 
         -10      20.7257  -0.00019794 -3.17704e-05     -39.8024 
         -10      20.8655  -0.00019785 -3.18674e-05     -39.8016 
         -10      21.0058 -0.000197748 -3.19903e-05     -39.8007 
         -10      21.1465 -0.000197634 -3.21469e-05     -39.7998 
         -10      21.2877 -0.000197505 -3.23371e-05      -39.799 
         -10      21.4294 -0.000197357 -3.25503e-05     -39.7981 
         -10      21.5716 -0.000197182 -3.27608e-05     -39.7972 
         -10      21.7142 -0.000196973 -3.29228e-05     -39.7963 
         -10      21.8573 -0.000196716 -3.29658e-05     -39.7954 
         -10      22.0008 -0.000196395 -3.27879e-05     -39.7944 
         -10      22.1449 -0.000195991 -3.22487e-05     -39.7935 
         -10      22.2893  -0.00019622 -3.26163e-05     -39.7926 
         -10      22.4344 -0.000196341   -3.287e-05     -39.7916 
         -10      22.5797 -0.000196264 -3.29178e-05     -39.7907 
         -10      22.7257 -0.000196039 -3.28419e-05     -39.7897 
         -10      22.8721 -0.000195725  -3.2707e-05     -39.7887 
         -10      23.0189 -0.000195386  -3.2564e-05     -39.7877 
         -10      23.1663 -0.000195081 -3.24529e-05     -39.7867 
         -10       23.314 -0.000194856 -3.24066e-05     -39.7857 
         -10      23.4623 -0.000194734 -3.24532e-05     -39.7847 
         -10       23.611 -0.000194709 -3.26188e-05     -39.7837 
         -10      23.7602 -0.000194738 -3.29308e-05     -39.7827 
         -10        23.91  -0.00019473  -3.3419e-05     -39.7816 
         -10        24.06 -0.000194512 -3.38975e-05     -39.7806 
         -10      24.2107 -0.000194193 -3.37843e-05     -39.7795 
         -10      24.3617 -0.000194029 -3.37528e-05     -39.7784 
         -10      24.5133 -0.000193969 -3.37982e-05     -39.7773 
         -10      24.6653 -0.000193968 -3.39132e-05     -39.7763 
         -10      24.8178 -0.000193987 -3.40883e-05     -39.7751 
         -10      24.9708 -0.000193995 -3.43114e-05      -39.774 
         -10      25.1242 -0.000193969 -3.45683e-05     -39.7729 
         -10      25.2781 -0.000193895 -3.48445e-05     -39.7718 
         -10      25.4324 -0.000193766  -3.5124e-05     -39.7706 
         -10      25.5873 -0.000193582 -3.53925e-05     -39.7695 
         -10      25.7426 -0.000193353 -3.56366e-05     -39.7683 
         -10      25.8984 -0.000193091 -3.58469e-05     -39.7671 
         -10      26.0546 -0.000192817 -3.60183e-05      -39.766 
         -10      26.2114 -0.000192553 -3.61531e-05     -39.7648 
         -10      26.3686 -0.000192324 -3.62619e-05     -39.7636 
         -10      26.5262 -0.000192154 -3.63671e-05     -39.7624 
         -10      26.6844 -0.000192064 -3.65051e-05     -39.7611 
         -10      26.8429 -0.000192071  -3.6729e-05     -39.7599 
         -10       27.002  -0.00019218 -3.71055e-05     -39.7587 
         -10      27.1615 -0.000192148 -3.68055e-05     -39.7574 
         -10      27.3216 -0.000192086 -3.66974e-05     -39.7561 
         -10      27.4821 -0.000192001 -3.67333e-05     -39.7549 
         -10       27.643 -0.000191894 -3.68712e-05     -39.7536 
         -10      27.8044 -0.000191767 -3.70747e-05     -39.7523 
         -10      27.9663  -0.00019162 -3.73131e-05      -39.751 
         -10      28.1287  -0.00019145 -3.75615e-05     -39.7497 
         -10      28.2914 -0.000191259    -3.78e-05     -39.7483 
         -10      28.4548 -0.000191046 -3.80144e-05      -39.747 
         -10      28.6185 -0.000190815 -3.81949e-05     -39.7457 
         -10      28.7828 -0.000190569 -3.83369e-05     -39.7443 
         -10      28.9475 -0.000190316 -3.84403e-05     -39.7429 
         -10      29.1126 -0.000190066 -3.85089e-05     -39.7415 
         -10      29.2784 -0.000189833 -3.85511e-05     -39.7402 
         -10      29.4444 -0.000189634 -3.85784e-05     -39.7388 
         -10       29.611 -0.000189487  -3.8606e-05     -39.7373 
         -10       29.778 -0.000189415 -3.86517e-05     -39.7359 
         -10      29.9456 -0.000189444 -3.87364e-05     -39.7345 
         -10      30.1137 -0.000189599 -3.88828e-05     -39.7331 
         -10      30.2821 -0.000189908 -3.91152e-05     -39.7316 
         -10      30.4511 -0.000189416 -3.90046e-05     -39.7301 
         -10      30.6204 -0.000189023 -3.89628e-05     -39.7287 
         -10      30.7903 -0.000188724 -3.89838e-05     -39.7272 
         -10      30.9606 -0.000188503 -3.90528e-05     -39.7257 
         -10      31.1315 -0.000188342 -3.91564e-05     -39.7242 
         -10      31.3028 -0.000188227 -3.92823e-05     -39.7227 
         -10      31.4745 -0.000188149 -3.94202e-05     -39.7211 
         -10      31.6468 -0.000188095  -3.9562e-05     -39.7196 
         -10      31.8194 -0.000188057 -3.97021e-05     -39.7181 
         -10      31.9926 -0.000188022 -3.98385e-05     -39.7165 
         -10      32.1662 -0.000187976 -3.99722e-05     -39.7149 
         -10      32.3404 -0.000187903 -4.01092e-05     -39.7133 
         -10      32.5149 -0.000187781 -4.02601e-05     -39.7118 
         -10        32.69 -0.000187581 -4.04415e-05     -39.7102 
         -10      32.8655 -0.000187266 -4.06765e-05     -39.7085 
         -10      33.0414 -0.000186791 -4.09953e-05     -39.7069 
         -10       33.218 -0.000186567 -4.09924e-05     -39.7053 
         -10      33.3948  -0.00018647 -4.09515e-05     -39.7036 
         -10      33.5723 -0.000186315 -4.10388e-05      -39.702 
         -10        33.75 -0.000186114 -4.12073e-05     -39.7003 
         -10      33.9284 -0.000185878 -4.14184e-05     -39.6986 
         -10      34.1073  -0.00018562 -4.16415e-05      -39.697 
         -10      34.2865 -0.000185349 -4.18534e-05     -39.6953 
         -10      34.4663 -0.000185075 -4.20389e-05     -39.6936 
         -10      34.6465 -0.000184809 -4.21889e-05     -39.6918 
         -10      34.8272 -0.000184559 -4.23014e-05     -39.6901 
         -10      35.0083  -0.00018433 -4.23796e-05     -39.6884 
         -10        35.19 -0.000184127  -4.2432e-05     -39.6866 
         -10      35.3721 -0.000183956 -4.24712e-05     -39.6848 
         -10      35.5546 -0.000183816 -4.25135e-05     -39.6831 
         -10      35.7377 -0.000183708 -4.25775e-05     -39.6813 
         -10      35.9211  -0.00018363  -4.2683e-05     -39.6795 
         -10      36.1052 -0.000183576 -4.28505e-05     -39.6777 
         -10      36.2895  -0.00018354 -4.30989e-05     -39.6759 
         -10      36.4745 -0.000183512 -4.34457e-05     -39.6741 
         -10      36.6598 -0.000183483 -4.39033e-05     -39.6722 
         -10      36.8457 -0.000183397 -4.43479e-05     -39.6704 
         -10      37.0321   -0.0001832 -4.44418e-05     -39.6685 
         -10      37.2188 -0.000183019  -4.4494e-05     -39.6666 
         -10      37.4062 -0.000182847 -4.45093e-05     -39.6648 
         -10      37.5938  -0.00018268 -4.44949e-05     -39.6629 
         -10      37.7821 -0.000182513 -4.44594e-05      -39.661 
         -10      37.9707 -0.000182342 -4.44128e-05     -39.6591 
         -10      38.1599 -0.000182163  -4.4366e-05     -39.6571 
         -10      38.3496 -0.000181973   -4.433e-05     -39.6552 
         -10      38.5396 -0.000181767 -4.43155e-05     -39.6533 
         -10      38.7302  -0.00018154 -4.43318e-05     -39.6513 
         -10      38.9211 -0.000181285 -4.43865e-05     -39.6493 
         -10      39.1127 -0.000180992 -4.44844e-05     -39.6474 
         -10      39.3046  -0.00018065 -4.46262e-05     -39.6454 
         -10      39.4971 -0.000180242 -4.48083e-05     -39.6434 
         -10      39.6899 -0.000179751 -4.50206e-05     -39.6414 
         -10      39.8833 -0.000179149 -4.52463e-05     -39.6394 
         -10      40.0772 -0.000178571  -4.5422e-05     -39.6373 
         -10      40.2714 -0.000179099 -4.53503e-05     -39.6353 
         -10      40.4663 -0.000179412 -4.53787e-05     -39.6332 
         -10      40.6615 -0.000179546 -4.54805e-05     -39.6312 
         -10      40.8573 -0.000179535 -4.56328e-05     -39.6291 
         -10      41.0534 -0.000179412 -4.58149e-05      -39.627 
         -10      41.2501 -0.000179204 -4.60101e-05     -39.6249 
         -10      41.4473 -0.000178939  -4.6204e-05     -39.6228 
         -10      41.6448 -0.000178638 -4.63851e-05     -39.6207 
         -10      41.8429 -0.000178321 -4.65451e-05     -39.6186 
         -10      42.0414 -0.000178003 -4.66776e-05     -39.6165 
         -10      42.2405 -0.000177698 -4.67795e-05     -39.6143 
         -10      42.4399 -0.000177415 -4.68492e-05     -39.6122 
         -10      42.6399 -0.000177159 -4.68877e-05       -39.61 
         -10      42.8404 -0.000176932 -4.68975e-05     -39.6079 
         -10      43.0412 -0.000176735  -4.6883e-05     -39.6057 
         -10      43.2426 -0.000176563 -4.68497e-05     -39.6035 
         -10      43.4444 -0.000176413 -4.68043e-05     -39.6013 
         -10      43.6467 -0.000176275 -4.67541e-05     -39.5991 
         -10      43.8494  -0.00017614  -4.6707e-05     -39.5969 
         -10      44.0527    -0.000176 -4.66704e-05     -39.5946 
         -10      44.2563 -0.000175842  -4.6652e-05     -39.5924 
         -10      44.4606 -0.000175657  -4.6658e-05     -39.5901 
         -10      44.6653 -0.000175437 -4.66936e-05     -39.5879 
         -10      44.8704 -0.000175174 -4.67621e-05     -39.5856 
         -10       45.076 -0.000174863 -4.68646e-05     -39.5833 
         -10       45.282 -0.000174507 -4.69991e-05      -39.581 
         -10      45.4886 -0.000174108 -4.71602e-05     -39.5787 
         -10      45.6955 -0.000173681 -4.73381e-05     -39.5764 
         -10       45.903 -0.000173244 -4.75186e-05     -39.5741 
         -10      46.1111 -0.000172827 -4.76817e-05     -39.5718 
         -10      46.3194  -0.00017247 -4.78009e-05     -39.5694 
         -10      46.5283 -0.000172226  -4.7843e-05     -39.5671 
         -10      46.7376 -0.000172162 -4.77668e-05     -39.5647 
         -10      46.9475 -0.000172363 -4.75218e-05     -39.5624 
         -10      47.1577  -0.00017293 -4.70486e-05       -39.56 
         -10      47.3685 -0.000173814 -4.63912e-05     -39.5576 
         -10      47.5798 -0.000173296 -4.66696e-05     -39.5552 
         -10      47.7914 -0.000172817 -4.69229e-05     -39.5528 
         -10      48.0037  -0.00017238   -4.715e-05     -39.5504 