Variables = x, y, u, v, p

Zone, I=800, F=POINT
          -5            0            0            0       6.1579 
          -5     0.000234 -5.85221e-06  7.29986e-11       6.1579 
          -5     0.000939 -2.20884e-05  2.71593e-10       6.1579 
          -5     0.002113 -4.48491e-05  5.29843e-10       6.1579 
          -5     0.003759 -6.89791e-05  7.34542e-10       6.1579 
          -5     0.005872 -8.92333e-05  7.15887e-10       6.1579 
          -5     0.008457 -0.000101943  2.38345e-10       6.1579 
          -5      0.01151 -0.000105843 -1.01256e-09       6.1579 
          -5     0.015036  -0.00010246 -3.44858e-09       6.1579 
          -5     0.019031 -9.54678e-05 -7.58297e-09       6.1579 
          -5     0.023493 -8.92666e-05 -1.40367e-08       6.1579 
          -5     0.028429 -8.71342e-05  -2.3547e-08       6.1579 
          -5     0.033831 -8.96929e-05 -3.68979e-08       6.1579 
          -5     0.039706  -9.4424e-05 -5.49278e-08       6.1579 
          -5     0.046047 -9.69616e-05 -7.83911e-08       6.1579 
          -5     0.052863 -9.42298e-05 -1.07987e-07       6.1579 
          -5      0.06015 -8.81548e-05  -1.4423e-07       6.1579 
          -5       0.0679 -8.64542e-05 -1.87558e-07       6.1579 
          -5     0.076126 -9.32682e-05 -2.38812e-07       6.1579 
          -5     0.084816 -8.57708e-05 -2.99915e-07       6.1579 
          -5     0.093982  -8.7079e-05 -3.68344e-07       6.1579 
          -5     0.103611 -8.65828e-05 -4.43699e-07       6.1579 
          -5     0.113718 -8.51481e-05 -5.30158e-07       6.1579 
          -5     0.124286 -8.34016e-05   -6.292e-07       6.1579 
          -5     0.135333 -8.16954e-05 -7.40518e-07       6.1579 
          -5      0.14685 -8.01338e-05 -8.62233e-07       6.1579 
          -5     0.158827 -7.86346e-05 -9.92285e-07       6.1579 
          -5     0.171284 -7.70299e-05 -1.13009e-06       6.1579 
          -5     0.184201 -7.52003e-05 -1.27681e-06       6.1579 
          -5     0.197599 -7.31699e-05 -1.43637e-06       6.1579 
          -5     0.211455 -7.11486e-05 -1.61269e-06       6.1579 
          -5     0.225792 -6.93864e-05 -1.80577e-06       6.1579 
          -5       0.2406 -6.77693e-05 -2.00072e-06       6.1579 
          -5     0.255865 -6.56413e-05 -2.18136e-06       6.1579 
          -5     0.271613 -6.38078e-05  -2.3898e-06       6.1579 
          -5     0.287818 -6.19909e-05 -2.60513e-06       6.1579 
          -5     0.304506 -6.02001e-05 -2.82762e-06      6.15791 
          -5      0.32165 -5.84524e-05 -3.05673e-06      6.15791 
          -5     0.339278 -5.67535e-05 -3.29271e-06      6.15791 
          -5     0.357377 -5.51133e-05 -3.53525e-06      6.15791 
          -5      0.37593 -5.35419e-05 -3.78392e-06      6.15791 
          -5     0.394968 -5.20448e-05 -4.03892e-06      6.15791 
          -5     0.414461 -5.06326e-05  -4.2996e-06      6.15791 
          -5      0.43444  -4.9311e-05  -4.5661e-06      6.15791 
          -5     0.454872 -4.80894e-05 -4.83766e-06      6.15791 
          -5     0.475791 -4.69728e-05  -5.1144e-06      6.15791 
          -5     0.497163 -4.59693e-05 -5.39553e-06      6.15791 
          -5     0.519021 -4.50831e-05 -5.68111e-06      6.15791 
          -5      0.54135 -4.43195e-05 -5.97058e-06      6.15791 
          -5     0.564131 -4.36832e-05  -6.2633e-06      6.15792 
          -5       0.5874 -4.31759e-05 -6.55938e-06      6.15792 
          -5     0.611121 -4.28003e-05 -6.85799e-06      6.15792 
          -5      0.63533 -4.25564e-05 -7.15925e-06      6.15792 
          -5      0.65999  -4.2444e-05 -7.46238e-06      6.15792 
          -5     0.685139 -4.24611e-05 -7.76755e-06      6.15792 
          -5     0.710759 -4.26045e-05 -8.07428e-06      6.15792 
          -5     0.736828 -4.28696e-05 -8.38207e-06      6.15793 
          -5     0.763387 -4.32508e-05 -8.69121e-06      6.15793 
          -5     0.790396 -4.37404e-05 -9.00103e-06      6.15793 
          -5     0.817896  -4.4331e-05 -9.31181e-06      6.15793 
          -5     0.845843 -4.50122e-05 -9.62284e-06      6.15793 
          -5     0.874283 -4.57751e-05 -9.93436e-06      6.15794 
          -5      0.90317 -4.66078e-05 -1.02455e-05      6.15794 
          -5     0.932551 -4.75006e-05 -1.05562e-05      6.15794 
          -5     0.962401  -4.8442e-05 -1.08655e-05      6.15794 
          -5     0.992697 -4.94212e-05 -1.11721e-05      6.15794 
          -5      1.02349  -5.0431e-05 -1.14749e-05      6.15795 
          -5      1.05472 -5.14627e-05 -1.17714e-05      6.15795 
          -5      1.08645 -5.25142e-05 -1.20593e-05      6.15795 
          -5      1.11863 -5.35836e-05 -1.23344e-05      6.15796 
          -5       1.1513 -5.46602e-05 -1.25983e-05      6.15796 
          -5      1.18444 -5.56735e-05  -1.2873e-05      6.15796 
          -5      1.21802 -5.66846e-05 -1.31342e-05      6.15797 
          -5      1.25211  -5.7691e-05 -1.33807e-05      6.15797 
          -5      1.28663 -5.86853e-05 -1.36112e-05      6.15797 
          -5      1.32165 -5.96623e-05 -1.38256e-05      6.15798 
          -5      1.35712 -6.06132e-05 -1.40238e-05      6.15798 
          -5      1.39308 -6.15327e-05 -1.42067e-05      6.15798 
          -5      1.42951 -6.24142e-05 -1.43749e-05      6.15799 
          -5      1.46638 -6.32533e-05 -1.45293e-05      6.15799 
          -5      1.50375 -6.40496e-05 -1.46714e-05        6.158 
          -5      1.54156 -6.48036e-05 -1.48019e-05        6.158 
          -5      1.57987 -6.55216e-05 -1.49219e-05      6.15801 
          -5      1.61863 -6.62114e-05 -1.50315e-05      6.15801 
          -5      1.65788  -6.6887e-05 -1.51305e-05      6.15801 
          -5      1.69757 -6.75642e-05 -1.52175e-05      6.15802 
          -5      1.73776  -6.8264e-05 -1.52905e-05      6.15803 
          -5      1.77842 -6.90086e-05 -1.53455e-05      6.15803 
          -5      1.81952 -6.98251e-05 -1.53908e-05      6.15804 
          -5      1.86113 -7.07484e-05 -1.54313e-05      6.15804 
          -5      1.90316 -7.18028e-05 -1.54625e-05      6.15805 
          -5      1.94571 -7.30083e-05 -1.54809e-05      6.15805 
          -5      1.98869 -7.43684e-05  -1.5485e-05      6.15806 
          -5      2.03217 -7.58692e-05  -1.5476e-05      6.15807 
          -5      2.07612 -7.74626e-05 -1.54597e-05      6.15807 
          -5      2.12051 -7.90727e-05 -1.54106e-05      6.15808 
          -5       2.1654 -8.07072e-05  -1.5341e-05      6.15808 
          -5      2.21073 -8.23415e-05 -1.52605e-05      6.15809 
          -5      2.25656 -8.39408e-05 -1.51485e-05       6.1581 
          -5      2.30283 -8.54624e-05 -1.49932e-05      6.15811 
          -5       2.3496 -8.68661e-05 -1.47895e-05      6.15811 
          -5      2.39685 -8.81127e-05 -1.45298e-05      6.15812 
          -5      2.44452 -8.91745e-05 -1.42295e-05      6.15813 
          -5      2.49271 -9.00195e-05 -1.38887e-05      6.15814 
          -5      2.54132 -9.06211e-05 -1.34984e-05      6.15814 
          -5      2.59044 -9.09641e-05 -1.30519e-05      6.15815 
          -5         2.64 -9.10409e-05 -1.25476e-05      6.15816 
          -5      2.69006 -9.08536e-05 -1.19858e-05      6.15817 
          -5      2.74056  -9.0414e-05 -1.13717e-05      6.15818 
          -5      2.79156 -8.97415e-05 -1.07116e-05      6.15818 
          -5      2.84304 -8.88655e-05 -1.00158e-05      6.15819 
          -5      2.89494 -8.78236e-05 -9.29693e-06       6.1582 
          -5      2.94735 -8.66581e-05 -8.56695e-06      6.15821 
          -5       3.0002 -8.54208e-05 -7.84099e-06      6.15822 
          -5      3.05355 -8.41643e-05 -7.13153e-06      6.15823 
          -5      3.10733 -8.29479e-05 -6.45196e-06      6.15824 
          -5      3.16163 -8.18279e-05  -5.8109e-06      6.15824 
          -5      3.21639 -8.08619e-05 -5.21459e-06      6.15825 
          -5      3.27158 -8.01027e-05 -4.66349e-06      6.15826 
          -5      3.32729 -7.95932e-05 -4.14924e-06      6.15827 
          -5      3.38342 -7.93598e-05  -3.7198e-06      6.15828 
          -5      3.44007 -7.94012e-05  -3.4239e-06      6.15829 
          -5      3.49714 -7.96436e-05 -3.17493e-06       6.1583 
          -5      3.55472 -7.99786e-05 -2.96997e-06      6.15831 
          -5      3.61273 -8.03038e-05 -2.80646e-06      6.15832 
          -5      3.67125 -8.05417e-05 -2.67971e-06      6.15833 
          -5      3.73025 -8.06531e-05 -2.58422e-06      6.15834 
          -5      3.78967 -8.06517e-05 -2.51535e-06      6.15835 
          -5      3.84961 -8.06128e-05 -2.47344e-06      6.15836 
          -5      3.90996 -8.06795e-05  -2.4707e-06      6.15837 
          -5      3.97084 -8.08323e-05 -2.38013e-06      6.15838 
          -5      4.03214 -8.10107e-05 -2.36126e-06      6.15839 
          -5      4.09395 -8.12004e-05 -2.36983e-06       6.1584 
          -5      4.15624 -8.13887e-05 -2.37745e-06      6.15841 
          -5      4.21895 -8.15659e-05  -2.3704e-06      6.15842 
          -5      4.28217 -8.17255e-05 -2.34551e-06      6.15843 
          -5      4.34582 -8.18636e-05 -2.30639e-06      6.15844 
          -5      4.40998 -8.19798e-05 -2.25984e-06      6.15845 
          -5      4.47457 -8.20756e-05 -2.21303e-06      6.15845 
          -5      4.53968 -8.21553e-05 -2.17076e-06      6.15846 
          -5      4.60525 -8.22249e-05 -2.13401e-06      6.15847 
          -5      4.67125 -8.22919e-05 -2.09883e-06      6.15848 
          -5      4.73777 -8.23643e-05 -2.05632e-06      6.15849 
          -5       4.8047   -8.245e-05 -1.99406e-06       6.1585 
          -5      4.87216  -8.2556e-05 -1.89817e-06      6.15851 
          -5      4.94003 -8.26865e-05 -1.75776e-06      6.15852 
          -5      5.00843 -8.28425e-05 -1.56985e-06      6.15853 
          -5      5.07724 -8.30191e-05  -1.3477e-06      6.15854 
          -5      5.14658  -8.3205e-05 -1.12921e-06      6.15854 
          -5      5.21639 -8.33003e-05  -9.6274e-07      6.15855 
          -5      5.28661 -8.33311e-05 -8.66009e-07      6.15856 
          -5      5.35736 -8.33024e-05 -7.95045e-07      6.15857 
          -5      5.42852 -8.32923e-05 -6.96476e-07      6.15857 
          -5      5.50021 -8.33499e-05 -5.89097e-07      6.15858 
          -5      5.57231 -8.34023e-05 -4.92611e-07      6.15859 
          -5      5.64493  -8.3429e-05 -3.77096e-07       6.1586 
          -5      5.71803 -8.34216e-05   -2.314e-07       6.1586 
          -5      5.79154 -8.33808e-05 -5.78897e-08      6.15861 
          -5      5.86558 -8.33142e-05  1.32828e-07      6.15862 
          -5      5.94003 -8.32336e-05  3.25264e-07      6.15862 
          -5      6.01501 -8.31528e-05  5.04014e-07      6.15863 
          -5       6.0904 -8.30856e-05   6.5574e-07      6.15863 
          -5      6.16632 -8.30438e-05  7.72655e-07      6.15864 
          -5      6.24271 -8.30359e-05  8.53127e-07      6.15864 
          -5       6.3195 -8.30659e-05  9.02621e-07      6.15865 
          -5      6.39683 -8.31324e-05  9.32992e-07      6.15865 
          -5      6.47457 -8.32285e-05  9.60176e-07      6.15865 
          -5      6.55284 -8.33425e-05  1.00091e-06      6.15866 
          -5      6.63152 -8.34577e-05  1.06729e-06      6.15866 
          -5      6.71073 -8.35556e-05     1.16e-06      6.15866 
          -5      6.79034 -8.36169e-05  1.25881e-06      6.15867 
          -5      6.87049 -8.36257e-05  1.31171e-06      6.15867 
          -5      6.95111 -8.35731e-05  1.22049e-06      6.15867 
          -5      7.03214 -8.34688e-05  8.67018e-07      6.15867 
          -5       7.1137 -8.34879e-05  1.19631e-06      6.15867 
          -5      7.19566 -8.35039e-05  1.24141e-06      6.15867 
          -5      7.27816 -8.35199e-05  1.12023e-06      6.15867 
          -5      7.36106 -8.35407e-05  9.17468e-07      6.15867 
          -5      7.44451 -8.35709e-05   6.8989e-07      6.15867 
          -5      7.52842 -8.36144e-05  4.72719e-07      6.15867 
          -5      7.61273 -8.36738e-05  2.84306e-07      6.15866 
          -5      7.69758 -8.37497e-05  1.30445e-07      6.15866 
          -5      7.78283 -8.38401e-05  9.63857e-09      6.15866 
          -5      7.86862 -8.39408e-05 -8.42231e-08      6.15865 
          -5      7.95481 -8.40446e-05  -1.5808e-07      6.15865 
          -5      8.04155 -8.41424e-05 -2.18139e-07      6.15865 
          -5      8.12868 -8.42235e-05 -2.68084e-07      6.15864 
          -5      8.21635 -8.42763e-05 -3.09207e-07      6.15863 
          -5      8.30449   -8.429e-05 -3.40973e-07      6.15863 
          -5      8.39303 -8.42561e-05 -3.63328e-07      6.15862 
          -5      8.48211 -8.41701e-05 -3.80281e-07      6.15861 
          -5      8.57159 -8.41365e-05 -3.63814e-07      6.15861 
          -5      8.66161  -8.4174e-05 -3.74821e-07       6.1586 
          -5      8.75203 -8.42123e-05    -4.82e-07      6.15859 
          -5      8.84299 -8.42551e-05 -6.59666e-07      6.15858 
          -5      8.93443 -8.42842e-05 -8.15829e-07      6.15857 
          -5      9.02626 -8.42522e-05 -7.74482e-07      6.15856 
          -5      9.11863 -8.43751e-05 -8.80954e-07      6.15854 
          -5      9.21139 -8.45442e-05 -1.02043e-06      6.15853 
          -5      9.30471 -8.46308e-05 -1.04217e-06      6.15852 
          -5      9.39841 -8.46447e-05 -1.02948e-06       6.1585 
          -5      9.49267 -8.45885e-05 -1.02182e-06      6.15849 
          -5      9.58739  -8.4459e-05  -1.0245e-06      6.15847 
          -5      9.68251 -8.42751e-05 -1.00149e-06      6.15846 
          -5      9.77817 -8.42658e-05 -8.56169e-07      6.15844 
          -5      9.87422 -8.43331e-05 -7.19177e-07      6.15842 
          -5      9.97083 -8.44339e-05 -6.18812e-07      6.15841 
          -5      10.0678 -8.45315e-05 -5.71566e-07      6.15839 
          -5      10.1654 -8.46009e-05 -5.79244e-07      6.15837 
          -5      10.2633 -8.46311e-05 -6.28963e-07      6.15835 
          -5      10.3618 -8.46263e-05 -6.95068e-07      6.15833 
          -5      10.4607 -8.46043e-05  -7.4329e-07       6.1583 
          -5      10.5601 -8.45933e-05 -7.37964e-07      6.15828 
          -5        10.66 -8.46251e-05 -6.51899e-07      6.15826 
          -5      10.7603 -8.47257e-05 -4.79692e-07      6.15823 
          -5      10.8611 -8.49038e-05 -2.53724e-07      6.15821 
          -5      10.9623 -8.51332e-05 -6.54313e-08      6.15818 
          -5      11.0641 -8.53355e-05 -8.85243e-08      6.15816 
          -5      11.1663 -8.53543e-05 -6.08881e-07      6.15813 
          -5       11.269 -8.52385e-05 -1.24351e-06       6.1581 
          -5      11.3721 -8.54618e-05 -7.04714e-07      6.15807 
          -5      11.4757  -8.5541e-05 -4.46365e-07      6.15804 
          -5      11.5798 -8.55429e-05 -3.90341e-07      6.15801 
          -5      11.6844 -8.55156e-05 -4.69744e-07      6.15798 
          -5      11.7894 -8.54909e-05  -6.2811e-07      6.15794 
          -5       11.895 -8.54863e-05 -8.19139e-07      6.15791 
          -5      12.0009 -8.55075e-05 -1.00668e-06      6.15788 
          -5      12.1073   -8.555e-05 -1.16531e-06      6.15784 
          -5      12.2142 -8.56012e-05 -1.27938e-06      6.15781 
          -5      12.3216 -8.56429e-05 -1.34416e-06      6.15777 
          -5      12.4294 -8.56527e-05 -1.36534e-06      6.15773 
          -5      12.5378  -8.5606e-05 -1.35986e-06      6.15769 
          -5      12.6465 -8.54778e-05  -1.3561e-06      6.15765 
          -5      12.7558 -8.52443e-05 -1.39459e-06      6.15761 
          -5      12.8656 -8.52838e-05 -1.26074e-06      6.15757 
          -5      12.9757 -8.53343e-05 -1.12558e-06      6.15753 
          -5      13.0864 -8.53685e-05 -1.01281e-06      6.15748 
          -5      13.1975 -8.53905e-05 -9.24635e-07      6.15744 
          -5      13.3092 -8.54006e-05 -8.64175e-07      6.15739 
          -5      13.4212  -8.5396e-05 -8.35467e-07      6.15735 
          -5      13.5338 -8.53728e-05  -8.4235e-07       6.1573 
          -5      13.6468 -8.53289e-05 -8.87685e-07      6.15725 
          -5      13.7603  -8.5267e-05  -9.7187e-07       6.1572 
          -5      13.8743 -8.51981e-05 -1.09162e-06      6.15715 
          -5      13.9886 -8.51471e-05 -1.23753e-06       6.1571 
          -5      14.1036 -8.51577e-05 -1.39262e-06      6.15705 
          -5      14.2189 -8.52017e-05 -1.55228e-06      6.15699 
          -5      14.3348 -8.51547e-05 -1.76438e-06      6.15694 
          -5       14.451 -8.51129e-05  -2.0012e-06      6.15688 
          -5      14.5678  -8.5083e-05 -2.24576e-06      6.15683 
          -5      14.6851 -8.50691e-05 -2.48411e-06      6.15677 
          -5      14.8028 -8.50733e-05 -2.70518e-06      6.15671 
          -5       14.921 -8.50954e-05 -2.90078e-06      6.15665 
          -5      15.0396  -8.5134e-05  -3.0639e-06      6.15659 
          -5      15.1588 -8.51864e-05  -3.1896e-06      6.15653 
          -5      15.2783  -8.5249e-05 -3.27373e-06      6.15646 
          -5      15.3984 -8.53178e-05 -3.31357e-06       6.1564 
          -5       15.519 -8.53883e-05 -3.30728e-06      6.15633 
          -5        15.64  -8.5456e-05 -3.25447e-06      6.15627 
          -5      15.7615 -8.55168e-05 -3.15619e-06       6.1562 
          -5      15.8834 -8.55667e-05 -3.01581e-06      6.15613 
          -5      16.0058 -8.56025e-05  -2.8391e-06      6.15606 
          -5      16.1286 -8.56212e-05 -2.85435e-06      6.15599 
          -5       16.252 -8.56092e-05 -2.90783e-06      6.15592 
          -5      16.3759 -8.55748e-05 -2.89275e-06      6.15585 
          -5      16.5002 -8.55308e-05 -2.85704e-06      6.15577 
          -5       16.625 -8.54898e-05 -2.84288e-06       6.1557 
          -5      16.7501 -8.54627e-05 -2.88372e-06      6.15562 
          -5      16.8759 -8.54579e-05 -3.00085e-06      6.15554 
          -5       17.002  -8.5479e-05 -3.19927e-06      6.15546 
          -5      17.1287 -8.55243e-05 -3.46427e-06      6.15538 
          -5      17.2557 -8.55837e-05 -3.75571e-06       6.1553 
          -5      17.3834  -8.5638e-05 -4.00456e-06      6.15522 
          -5      17.5115 -8.56558e-05 -4.10601e-06      6.15514 
          -5      17.6399 -8.55916e-05 -3.91488e-06      6.15505 
          -5       17.769  -8.5383e-05 -3.23838e-06      6.15497 
          -5      17.8984 -8.55725e-05 -3.88209e-06      6.15488 
          -5      18.0284  -8.5684e-05 -4.41859e-06      6.15479 
          -5      18.1587 -8.56986e-05 -4.73922e-06       6.1547 
          -5      18.2896 -8.56544e-05 -4.92765e-06      6.15461 
          -5       18.421 -8.55811e-05 -5.05192e-06      6.15452 
          -5      18.5528 -8.55004e-05 -5.16359e-06      6.15443 
          -5      18.6851 -8.54255e-05  -5.2961e-06      6.15433 
          -5      18.8178 -8.53621e-05 -5.46281e-06      6.15424 
          -5      18.9511 -8.53073e-05 -5.65676e-06      6.15414 
          -5      19.0847 -8.52505e-05 -5.84893e-06      6.15404 
          -5      19.2189 -8.52303e-05 -6.07108e-06      6.15394 
          -5      19.3535 -8.53046e-05  -6.3231e-06      6.15384 
          -5      19.4886 -8.53777e-05 -6.46835e-06      6.15374 
          -5      19.6242 -8.54432e-05 -6.53279e-06      6.15364 
          -5      19.7602 -8.54955e-05  -6.5414e-06      6.15353 
          -5      19.8968 -8.55309e-05 -6.51654e-06      6.15343 
          -5      20.0337  -8.5546e-05 -6.47695e-06      6.15332 
          -5      20.1712  -8.5539e-05 -6.43704e-06      6.15321 
          -5      20.3091 -8.55092e-05  -6.4069e-06       6.1531 
          -5      20.4475 -8.54577e-05 -6.39237e-06      6.15299 
          -5      20.5864  -8.5388e-05 -6.39596e-06      6.15288 
          -5      20.7257 -8.53066e-05 -6.41809e-06      6.15277 
          -5      20.8655 -8.52243e-05 -6.45902e-06      6.15265 
          -5      21.0058 -8.51574e-05 -6.52117e-06      6.15254 
          -5      21.1465 -8.51288e-05 -6.61256e-06      6.15242 
          -5      21.2877 -8.51705e-05 -6.75013e-06       6.1523 
          -5      21.4294  -8.5325e-05 -6.96498e-06      6.15218 
          -5      21.5716  -8.5648e-05 -7.30692e-06      6.15206 
          -5      21.7142  -8.5495e-05 -7.40522e-06      6.15194 
          -5      21.8573 -8.52056e-05 -7.45366e-06      6.15181 
          -5      22.0008 -8.49361e-05  -7.5115e-06      6.15169 
          -5      22.1449 -8.46909e-05 -7.55491e-06      6.15156 
          -5      22.2893 -8.44763e-05 -7.57076e-06      6.15143 
          -5      22.4344 -8.42982e-05 -7.55665e-06      6.15131 
          -5      22.5797 -8.41632e-05 -7.51965e-06      6.15117 
          -5      22.7257 -8.40774e-05 -7.47442e-06      6.15104 
          -5      22.8721 -8.40471e-05 -7.44051e-06      6.15091 
          -5      23.0189  -8.4078e-05 -7.43855e-06      6.15077 
          -5      23.1663 -8.41761e-05 -7.48542e-06      6.15064 
          -5       23.314 -8.43468e-05 -7.58846e-06       6.1505 
          -5      23.4623 -8.44583e-05 -7.72593e-06      6.15036 
          -5       23.611 -8.40988e-05  -7.8416e-06      6.15022 
          -5      23.7602 -8.38774e-05 -7.96968e-06      6.15008 
          -5        23.91  -8.3761e-05 -8.08653e-06      6.14994 
          -5        24.06 -8.37194e-05 -8.17789e-06      6.14979 
          -5      24.2107 -8.37263e-05 -8.23777e-06      6.14965 
          -5      24.3617 -8.37594e-05 -8.26654e-06       6.1495 
          -5      24.5133 -8.38007e-05 -8.26989e-06      6.14935 
          -5      24.6653 -8.38359e-05 -8.25703e-06       6.1492 
          -5      24.8178 -8.38553e-05 -8.23918e-06      6.14905 
          -5      24.9708 -8.38529e-05 -8.22785e-06       6.1489 
          -5      25.1242 -8.38269e-05 -8.23306e-06      6.14874 
          -5      25.2781 -8.37791e-05  -8.2615e-06      6.14859 
          -5      25.4324 -8.37151e-05 -8.31451e-06      6.14843 
          -5      25.5873 -8.36434e-05  -8.3863e-06      6.14827 
          -5      25.7426 -8.35756e-05 -8.46148e-06      6.14811 
          -5      25.8984 -8.35251e-05  -8.5133e-06      6.14795 
          -5      26.0546 -8.35076e-05 -8.50103e-06      6.14779 
          -5      26.2114 -8.34734e-05 -8.56976e-06      6.14762 
          -5      26.3686 -8.33735e-05 -8.70472e-06      6.14746 
          -5      26.5262 -8.32561e-05 -8.80387e-06      6.14729 
          -5      26.6844 -8.31423e-05 -8.87672e-06      6.14712 
          -5      26.8429 -8.30456e-05 -8.93122e-06      6.14695 
          -5       27.002 -8.29732e-05 -8.97429e-06      6.14678 
          -5      27.1615 -8.29271e-05 -9.01156e-06      6.14661 
          -5      27.3216 -8.29051e-05 -9.04778e-06      6.14643 
          -5      27.4821 -8.29019e-05 -9.08666e-06      6.14626 
          -5       27.643 -8.29098e-05  -9.1311e-06      6.14608 
          -5      27.8044   -8.292e-05 -9.18334e-06       6.1459 
          -5      27.9663 -8.29233e-05 -9.24483e-06      6.14572 
          -5      28.1287 -8.29108e-05 -9.31666e-06      6.14554 
          -5      28.2914 -8.28749e-05 -9.39921e-06      6.14536 
          -5      28.4548 -8.28096e-05 -9.49275e-06      6.14517 
          -5      28.6185 -8.27118e-05 -9.59696e-06      6.14499 
          -5      28.7828  -8.2581e-05 -9.71163e-06       6.1448 
          -5      28.9475 -8.24204e-05 -9.83614e-06      6.14461 
          -5      29.1126  -8.2237e-05  -9.9698e-06      6.14442 
          -5      29.2784 -8.20417e-05 -1.01122e-05      6.14423 
          -5      29.4444 -8.18499e-05 -1.02626e-05      6.14403 
          -5       29.611 -8.16812e-05 -1.04208e-05      6.14384 
          -5       29.778 -8.15594e-05 -1.05864e-05      6.14364 
          -5      29.9456 -8.15125e-05 -1.07594e-05      6.14344 
          -5      30.1137 -8.15722e-05 -1.09401e-05      6.14324 
          -5      30.2821 -8.17734e-05 -1.11288e-05      6.14304 
          -5      30.4511 -8.21411e-05 -1.13073e-05      6.14284 
          -5      30.6204 -8.22552e-05 -1.11248e-05      6.14263 
          -5      30.7903 -8.22464e-05 -1.10163e-05      6.14243 
          -5      30.9606 -8.21439e-05 -1.09686e-05      6.14222 
          -5      31.1315 -8.19762e-05 -1.09708e-05      6.14201 
          -5      31.3028 -8.17707e-05 -1.10142e-05       6.1418 
          -5      31.4745 -8.15525e-05  -1.1091e-05      6.14159 
          -5      31.6468 -8.13435e-05  -1.1194e-05      6.14138 
          -5      31.8194 -8.11622e-05 -1.13146e-05      6.14116 
          -5      31.9926 -8.10219e-05 -1.14431e-05      6.14094 
          -5      32.1662 -8.09308e-05 -1.15665e-05      6.14073 
          -5      32.3404 -8.08897e-05 -1.16683e-05      6.14051 
          -5      32.5149  -8.0892e-05 -1.17267e-05      6.14029 
          -5        32.69  -8.0922e-05 -1.17137e-05      6.14006 
          -5      32.8655  -8.0954e-05 -1.17805e-05      6.13984 
          -5      33.0414 -8.09354e-05  -1.1932e-05      6.13961 
          -5       33.218 -8.08686e-05 -1.20436e-05      6.13939 
          -5      33.3948 -8.07672e-05 -1.21247e-05      6.13916 
          -5      33.5723 -8.06429e-05 -1.21843e-05      6.13893 
          -5        33.75 -8.05056e-05 -1.22298e-05       6.1387 
          -5      33.9284 -8.03635e-05  -1.2268e-05      6.13846 
          -5      34.1073 -8.02231e-05 -1.23046e-05      6.13823 
          -5      34.2865   -8.009e-05 -1.23441e-05      6.13799 
          -5      34.4663 -7.99677e-05 -1.23905e-05      6.13775 
          -5      34.6465 -7.98595e-05 -1.24466e-05      6.13751 
          -5      34.8272 -7.97668e-05 -1.25143e-05      6.13727 
          -5      35.0083 -7.96907e-05 -1.25946e-05      6.13703 
          -5        35.19 -7.96312e-05  -1.2688e-05      6.13679 
          -5      35.3721 -7.95878e-05 -1.27939e-05      6.13654 
          -5      35.5546 -7.95592e-05 -1.29106e-05      6.13629 
          -5      35.7377 -7.95438e-05 -1.30364e-05      6.13604 
          -5      35.9211 -7.95393e-05 -1.31681e-05      6.13579 
          -5      36.1052 -7.95433e-05 -1.33023e-05      6.13554 
          -5      36.2895 -7.95531e-05 -1.34344e-05      6.13529 
          -5      36.4745 -7.95655e-05 -1.35597e-05      6.13503 
          -5      36.6598 -7.95773e-05 -1.36725e-05      6.13478 
          -5      36.8457 -7.95852e-05 -1.37665e-05      6.13452 
          -5      37.0321 -7.95854e-05 -1.38348e-05      6.13426 
          -5      37.2188 -7.95745e-05 -1.38701e-05        6.134 
          -5      37.4062 -7.95483e-05 -1.38644e-05      6.13374 
          -5      37.5938  -7.9503e-05 -1.38092e-05      6.13347 
          -5      37.7821 -7.94341e-05 -1.36954e-05      6.13321 
          -5      37.9707 -7.93373e-05 -1.35138e-05      6.13294 
          -5      38.1599 -7.91071e-05 -1.35582e-05      6.13267 
          -5      38.3496 -7.88954e-05 -1.36099e-05       6.1324 
          -5      38.5396 -7.87015e-05 -1.36713e-05      6.13213 
          -5      38.7302 -7.85246e-05 -1.37429e-05      6.13186 
          -5      38.9211 -7.83646e-05 -1.38234e-05      6.13158 
          -5      39.1127 -7.82217e-05 -1.39097e-05      6.13131 
          -5      39.3046 -7.80971e-05 -1.39976e-05      6.13103 
          -5      39.4971 -7.79922e-05 -1.40826e-05      6.13075 
          -5      39.6899 -7.79099e-05 -1.41597e-05      6.13047 
          -5      39.8833 -7.78536e-05 -1.42252e-05      6.13019 
          -5      40.0772 -7.78281e-05 -1.42763e-05       6.1299 
          -5      40.2714 -7.78393e-05 -1.43131e-05      6.12962 
          -5      40.4663 -7.78945e-05 -1.43389e-05      6.12933 
          -5      40.6615 -7.80021e-05 -1.43612e-05      6.12904 
          -5      40.8573 -7.81724e-05 -1.43933e-05      6.12875 
          -5      41.0534 -7.82457e-05 -1.44815e-05      6.12846 
          -5      41.2501 -7.81883e-05 -1.44631e-05      6.12817 
          -5      41.4473 -7.80644e-05 -1.43981e-05      6.12787 
          -5      41.6448 -7.79045e-05 -1.43959e-05      6.12758 
          -5      41.8429 -7.77342e-05 -1.45789e-05      6.12728 
          -5      42.0414 -7.75738e-05 -1.50819e-05      6.12698 
          -5      42.2405 -7.74366e-05 -1.60533e-05      6.12668 
          -5      42.4399 -7.73515e-05 -1.70969e-05      6.12638 
          -5      42.6399 -7.73384e-05 -1.64377e-05      6.12608 
          -5      42.8404 -7.72909e-05 -1.59075e-05      6.12577 
          -5      43.0412 -7.72181e-05 -1.54924e-05      6.12546 
          -5      43.2426 -7.71272e-05 -1.51776e-05      6.12516 
          -5      43.4444 -7.70243e-05 -1.49505e-05      6.12485 
          -5      43.6467 -7.69142e-05 -1.47983e-05      6.12454 
          -5      43.8494 -7.68004e-05 -1.47096e-05      6.12423 
          -5      44.0527 -7.66857e-05 -1.46732e-05      6.12391 
          -5      44.2563  -7.6572e-05 -1.46793e-05       6.1236 
          -5      44.4606 -7.64602e-05 -1.47189e-05      6.12328 
          -5      44.6653 -7.63509e-05 -1.47836e-05      6.12296 
          -5      44.8704 -7.62444e-05 -1.48661e-05      6.12264 
          -5       45.076 -7.61402e-05 -1.49604e-05      6.12232 
          -5       45.282 -7.60377e-05 -1.50609e-05        6.122 
          -5      45.4886 -7.59362e-05 -1.51633e-05      6.12168 
          -5      45.6955 -7.58351e-05  -1.5264e-05      6.12135 
          -5       45.903 -7.57332e-05 -1.53605e-05      6.12102 
          -5      46.1111 -7.56301e-05  -1.5451e-05       6.1207 
          -5      46.3194  -7.5525e-05 -1.55344e-05      6.12037 
          -5      46.5283 -7.54176e-05 -1.56106e-05      6.12004 
          -5      46.7376 -7.53078e-05 -1.56797e-05       6.1197 
          -5      46.9475 -7.51953e-05 -1.57428e-05      6.11937 
          -5      47.1577 -7.50809e-05 -1.58011e-05      6.11904 
          -5      47.3685 -7.49649e-05 -1.58563e-05       6.1187 
          -5      47.5798 -7.48483e-05 -1.59103e-05      6.11836 
          -5      47.7914 -7.47324e-05 -1.59648e-05      6.11802 
          -5      48.0037 -7.46185e-05 -1.60216e-05      6.11768 