Variables = x, y, u, v, p

Zone, I=800, F=POINT
         -25            0  1.21302e-19  4.09088e-24      27.5608 
         -25     0.000234  6.01012e-06  2.05952e-10      27.5608 
         -25     0.000939   2.2651e-05  8.13949e-10      27.5608 
         -25     0.002113  4.58718e-05   1.7805e-09      27.5608 
         -25     0.003759   7.0271e-05  3.02574e-09      27.5608 
         -25     0.005872  9.03849e-05  4.41006e-09      27.5608 
         -25     0.008457  0.000102444  5.73833e-09      27.5608 
         -25      0.01151  0.000105258  6.74972e-09      27.5608 
         -25     0.015036  0.000100618  7.14491e-09      27.5608 
         -25     0.019031  9.26072e-05  6.61606e-09      27.5608 
         -25     0.023493  8.60655e-05   4.9007e-09      27.5608 
         -25     0.028429  8.46024e-05  1.82449e-09      27.5608 
         -25     0.033831  8.89188e-05 -2.64966e-09      27.5608 
         -25     0.039706   9.6246e-05 -8.43606e-09      27.5608 
         -25     0.046047  0.000101668 -1.53468e-08      27.5608 
         -25     0.052863  0.000101474 -2.32115e-08      27.5608 
         -25      0.06015  9.72157e-05 -3.19569e-08      27.5608 
         -25       0.0679  9.69288e-05 -4.16644e-08      27.5608 
         -25     0.076126  0.000106003  -5.2435e-08      27.5608 
         -25     0.084816  0.000102426 -6.36768e-08      27.5608 
         -25     0.093982  0.000105156 -7.45226e-08      27.5608 
         -25     0.103611  0.000106879 -8.47909e-08      27.5608 
         -25     0.113718  0.000108044  -9.4049e-08      27.5608 
         -25     0.124286  0.000108973 -1.01768e-07      27.5608 
         -25     0.135333  0.000109849 -1.07398e-07      27.5608 
         -25      0.14685  0.000110721 -1.10343e-07      27.5608 
         -25     0.158827   0.00011154 -1.10019e-07      27.5608 
         -25     0.171284  0.000112213 -1.05876e-07      27.5608 
         -25     0.184201  0.000112667 -9.74352e-08      27.5608 
         -25     0.197599  0.000112907 -8.42793e-08      27.5608 
         -25     0.211455  0.000113032 -6.61095e-08      27.5608 
         -25     0.225792   0.00011317 -4.26138e-08      27.5608 
         -25       0.2406  0.000113264 -1.34631e-08      27.5608 
         -25     0.255865  0.000113006  2.21415e-08      27.5608 
         -25     0.271613  0.000112809  6.37379e-08      27.5608 
         -25     0.287818   0.00011251  1.10041e-07      27.5608 
         -25     0.304506  0.000112128  1.60795e-07      27.5608 
         -25      0.32165  0.000111677  2.15639e-07      27.5608 
         -25     0.339278  0.000111171  2.74444e-07      27.5608 
         -25     0.357377  0.000110621  3.37021e-07      27.5608 
         -25      0.37593  0.000110038  4.03225e-07      27.5608 
         -25     0.394968  0.000109426  4.73144e-07      27.5608 
         -25     0.414461  0.000108793  5.46692e-07      27.5608 
         -25      0.43444  0.000108139  6.24032e-07      27.5608 
         -25     0.454872  0.000107469  7.05075e-07      27.5608 
         -25     0.475791  0.000106783  7.89936e-07      27.5608 
         -25     0.497163  0.000106084  8.78349e-07      27.5608 
         -25     0.519021  0.000105371   9.7014e-07      27.5608 
         -25      0.54135  0.000104644  1.06468e-06      27.5608 
         -25     0.564131  0.000103901  1.16094e-06      27.5608 
         -25       0.5874  0.000103133  1.25768e-06      27.5608 
         -25     0.611121  0.000102332  1.35071e-06      27.5608 
         -25      0.63533  0.000101521  1.41309e-06      27.5608 
         -25      0.65999  0.000100673  1.46331e-06      27.5608 
         -25     0.685139  9.97865e-05  1.50598e-06      27.5608 
         -25     0.710759  9.88631e-05  1.54472e-06      27.5607 
         -25     0.736828  9.79057e-05  1.58226e-06      27.5607 
         -25     0.763387  9.69164e-05   1.6206e-06      27.5607 
         -25     0.790396  9.59018e-05  1.66075e-06      27.5607 
         -25     0.817896  9.48663e-05  1.70315e-06      27.5607 
         -25     0.845843  9.38185e-05  1.74745e-06      27.5607 
         -25     0.874283   9.2764e-05  1.79294e-06      27.5607 
         -25      0.90317  9.17124e-05   1.8384e-06      27.5607 
         -25     0.932551  9.06696e-05  1.88253e-06      27.5607 
         -25     0.962401  8.96438e-05  1.92392e-06      27.5607 
         -25     0.992697  8.86423e-05  1.96129e-06      27.5607 
         -25      1.02349   8.7669e-05  1.99378e-06      27.5607 
         -25      1.05472  8.67298e-05  2.02086e-06      27.5606 
         -25      1.08645  8.58259e-05  2.04271e-06      27.5606 
         -25      1.11863  8.49599e-05  2.06008e-06      27.5606 
         -25       1.1513  8.41299e-05  2.07447e-06      27.5606 
         -25      1.18444   8.3335e-05  2.08794e-06      27.5606 
         -25      1.21802  8.25728e-05  2.10297e-06      27.5606 
         -25      1.25211   8.1839e-05  2.12218e-06      27.5606 
         -25      1.28663  8.11323e-05  2.14774e-06      27.5605 
         -25      1.32165  8.04508e-05  2.18081e-06      27.5605 
         -25      1.35712   7.9799e-05  2.22044e-06      27.5605 
         -25      1.39308  7.91848e-05  2.26255e-06      27.5605 
         -25      1.42951   7.8627e-05  2.29814e-06      27.5605 
         -25      1.46638  7.81567e-05  2.31148e-06      27.5605 
         -25      1.50375  7.78207e-05  2.27768e-06      27.5604 
         -25      1.54156   7.6772e-05  2.23305e-06      27.5604 
         -25      1.57987  7.61689e-05  2.26387e-06      27.5604 
         -25      1.61863  7.59893e-05  2.35006e-06      27.5604 
         -25      1.65788  7.61351e-05  2.47267e-06      27.5604 
         -25      1.69757  7.65169e-05  2.61465e-06      27.5603 
         -25      1.73776   7.7055e-05  2.76164e-06      27.5603 
         -25      1.77842   7.7678e-05  2.90128e-06      27.5603 
         -25      1.81952  7.83234e-05  3.02356e-06      27.5603 
         -25      1.86113    7.894e-05  3.12113e-06      27.5602 
         -25      1.90316  7.94839e-05  3.18856e-06      27.5602 
         -25      1.94571  7.99225e-05  3.22297e-06      27.5602 
         -25      1.98869  8.02304e-05  3.22341e-06      27.5601 
         -25      2.03217  8.03926e-05  3.19107e-06      27.5601 
         -25      2.07612  8.04011e-05  3.12899e-06      27.5601 
         -25      2.12051  8.02564e-05  3.04205e-06      27.5601 
         -25       2.1654  7.99656e-05  2.93642e-06        27.56 
         -25      2.21073   7.9543e-05  2.81987e-06        27.56 
         -25      2.25656  7.90071e-05   2.7009e-06        27.56 
         -25      2.30283  7.83824e-05  2.58916e-06      27.5599 
         -25       2.3496  7.76955e-05  2.49448e-06      27.5599 
         -25      2.39685  7.69766e-05  2.42718e-06      27.5598 
         -25      2.44452  7.62577e-05   2.3974e-06      27.5598 
         -25      2.49271  7.55693e-05  2.41483e-06      27.5598 
         -25      2.54132   7.4943e-05  2.48843e-06      27.5597 
         -25      2.59044  7.44065e-05  2.62631e-06      27.5597 
         -25         2.64   7.3986e-05  2.83488e-06      27.5596 
         -25      2.69006  7.37022e-05  3.11948e-06      27.5596 
         -25      2.74056  7.35712e-05  3.48276e-06      27.5595 
         -25      2.79156  7.36029e-05  3.92629e-06      27.5595 
         -25      2.84304  7.38003e-05  4.44847e-06      27.5594 
         -25      2.89494  7.41587e-05  5.04501e-06      27.5594 
         -25      2.94735  7.46667e-05  5.71052e-06      27.5593 
         -25       3.0002  7.53039e-05  6.43508e-06      27.5593 
         -25      3.05355  7.60443e-05  7.20851e-06      27.5592 
         -25      3.10733  7.68534e-05  8.01603e-06      27.5592 
         -25      3.16163  7.76935e-05   8.8434e-06      27.5591 
         -25      3.21639  7.85213e-05  9.67296e-06       27.559 
         -25      3.27158  7.92925e-05  1.04862e-05       27.559 
         -25      3.32729  7.99659e-05  1.12663e-05      27.5589 
         -25      3.38342  8.05038e-05   1.1995e-05      27.5589 
         -25      3.44007  8.08799e-05  1.26583e-05      27.5588 
         -25      3.49714  8.10825e-05  1.32437e-05      27.5587 
         -25      3.55472  8.11225e-05  1.37458e-05      27.5586 
         -25      3.61273  8.10405e-05  1.41648e-05      27.5586 
         -25      3.67125  8.09159e-05  1.45118e-05      27.5585 
         -25      3.73025  8.08776e-05  1.48094e-05      27.5584 
         -25      3.78967  8.09396e-05  1.52211e-05      27.5583 
         -25      3.84961  8.10426e-05  1.56186e-05      27.5583 
         -25      3.90996  8.11881e-05  1.59402e-05      27.5582 
         -25      3.97084  8.13459e-05  1.62042e-05      27.5581 
         -25      4.03214  8.14952e-05  1.64235e-05       27.558 
         -25      4.09395  8.16245e-05  1.66088e-05      27.5579 
         -25      4.15624  8.17294e-05  1.67673e-05      27.5578 
         -25      4.21895  8.18121e-05  1.69041e-05      27.5578 
         -25      4.28217  8.18795e-05  1.70232e-05      27.5577 
         -25      4.34582   8.1942e-05  1.71272e-05      27.5576 
         -25      4.40998  8.20125e-05  1.72186e-05      27.5575 
         -25      4.47457  8.21044e-05  1.72998e-05      27.5574 
         -25      4.53968  8.22308e-05  1.73737e-05      27.5573 
         -25      4.60525   8.2403e-05  1.74437e-05      27.5572 
         -25      4.67125  8.26289e-05  1.75141e-05      27.5571 
         -25      4.73777  8.29131e-05  1.75905e-05       27.557 
         -25       4.8047  8.32541e-05  1.76787e-05      27.5568 
         -25      4.87216  8.36454e-05  1.77855e-05      27.5567 
         -25      4.94003  8.40728e-05  1.79173e-05      27.5566 
         -25      5.00843  8.45162e-05    1.808e-05      27.5565 
         -25      5.07724   8.4947e-05  1.82775e-05      27.5564 
         -25      5.14658  8.53305e-05  1.85109e-05      27.5563 
         -25      5.21639  8.56243e-05  1.87763e-05      27.5561 
         -25      5.28661  8.57802e-05  1.90629e-05       27.556 
         -25      5.35736  8.57455e-05  1.93518e-05      27.5559 
         -25      5.42852  8.57919e-05   1.9665e-05      27.5557 
         -25      5.50021  8.61103e-05    1.991e-05      27.5556 
         -25      5.57231  8.62936e-05  1.99094e-05      27.5555 
         -25      5.64493  8.63557e-05  2.01284e-05      27.5553 
         -25      5.71803  8.64654e-05   2.0745e-05      27.5552 
         -25      5.79154   8.6575e-05  2.10674e-05       27.555 
         -25      5.86558  8.66734e-05  2.11994e-05      27.5549 
         -25      5.94003  8.67546e-05  2.12223e-05      27.5547 
         -25      6.01501  8.68173e-05  2.11977e-05      27.5546 
         -25       6.0904  8.68639e-05  2.11692e-05      27.5544 
         -25      6.16632  8.68995e-05  2.11645e-05      27.5543 
         -25      6.24271  8.69316e-05  2.11975e-05      27.5541 
         -25       6.3195  8.69515e-05  2.13036e-05       27.554 
         -25      6.39683  8.69598e-05  2.14719e-05      27.5538 
         -25      6.47457  8.69867e-05  2.16335e-05      27.5536 
         -25      6.55284  8.70369e-05  2.17741e-05      27.5534 
         -25      6.63152  8.71128e-05  2.18833e-05      27.5533 
         -25      6.71073  8.72146e-05  2.19562e-05      27.5531 
         -25      6.79034    8.734e-05  2.19935e-05      27.5529 
         -25      6.87049  8.74848e-05  2.20014e-05      27.5527 
         -25      6.95111  8.76426e-05  2.19912e-05      27.5525 
         -25      7.03214  8.78057e-05  2.19776e-05      27.5523 
         -25       7.1137  8.79654e-05  2.19768e-05      27.5521 
         -25      7.19566  8.81122e-05  2.20037e-05      27.5519 
         -25      7.27816   8.8237e-05  2.20677e-05      27.5517 
         -25      7.36106  8.83316e-05  2.21686e-05      27.5515 
         -25      7.44451  8.83898e-05  2.22901e-05      27.5513 
         -25      7.52842  8.84084e-05  2.23931e-05      27.5511 
         -25      7.61273  8.83887e-05  2.24071e-05      27.5509 
         -25      7.69758   8.8338e-05  2.22208e-05      27.5506 
         -25      7.78283  8.82709e-05  2.16711e-05      27.5504 
         -25      7.86862  8.82351e-05  2.12577e-05      27.5502 
         -25      7.95481  8.81365e-05  2.18361e-05        27.55 
         -25      8.04155  8.79655e-05  2.28326e-05      27.5497 
         -25      8.12868  8.79381e-05  2.34101e-05      27.5495 
         -25      8.21635  8.81827e-05  2.29433e-05      27.5492 
         -25      8.30449  8.85008e-05  2.27245e-05       27.549 
         -25      8.39303  8.88463e-05  2.26961e-05      27.5487 
         -25      8.48211  8.91862e-05  2.28058e-05      27.5485 
         -25      8.57159  8.94972e-05  2.30064e-05      27.5482 
         -25      8.66161  8.97673e-05  2.32564e-05      27.5479 
         -25      8.75203  8.99922e-05  2.35186e-05      27.5477 
         -25      8.84299  8.98783e-05   2.3488e-05      27.5474 
         -25      8.93443  8.96668e-05  2.34118e-05      27.5471 
         -25      9.02626  8.95136e-05  2.34353e-05      27.5468 
         -25      9.11863  8.94128e-05  2.35448e-05      27.5466 
         -25      9.21139   8.9358e-05  2.37242e-05      27.5463 
         -25      9.30471  8.93422e-05  2.39569e-05       27.546 
         -25      9.39841  8.93584e-05  2.42256e-05      27.5457 
         -25      9.49267  8.93997e-05  2.45142e-05      27.5454 
         -25      9.58739  8.94593e-05  2.48073e-05      27.5451 
         -25      9.68251  8.95312e-05  2.50914e-05      27.5448 
         -25      9.77817  8.96099e-05   2.5356e-05      27.5444 
         -25      9.87422  8.96907e-05  2.55928e-05      27.5441 
         -25      9.97083  8.97698e-05  2.57969e-05      27.5438 
         -25      10.0678  8.98442e-05  2.59659e-05      27.5435 
         -25      10.1654  8.99117e-05  2.61012e-05      27.5431 
         -25      10.2633  8.99708e-05  2.62062e-05      27.5428 
         -25      10.3618  9.00204e-05  2.62868e-05      27.5424 
         -25      10.4607  9.00599e-05  2.63505e-05      27.5421 
         -25      10.5601  9.00881e-05  2.64052e-05      27.5417 
         -25        10.66  9.01038e-05   2.6458e-05      27.5414 
         -25      10.7603  9.01043e-05  2.65141e-05       27.541 
         -25      10.8611  9.00854e-05  2.65745e-05      27.5406 
         -25      10.9623  9.00401e-05   2.6634e-05      27.5403 
         -25      11.0641  8.99584e-05  2.66786e-05      27.5399 
         -25      11.1663  8.99569e-05  2.67735e-05      27.5395 
         -25       11.269  9.01068e-05  2.68476e-05      27.5391 
         -25      11.3721  9.01709e-05  2.67727e-05      27.5387 
         -25      11.4757  9.01553e-05  2.66356e-05      27.5383 
         -25      11.5798  9.00708e-05  2.64975e-05      27.5379 
         -25      11.6844  8.99316e-05  2.63973e-05      27.5375 
         -25      11.7894  8.97529e-05   2.6353e-05      27.5371 
         -25       11.895  8.95504e-05  2.63647e-05      27.5367 
         -25      12.0009  8.93384e-05  2.64168e-05      27.5362 
         -25      12.1073  8.91276e-05  2.64811e-05      27.5358 
         -25      12.2142  8.89248e-05  2.65193e-05      27.5354 
         -25      12.3216    8.873e-05  2.64862e-05      27.5349 
         -25      12.4294  8.85366e-05  2.63329e-05      27.5345 
         -25      12.5378  8.83284e-05  2.60093e-05       27.534 
         -25      12.6465  8.80796e-05   2.5469e-05      27.5335 
         -25      12.7558  8.80393e-05  2.50563e-05      27.5331 
         -25      12.8656  8.84049e-05  2.51892e-05      27.5326 
         -25      12.9757  8.86077e-05  2.51728e-05      27.5321 
         -25      13.0864  8.86795e-05  2.50462e-05      27.5316 
         -25      13.1975  8.86532e-05  2.48447e-05      27.5311 
         -25      13.3092  8.85623e-05  2.45985e-05      27.5307 
         -25      13.4212  8.84388e-05  2.43331e-05      27.5301 
         -25      13.5338  8.83112e-05  2.40685e-05      27.5296 
         -25      13.6468  8.82033e-05  2.38206e-05      27.5291 
         -25      13.7603  8.81317e-05  2.36015e-05      27.5286 
         -25      13.8743  8.81041e-05  2.34203e-05      27.5281 
         -25      13.9886   8.8117e-05  2.32861e-05      27.5275 
         -25      14.1036  8.81541e-05  2.32092e-05       27.527 
         -25      14.2189  8.81834e-05  2.32047e-05      27.5265 
         -25      14.3348  8.81556e-05  2.32957e-05      27.5259 
         -25       14.451  8.80015e-05  2.35172e-05      27.5253 
         -25      14.5678  8.76294e-05  2.39217e-05      27.5248 
         -25      14.6851  8.75182e-05  2.39219e-05      27.5242 
         -25      14.8028  8.75357e-05   2.3772e-05      27.5236 
         -25       14.921  8.75155e-05  2.36673e-05       27.523 
         -25      15.0396  8.74717e-05  2.35852e-05      27.5224 
         -25      15.1588  8.74154e-05  2.35103e-05      27.5218 
         -25      15.2783  8.73551e-05  2.34338e-05      27.5212 
         -25      15.3984  8.72966e-05  2.33512e-05      27.5206 
         -25       15.519  8.72439e-05  2.32622e-05        27.52 
         -25        15.64   8.7199e-05   2.3169e-05      27.5194 
         -25      15.7615  8.71619e-05  2.30753e-05      27.5187 
         -25      15.8834  8.71317e-05  2.29859e-05      27.5181 
         -25      16.0058  8.71059e-05  2.29052e-05      27.5174 
         -25      16.1286  8.70812e-05  2.28372e-05      27.5168 
         -25       16.252  8.70536e-05  2.27846e-05      27.5161 
         -25      16.3759  8.70186e-05  2.27485e-05      27.5155 
         -25      16.5002  8.69711e-05  2.27282e-05      27.5148 
         -25       16.625  8.69061e-05  2.27212e-05      27.5141 
         -25      16.7501  8.68186e-05  2.27229e-05      27.5134 
         -25      16.8759  8.67036e-05  2.27279e-05      27.5127 
         -25       17.002  8.65565e-05  2.27294e-05       27.512 
         -25      17.1287   8.6373e-05   2.2721e-05      27.5113 
         -25      17.2557  8.61494e-05   2.2697e-05      27.5106 
         -25      17.3834  8.58821e-05  2.26541e-05      27.5098 
         -25      17.5115  8.55686e-05   2.2593e-05      27.5091 
         -25      17.6399   8.5207e-05  2.25202e-05      27.5084 
         -25       17.769  8.47949e-05  2.24501e-05      27.5076 
         -25      17.8984  8.46814e-05  2.22478e-05      27.5069 
         -25      18.0284  8.48647e-05  2.19566e-05      27.5061 
         -25      18.1587  8.50174e-05  2.17582e-05      27.5053 
         -25      18.2896  8.51407e-05  2.16696e-05      27.5045 
         -25       18.421  8.52362e-05   2.1692e-05      27.5038 
         -25      18.5528  8.53072e-05  2.18052e-05       27.503 
         -25      18.6851  8.53589e-05  2.19618e-05      27.5021 
         -25      18.8178  8.53987e-05  2.20798e-05      27.5013 
         -25      18.9511  8.54028e-05  2.23578e-05      27.5005 
         -25      19.0847  8.53239e-05  2.23705e-05      27.4997 
         -25      19.2189  8.51671e-05  2.20757e-05      27.4988 
         -25      19.3535  8.49478e-05  2.15787e-05       27.498 
         -25      19.4886  8.46915e-05  2.09717e-05      27.4972 
         -25      19.6242  8.45965e-05  2.06443e-05      27.4963 
         -25      19.7602  8.47158e-05  2.08937e-05      27.4954 
         -25      19.8968  8.47421e-05  2.11459e-05      27.4945 
         -25      20.0337  8.47027e-05  2.13676e-05      27.4937 
         -25      20.1712  8.46194e-05  2.15403e-05      27.4928 
         -25      20.3091  8.45091e-05  2.16564e-05      27.4919 
         -25      20.4475  8.43838e-05  2.17177e-05       27.491 
         -25      20.5864  8.42527e-05  2.17324e-05        27.49 
         -25      20.7257  8.41215e-05   2.1713e-05      27.4891 
         -25      20.8655  8.39936e-05  2.16744e-05      27.4882 
         -25      21.0058  8.38711e-05  2.16319e-05      27.4872 
         -25      21.1465  8.37542e-05  2.15996e-05      27.4863 
         -25      21.2877  8.36428e-05  2.15894e-05      27.4853 
         -25      21.4294  8.35361e-05  2.16096e-05      27.4843 
         -25      21.5716  8.34333e-05  2.16642e-05      27.4834 
         -25      21.7142   8.3334e-05  2.17527e-05      27.4824 
         -25      21.8573  8.32377e-05    2.187e-05      27.4814 
         -25      22.0008  8.31445e-05  2.20065e-05      27.4804 
         -25      22.1449  8.30549e-05  2.21491e-05      27.4794 
         -25      22.2893  8.29695e-05  2.22821e-05      27.4783 
         -25      22.4344   8.2889e-05  2.23892e-05      27.4773 
         -25      22.5797  8.28138e-05  2.24548e-05      27.4763 
         -25      22.7257  8.27432e-05  2.24678e-05      27.4752 
         -25      22.8721  8.26755e-05  2.24235e-05      27.4742 
         -25      23.0189  8.26067e-05  2.23284e-05      27.4731 
         -25      23.1663  8.25295e-05  2.22037e-05       27.472 
         -25       23.314  8.24328e-05  2.20908e-05      27.4709 
         -25      23.4623  8.22999e-05  2.20569e-05      27.4698 
         -25       23.611   8.2108e-05  2.22012e-05      27.4687 
         -25      23.7602  8.21023e-05  2.24919e-05      27.4676 
         -25        23.91  8.22677e-05  2.25996e-05      27.4665 
         -25        24.06  8.22964e-05  2.26222e-05      27.4654 
         -25      24.2107  8.22316e-05  2.25955e-05      27.4642 
         -25      24.3617  8.21088e-05  2.25443e-05      27.4631 
         -25      24.5133  8.19563e-05  2.24845e-05      27.4619 
         -25      24.6653  8.17962e-05  2.24248e-05      27.4608 
         -25      24.8178  8.16442e-05  2.23681e-05      27.4596 
         -25      24.9708  8.15115e-05  2.23132e-05      27.4584 
         -25      25.1242  8.14044e-05  2.22561e-05      27.4572 
         -25      25.2781  8.13249e-05  2.21909e-05       27.456 
         -25      25.4324  8.12721e-05  2.21117e-05      27.4548 
         -25      25.5873   8.1242e-05  2.20129e-05      27.4536 
         -25      25.7426  8.12288e-05  2.18908e-05      27.4523 
         -25      25.8984  8.12247e-05  2.17431e-05      27.4511 
         -25      26.0546  8.12212e-05  2.15709e-05      27.4498 
         -25      26.2114  8.12091e-05  2.13778e-05      27.4486 
         -25      26.3686  8.11795e-05  2.11708e-05      27.4473 
         -25      26.5262  8.11241e-05  2.09602e-05       27.446 
         -25      26.6844  8.10356e-05  2.07585e-05      27.4447 
         -25      26.8429  8.09083e-05  2.05812e-05      27.4434 
         -25       27.002  8.07386e-05  2.04446e-05      27.4421 
         -25      27.1615  8.05257e-05  2.03662e-05      27.4408 
         -25      27.3216  8.02709e-05   2.0362e-05      27.4395 
         -25      27.4821  7.99796e-05  2.04461e-05      27.4382 
         -25       27.643  7.96606e-05  2.06276e-05      27.4368 
         -25      27.8044  7.93259e-05  2.09097e-05      27.4354 
         -25      27.9663  7.89928e-05  2.12854e-05      27.4341 
         -25      28.1287  7.86818e-05  2.17367e-05      27.4327 
         -25      28.2914  7.84187e-05  2.22288e-05      27.4313 
         -25      28.4548  7.82334e-05  2.27089e-05      27.4299 
         -25      28.6185  7.81609e-05  2.30994e-05      27.4285 
         -25      28.7828   7.8288e-05  2.30106e-05      27.4271 
         -25      28.9475  7.86357e-05  2.20507e-05      27.4257 
         -25      29.1126  7.91853e-05  2.05506e-05      27.4243 
         -25      29.2784  7.90698e-05  2.05763e-05      27.4228 
         -25      29.4444  7.93326e-05  2.07667e-05      27.4214 
         -25       29.611  7.91835e-05  2.13901e-05      27.4199 
         -25       29.778   7.8824e-05  2.20001e-05      27.4184 
         -25      29.9456  7.85554e-05  2.23767e-05      27.4169 
         -25      30.1137  7.83562e-05  2.26157e-05      27.4155 
         -25      30.2821  7.82089e-05  2.27835e-05       27.414 
         -25      30.4511  7.80985e-05  2.29228e-05      27.4124 
         -25      30.6204  7.80133e-05  2.30564e-05      27.4109 
         -25      30.7903  7.79438e-05  2.31939e-05      27.4094 
         -25      30.9606  7.78826e-05  2.33342e-05      27.4078 
         -25      31.1315  7.78237e-05  2.34714e-05      27.4063 
         -25      31.3028  7.77629e-05  2.35963e-05      27.4047 
         -25      31.4745  7.76968e-05  2.37004e-05      27.4032 
         -25      31.6468  7.76228e-05   2.3778e-05      27.4016 
         -25      31.8194  7.75395e-05  2.38272e-05         27.4 
         -25      31.9926  7.74456e-05  2.38518e-05      27.3984 
         -25      32.1662  7.73408e-05  2.38605e-05      27.3968 
         -25      32.3404  7.72249e-05   2.3867e-05      27.3952 
         -25      32.5149   7.7099e-05  2.38883e-05      27.3935 
         -25        32.69  7.69643e-05  2.39429e-05      27.3919 
         -25      32.8655  7.68233e-05  2.40473e-05      27.3903 
         -25      33.0414    7.668e-05  2.42119e-05      27.3886 
         -25       33.218  7.65395e-05  2.44368e-05      27.3869 
         -25      33.3948  7.64092e-05  2.47044e-05      27.3853 
         -25      33.5723  7.62988e-05   2.4974e-05      27.3836 
         -25        33.75  7.62215e-05  2.51714e-05      27.3819 
         -25      33.9284  7.61941e-05  2.51816e-05      27.3802 
         -25      34.1073   7.6238e-05   2.4836e-05      27.3785 
         -25      34.2865    7.638e-05  2.39028e-05      27.3767 
         -25      34.4663  7.64667e-05  2.27958e-05       27.375 
         -25      34.6465  7.58837e-05  2.39432e-05      27.3732 
         -25      34.8272  7.53745e-05  2.46609e-05      27.3715 
         -25      35.0083  7.49432e-05  2.50346e-05      27.3697 
         -25        35.19  7.45907e-05   2.5147e-05      27.3679 
         -25      35.3721  7.43169e-05  2.50742e-05      27.3662 
         -25      35.5546  7.41196e-05   2.4886e-05      27.3644 
         -25      35.7377  7.39939e-05  2.46438e-05      27.3626 
         -25      35.9211  7.39332e-05  2.44005e-05      27.3608 
         -25      36.1052  7.39287e-05  2.41985e-05      27.3589 
         -25      36.2895  7.39695e-05    2.407e-05      27.3571 
         -25      36.4745  7.40432e-05   2.4035e-05      27.3553 
         -25      36.6598  7.41357e-05  2.41013e-05      27.3534 
         -25      36.8457  7.42321e-05   2.4264e-05      27.3515 
         -25      37.0321   7.4317e-05  2.45041e-05      27.3497 
         -25      37.2188   7.4375e-05  2.47886e-05      27.3478 
         -25      37.4062  7.43916e-05  2.50705e-05      27.3459 
         -25      37.5938  7.43538e-05  2.52876e-05       27.344 
         -25      37.7821  7.42516e-05  2.53632e-05      27.3421 
         -25      37.9707  7.40784e-05  2.52056e-05      27.3402 
         -25      38.1599  7.38323e-05  2.47081e-05      27.3383 
         -25      38.3496  7.35181e-05  2.37494e-05      27.3363 
         -25      38.5396  7.32673e-05  2.34663e-05      27.3344 
         -25      38.7302    7.319e-05  2.44711e-05      27.3324 
         -25      38.9211  7.31378e-05  2.51711e-05      27.3305 
         -25      39.1127  7.30958e-05  2.56084e-05      27.3285 
         -25      39.3046  7.30482e-05  2.58217e-05      27.3265 
         -25      39.4971    7.298e-05  2.58514e-05      27.3245 
         -25      39.6899  7.28785e-05  2.57397e-05      27.3225 
         -25      39.8833  7.27343e-05  2.55335e-05      27.3205 
         -25      40.0772  7.25438e-05  2.52873e-05      27.3185 
         -25      40.2714  7.23105e-05  2.50656e-05      27.3164 
         -25      40.4663  7.20466e-05  2.49454e-05      27.3144 
         -25      40.6615   7.1776e-05   2.5021e-05      27.3124 
         -25      40.8573  7.15354e-05  2.54065e-05      27.3103 
         -25      41.0534   7.1461e-05  2.56085e-05      27.3082 
         -25      41.2501  7.14549e-05  2.52002e-05      27.3062 
         -25      41.4473  7.13692e-05  2.49067e-05      27.3041 
         -25      41.6448  7.12352e-05  2.47094e-05       27.302 
         -25      41.8429  7.10772e-05  2.45907e-05      27.2999 
         -25      42.0414  7.09141e-05  2.45352e-05      27.2978 
         -25      42.2405  7.07593e-05  2.45282e-05      27.2957 
         -25      42.4399   7.0622e-05   2.4557e-05      27.2935 
         -25      42.6399  7.05071e-05  2.46101e-05      27.2914 
         -25      42.8404  7.04166e-05  2.46775e-05      27.2893 
         -25      43.0412  7.03495e-05  2.47507e-05      27.2871 
         -25      43.2426  7.03028e-05  2.48228e-05      27.2849 
         -25      43.4444  7.02719e-05  2.48878e-05      27.2828 
         -25      43.6467  7.02506e-05  2.49418e-05      27.2806 
         -25      43.8494  7.02327e-05  2.49817e-05      27.2784 
         -25      44.0527  7.02112e-05  2.50059e-05      27.2762 
         -25      44.2563  7.01793e-05  2.50141e-05       27.274 
         -25      44.4606  7.01309e-05   2.5007e-05      27.2718 
         -25      44.6653  7.00605e-05  2.49866e-05      27.2696 
         -25      44.8704  6.99637e-05  2.49557e-05      27.2673 
         -25       45.076  6.98372e-05  2.49182e-05      27.2651 
         -25       45.282  6.96796e-05  2.48786e-05      27.2629 
         -25      45.4886  6.94903e-05  2.48422e-05      27.2606 
         -25      45.6955  6.92713e-05  2.48148e-05      27.2584 
         -25       45.903   6.9025e-05  2.48025e-05      27.2561 
         -25      46.1111  6.87566e-05  2.48119e-05      27.2538 
         -25      46.3194  6.84722e-05  2.48492e-05      27.2515 
         -25      46.5283  6.81789e-05  2.49209e-05      27.2492 
         -25      46.7376  6.78856e-05  2.50328e-05      27.2469 
         -25      46.9475   6.7601e-05  2.51904e-05      27.2446 
         -25      47.1577  6.73352e-05  2.53982e-05      27.2423 
         -25      47.3685  6.70972e-05    2.566e-05        27.24 
         -25      47.5798   6.6896e-05  2.59778e-05      27.2376 
         -25      47.7914  6.67391e-05   2.6352e-05      27.2353 
         -25      48.0037  6.66278e-05  2.67179e-05       27.233 