Variables = x, y, u, v, p

Zone, I=800, F=POINT
         -70            0           -0           -0     -22.6336 
         -70     0.000234 -6.56142e-06 -7.97011e-10     -22.6336 
         -70     0.000939 -2.46352e-05 -2.98265e-09     -22.6336 
         -70     0.002113 -4.95605e-05  -5.9602e-09     -22.6336 
         -70     0.003759 -7.51661e-05 -8.92563e-09     -22.6336 
         -70     0.005872 -9.53259e-05 -1.10561e-08     -22.6336 
         -70     0.008457 -0.000105982 -1.17566e-08     -22.6336 
         -70      0.01151 -0.000106167 -1.07979e-08     -22.6336 
         -70     0.015036 -9.83562e-05 -8.37268e-09     -22.6336 
         -70     0.019031 -8.75422e-05 -5.01156e-09     -22.6336 
         -70     0.023493 -7.93051e-05 -1.36389e-09     -22.6336 
         -70     0.028429 -7.74242e-05  2.09536e-09     -22.6336 
         -70     0.033831 -8.19992e-05  5.30389e-09     -22.6336 
         -70     0.039706 -8.90674e-05  8.73857e-09     -22.6336 
         -70     0.046047 -9.26191e-05  1.32389e-08     -22.6336 
         -70     0.052863 -8.89987e-05  1.95725e-08     -22.6336 
         -70      0.06015  -8.1775e-05  2.77999e-08     -22.6336 
         -70       0.0679 -8.20658e-05  3.69439e-08     -22.6336 
         -70     0.076126 -9.41462e-05  4.59156e-08     -22.6336 
         -70     0.084816  -8.2833e-05  5.64793e-08     -22.6336 
         -70     0.093982 -8.81112e-05  7.06459e-08     -22.6336 
         -70     0.103611 -9.00305e-05  8.88435e-08     -22.6336 
         -70     0.113718 -9.03934e-05  1.08263e-07     -22.6336 
         -70     0.124286  -9.0483e-05  1.27443e-07     -22.6336 
         -70     0.135333 -9.10126e-05  1.46033e-07     -22.6336 
         -70      0.14685 -9.21643e-05   1.6397e-07     -22.6336 
         -70     0.158827 -9.37271e-05  1.80556e-07     -22.6336 
         -70     0.171284 -9.53252e-05  1.93448e-07     -22.6336 
         -70     0.184201 -9.66696e-05  1.97782e-07     -22.6336 
         -70     0.197599 -9.77873e-05  1.86227e-07     -22.6336 
         -70     0.211455 -9.90667e-05  1.50518e-07     -22.6336 
         -70     0.225792  -0.00010097  8.54695e-08     -22.6336 
         -70       0.2406 -0.000103127 -2.73456e-09     -22.6335 
         -70     0.255865 -0.000104186 -1.08323e-07     -22.6335 
         -70     0.271613 -0.000106036 -2.75898e-07     -22.6335 
         -70     0.287818 -0.000107777 -4.87534e-07     -22.6335 
         -70     0.304506 -0.000109435 -7.36296e-07     -22.6335 
         -70      0.32165 -0.000111029 -1.00932e-06     -22.6335 
         -70     0.339278 -0.000112577  -1.2897e-06     -22.6335 
         -70     0.357377  -0.00011409 -1.55569e-06     -22.6335 
         -70      0.37593 -0.000115578  -1.7825e-06     -22.6335 
         -70     0.394968 -0.000117051 -1.94434e-06     -22.6334 
         -70     0.414461 -0.000118512  -2.0153e-06     -22.6334 
         -70      0.43444 -0.000119968 -1.97266e-06     -22.6334 
         -70     0.454872 -0.000121419 -1.79956e-06     -22.6334 
         -70     0.475791  -0.00012287 -1.48794e-06     -22.6334 
         -70     0.497163 -0.000124318 -1.04354e-06     -22.6333 
         -70     0.519021 -0.000125758 -4.88018e-07     -22.6333 
         -70      0.54135 -0.000127173   1.3455e-07     -22.6333 
         -70     0.564131 -0.000128532  7.53901e-07     -22.6333 
         -70       0.5874 -0.000129781  1.27097e-06     -22.6332 
         -70     0.611121 -0.000130835  1.53645e-06     -22.6332 
         -70      0.63533 -0.000131736  1.46296e-06     -22.6332 
         -70      0.65999 -0.000132393  1.33066e-06     -22.6332 
         -70     0.685139 -0.000132845  1.15977e-06     -22.6331 
         -70     0.710759 -0.000133125  9.68717e-07     -22.6331 
         -70     0.736828 -0.000133258  7.73719e-07      -22.633 
         -70     0.763387 -0.000133264  5.88048e-07      -22.633 
         -70     0.790396 -0.000133157  4.22968e-07      -22.633 
         -70     0.817896 -0.000132946  2.86588e-07     -22.6329 
         -70     0.845843 -0.000132633  1.84834e-07     -22.6329 
         -70     0.874283 -0.000132218   1.2068e-07     -22.6328 
         -70      0.90317   -0.0001317  9.49185e-08     -22.6328 
         -70     0.932551 -0.000131073  1.05927e-07     -22.6327 
         -70     0.962401 -0.000130334  1.50123e-07     -22.6326 
         -70     0.992697 -0.000129482  2.22072e-07     -22.6326 
         -70      1.02349 -0.000128516  3.15113e-07     -22.6325 
         -70      1.05472 -0.000127442  4.21261e-07     -22.6324 
         -70      1.08645  -0.00012627  5.32165e-07     -22.6324 
         -70      1.11863 -0.000125016  6.38814e-07     -22.6323 
         -70       1.1513 -0.000123702  7.32573e-07     -22.6322 
         -70      1.18444 -0.000122357   8.0487e-07     -22.6321 
         -70      1.21802 -0.000121015  8.47755e-07     -22.6321 
         -70      1.25211 -0.000119709   8.5402e-07      -22.632 
         -70      1.28663 -0.000118475  8.16988e-07     -22.6319 
         -70      1.32165 -0.000117338   7.3026e-07     -22.6318 
         -70      1.35712 -0.000116315  5.87474e-07     -22.6317 
         -70      1.39308 -0.000115394  3.80887e-07     -22.6316 
         -70      1.42951 -0.000114535  1.00829e-07     -22.6315 
         -70      1.46638 -0.000113645 -2.66021e-07     -22.6314 
         -70      1.50375 -0.000112562 -7.40056e-07     -22.6312 
         -70      1.54156 -0.000112671 -6.52269e-07     -22.6311 
         -70      1.57987 -0.000111919 -5.29466e-07      -22.631 
         -70      1.61863 -0.000110413 -4.47537e-07     -22.6309 
         -70      1.65788  -0.00010838 -4.28667e-07     -22.6307 
         -70      1.69757 -0.000106024 -4.89282e-07     -22.6306 
         -70      1.73776 -0.000103518 -6.40074e-07     -22.6305 
         -70      1.77842  -0.00010101 -8.85956e-07     -22.6303 
         -70      1.81952 -9.86271e-05 -1.22608e-06     -22.6301 
         -70      1.86113 -9.64592e-05 -1.65533e-06       -22.63 
         -70      1.90316 -9.45808e-05 -2.16258e-06     -22.6298 
         -70      1.94571 -9.30347e-05 -2.73384e-06     -22.6297 
         -70      1.98869 -9.18464e-05 -3.34964e-06     -22.6295 
         -70      2.03217 -9.10159e-05 -3.98916e-06     -22.6293 
         -70      2.07612 -9.05267e-05 -4.62751e-06     -22.6291 
         -70      2.12051 -9.03444e-05 -5.23795e-06     -22.6289 
         -70       2.1654 -9.04202e-05 -5.79409e-06     -22.6287 
         -70      2.21073 -9.06935e-05 -6.26742e-06     -22.6285 
         -70      2.25656  -9.1096e-05 -6.63157e-06     -22.6283 
         -70      2.30283  -9.1553e-05 -6.86027e-06     -22.6281 
         -70       2.3496 -9.19887e-05 -6.93042e-06     -22.6278 
         -70      2.39685  -9.2328e-05 -6.82142e-06     -22.6276 
         -70      2.44452 -9.25002e-05 -6.51722e-06     -22.6274 
         -70      2.49271 -9.24432e-05 -6.00574e-06     -22.6271 
         -70      2.54132 -9.21058e-05 -5.28165e-06     -22.6269 
         -70      2.59044 -9.14502e-05 -4.34382e-06     -22.6266 
         -70         2.64 -9.04566e-05  -3.2004e-06     -22.6263 
         -70      2.69006 -8.91215e-05 -1.86327e-06     -22.6261 
         -70      2.74056  -8.7465e-05 -3.55496e-07     -22.6258 
         -70      2.79156  -8.5524e-05  1.29715e-06     -22.6255 
         -70      2.84304 -8.33602e-05  3.05838e-06     -22.6252 
         -70      2.89494 -8.10561e-05  4.88514e-06     -22.6249 
         -70      2.94735 -7.87066e-05  6.73332e-06     -22.6246 
         -70       3.0002 -7.64281e-05  8.54872e-06     -22.6242 
         -70      3.05355 -7.43392e-05  1.02805e-05     -22.6239 
         -70      3.10733 -7.25672e-05  1.18719e-05     -22.6235 
         -70      3.16163 -7.12266e-05  1.32742e-05     -22.6232 
         -70      3.21639 -7.04182e-05  1.44405e-05     -22.6228 
         -70      3.27158 -7.02087e-05   1.5335e-05     -22.6225 
         -70      3.32729 -7.06154e-05  1.59389e-05     -22.6221 
         -70      3.38342  -7.1586e-05  1.62521e-05     -22.6217 
         -70      3.44007 -7.29774e-05  1.63035e-05     -22.6213 
         -70      3.49714 -7.45224e-05  1.61568e-05     -22.6209 
         -70      3.55472 -7.58051e-05    1.592e-05     -22.6205 
         -70      3.61273 -7.62166e-05  1.57564e-05       -22.62 
         -70      3.67125  -7.4918e-05  1.58949e-05     -22.6196 
         -70      3.73025 -7.07892e-05  1.66444e-05     -22.6191 
         -70      3.78967   -6.861e-05  1.64043e-05     -22.6187 
         -70      3.84961 -6.86818e-05  1.58026e-05     -22.6182 
         -70      3.90996 -6.87671e-05  1.56378e-05     -22.6177 
         -70      3.97084 -6.88958e-05  1.58378e-05     -22.6172 
         -70      4.03214 -6.90794e-05  1.63553e-05     -22.6167 
         -70      4.09395 -6.93141e-05  1.71648e-05     -22.6162 
         -70      4.15624 -6.91533e-05  1.71768e-05     -22.6157 
         -70      4.21895 -6.88274e-05  1.64646e-05     -22.6152 
         -70      4.28217 -6.86147e-05  1.57109e-05     -22.6146 
         -70      4.34582 -6.84814e-05  1.49395e-05      -22.614 
         -70      4.40998  -6.8408e-05    1.418e-05     -22.6135 
         -70      4.47457 -6.83859e-05  1.34695e-05     -22.6129 
         -70      4.53968 -6.84138e-05  1.28431e-05     -22.6123 
         -70      4.60525 -6.84944e-05   1.2335e-05     -22.6117 
         -70      4.67125 -6.86312e-05   1.1973e-05      -22.611 
         -70      4.73777 -6.88265e-05  1.17751e-05     -22.6104 
         -70       4.8047 -6.90781e-05  1.17495e-05     -22.6097 
         -70      4.87216 -6.93794e-05  1.18915e-05     -22.6091 
         -70      4.94003 -6.97166e-05  1.21831e-05     -22.6084 
         -70      5.00843 -7.00706e-05  1.25944e-05     -22.6077 
         -70      5.07724 -7.04161e-05   1.3083e-05      -22.607 
         -70      5.14658 -7.07255e-05  1.35989e-05     -22.6063 
         -70      5.21639   -7.097e-05  1.40863e-05     -22.6056 
         -70      5.28661 -7.11257e-05  1.44902e-05     -22.6048 
         -70      5.35736 -7.11797e-05  1.47646e-05      -22.604 
         -70      5.42852 -7.11368e-05  1.48798e-05     -22.6033 
         -70      5.50021 -7.10303e-05  1.48352e-05     -22.6025 
         -70      5.57231 -7.09336e-05  1.46723e-05     -22.6017 
         -70      5.64493 -7.09739e-05  1.44911e-05     -22.6008 
         -70      5.71803 -7.13497e-05  1.44699e-05        -22.6 
         -70      5.79154 -7.23483e-05   1.4886e-05     -22.5992 
         -70      5.86558 -7.18645e-05  1.48687e-05     -22.5983 
         -70      5.94003 -6.96788e-05  1.41495e-05     -22.5974 
         -70      6.01501 -6.84714e-05   1.3916e-05     -22.5965 
         -70       6.0904  -6.7945e-05  1.39502e-05     -22.5956 
         -70      6.16632 -6.78607e-05  1.40863e-05     -22.5947 
         -70      6.24271 -6.80361e-05  1.42072e-05     -22.5937 
         -70       6.3195 -6.83353e-05  1.42406e-05     -22.5928 
         -70      6.39683 -6.86645e-05  1.41542e-05     -22.5918 
         -70      6.47457  -6.8963e-05  1.39496e-05     -22.5908 
         -70      6.55284 -6.91987e-05  1.36554e-05     -22.5898 
         -70      6.63152 -6.93607e-05   1.3321e-05     -22.5887 
         -70      6.71073 -6.94546e-05  1.30065e-05     -22.5877 
         -70      6.79034 -6.94972e-05  1.27753e-05     -22.5866 
         -70      6.87049 -6.95127e-05  1.26822e-05     -22.5855 
         -70      6.95111 -6.95291e-05  1.27631e-05     -22.5844 
         -70      7.03214 -6.95759e-05  1.30221e-05     -22.5833 
         -70       7.1137 -6.96837e-05  1.34181e-05     -22.5822 
         -70      7.19566 -6.98835e-05  1.38492e-05      -22.581 
         -70      7.27816 -7.02095e-05  1.41381e-05     -22.5798 
         -70      7.36106 -7.07011e-05  1.40129e-05     -22.5786 
         -70      7.44451 -7.14107e-05  1.30886e-05     -22.5774 
         -70      7.52842 -7.24082e-05  1.08466e-05     -22.5762 
         -70      7.61273 -7.18215e-05  1.18701e-05     -22.5749 
         -70      7.69758 -7.11759e-05  1.27306e-05     -22.5737 
         -70      7.78283 -7.07808e-05  1.29469e-05     -22.5724 
         -70      7.86862 -7.07853e-05  1.24568e-05     -22.5711 
         -70      7.95481 -7.12538e-05  1.22359e-05     -22.5698 
         -70      8.04155  -7.1366e-05  1.31295e-05     -22.5684 
         -70      8.12868 -7.11038e-05  1.34331e-05      -22.567 
         -70      8.21635 -7.07085e-05  1.33589e-05     -22.5657 
         -70      8.30449 -7.03151e-05  1.30482e-05     -22.5643 
         -70      8.39303 -6.99671e-05  1.25822e-05     -22.5628 
         -70      8.48211 -6.96654e-05  1.18489e-05     -22.5614 
         -70      8.57159 -6.98846e-05  9.03628e-06     -22.5599 
         -70      8.66161 -7.00547e-05  6.94482e-06     -22.5584 
         -70      8.75203 -7.01697e-05  5.60565e-06     -22.5569 
         -70      8.84299 -7.02207e-05  4.90114e-06     -22.5554 
         -70      8.93443 -7.01995e-05   4.6415e-06     -22.5538 
         -70      9.02626 -7.01031e-05  4.61759e-06     -22.5523 
         -70      9.11863 -6.99352e-05  4.64827e-06     -22.5507 
         -70      9.21139 -6.97085e-05  4.61297e-06     -22.5491 
         -70      9.30471 -6.94433e-05   4.4689e-06     -22.5474 
         -70      9.39841 -6.91672e-05  4.25222e-06     -22.5458 
         -70      9.49267 -6.89097e-05  4.05928e-06     -22.5441 
         -70      9.58739 -6.86986e-05  4.00918e-06     -22.5424 
         -70      9.68251 -6.85515e-05  4.18149e-06     -22.5407 
         -70      9.77817 -6.84661e-05  4.53093e-06     -22.5389 
         -70      9.87422  -6.8408e-05  4.77314e-06     -22.5372 
         -70      9.97083 -6.82959e-05  4.24291e-06     -22.5354 
         -70      10.0678 -6.79836e-05  1.72052e-06     -22.5336 
         -70      10.1654 -6.76634e-05 -6.11333e-07     -22.5317 
         -70      10.2633 -6.81252e-05  1.95274e-06     -22.5299 
         -70      10.3618 -6.87219e-05  2.99014e-06      -22.528 
         -70      10.4607 -6.93305e-05  3.03858e-06     -22.5261 
         -70      10.5601  -6.9844e-05   2.5181e-06     -22.5242 
         -70        10.66 -7.01737e-05  1.72448e-06     -22.5222 
         -70      10.7603 -7.02477e-05  8.31471e-07     -22.5203 
         -70      10.8611 -7.00136e-05 -1.14762e-07     -22.5183 
         -70      10.9623 -6.94392e-05 -1.19088e-06     -22.5162 
         -70      11.0641 -6.85107e-05 -2.60323e-06     -22.5142 
         -70      11.1663  -6.8163e-05  -3.9963e-06     -22.5121 
         -70       11.269 -6.86173e-05  -4.7925e-06     -22.5101 
         -70      11.3721 -6.88861e-05 -5.60815e-06      -22.508 
         -70      11.4757 -6.90222e-05 -6.50534e-06     -22.5058 
         -70      11.5798 -6.90761e-05 -7.51414e-06     -22.5037 
         -70      11.6844 -6.90912e-05 -8.63326e-06     -22.5015 
         -70      11.7894 -6.91009e-05 -9.84289e-06     -22.4993 
         -70       11.895 -6.91266e-05 -1.11049e-05     -22.4971 
         -70      12.0009 -6.91765e-05 -1.23715e-05     -22.4948 
         -70      12.1073 -6.92455e-05 -1.35943e-05     -22.4925 
         -70      12.2142  -6.9316e-05  -1.4723e-05     -22.4902 
         -70      12.3216 -6.93611e-05 -1.57184e-05     -22.4879 
         -70      12.4294 -6.93474e-05 -1.65503e-05     -22.4856 
         -70      12.5378 -6.92414e-05 -1.72085e-05     -22.4832 
         -70      12.6465 -6.90161e-05 -1.77014e-05     -22.4808 
         -70      12.7558 -6.86592e-05 -1.80639e-05     -22.4784 
         -70      12.8656 -6.81854e-05 -1.83575e-05     -22.4759 
         -70      12.9757 -6.76484e-05  -1.8674e-05     -22.4735 
         -70      13.0864 -6.71551e-05 -1.91376e-05      -22.471 
         -70      13.1975 -6.68851e-05 -1.99037e-05     -22.4684 
         -70      13.3092  -6.7109e-05 -2.11624e-05     -22.4659 
         -70      13.4212 -6.77989e-05 -2.17718e-05     -22.4633 
         -70      13.5338 -6.80217e-05  -2.1427e-05     -22.4608 
         -70      13.6468 -6.78962e-05 -2.10932e-05     -22.4581 
         -70      13.7603 -6.75576e-05 -2.08084e-05     -22.4555 
         -70      13.8743 -6.71102e-05 -2.06014e-05     -22.4528 
         -70      13.9886 -6.66325e-05 -2.04938e-05     -22.4501 
         -70      14.1036  -6.6179e-05 -2.04991e-05     -22.4474 
         -70      14.2189 -6.57854e-05 -2.06232e-05     -22.4447 
         -70      14.3348 -6.54694e-05 -2.08655e-05     -22.4419 
         -70       14.451 -6.52366e-05  -2.1218e-05     -22.4392 
         -70      14.5678 -6.50809e-05 -2.16683e-05     -22.4363 
         -70      14.6851 -6.49896e-05 -2.21977e-05     -22.4335 
         -70      14.8028 -6.49444e-05 -2.27831e-05     -22.4307 
         -70       14.921 -6.49248e-05 -2.33997e-05     -22.4278 
         -70      15.0396 -6.49104e-05 -2.40186e-05     -22.4249 
         -70      15.1588 -6.48826e-05 -2.46122e-05     -22.4219 
         -70      15.2783 -6.48267e-05 -2.51512e-05      -22.419 
         -70      15.3984 -6.47333e-05 -2.56104e-05      -22.416 
         -70       15.519 -6.45993e-05 -2.59668e-05      -22.413 
         -70        15.64 -6.44292e-05 -2.62038e-05       -22.41 
         -70      15.7615 -6.42347e-05 -2.63125e-05     -22.4069 
         -70      15.8834 -6.40359e-05  -2.6294e-05     -22.4038 
         -70      16.0058 -6.38594e-05 -2.61613e-05     -22.4007 
         -70      16.1286 -6.37385e-05 -2.59432e-05     -22.3976 
         -70       16.252 -6.37108e-05 -2.56854e-05     -22.3945 
         -70      16.3759 -6.38171e-05 -2.54554e-05     -22.3913 
         -70      16.5002 -6.40973e-05 -2.53446e-05     -22.3881 
         -70       16.625  -6.4589e-05  -2.5472e-05     -22.3849 
         -70      16.7501 -6.53205e-05 -2.59882e-05     -22.3816 
         -70      16.8759 -6.63099e-05 -2.70803e-05     -22.3783 
         -70       17.002 -6.75545e-05 -2.89728e-05     -22.3751 
         -70      17.1287 -6.90305e-05   -3.194e-05     -22.3717 
         -70      17.2557 -6.62545e-05 -3.06824e-05     -22.3684 
         -70      17.3834 -6.36204e-05 -2.91345e-05      -22.365 
         -70      17.5115 -6.20346e-05 -2.86225e-05     -22.3616 
         -70      17.6399 -6.18993e-05 -3.00604e-05     -22.3582 
         -70       17.769 -6.19087e-05 -3.03322e-05     -22.3548 
         -70      17.8984  -6.1885e-05 -3.12814e-05     -22.3513 
         -70      18.0284 -6.18618e-05 -3.28823e-05     -22.3479 
         -70      18.1587 -6.17991e-05 -3.48499e-05     -22.3444 
         -70      18.2896 -6.16625e-05 -3.69537e-05     -22.3408 
         -70       18.421 -6.14125e-05 -3.81461e-05     -22.3373 
         -70      18.5528 -6.11797e-05 -3.68578e-05     -22.3337 
         -70      18.6851 -6.10416e-05 -3.57531e-05     -22.3301 
         -70      18.8178 -6.09455e-05 -3.48397e-05     -22.3265 
         -70      18.9511  -6.0853e-05  -3.4114e-05     -22.3229 
         -70      19.0847 -6.07393e-05 -3.35687e-05     -22.3192 
         -70      19.2189 -6.05899e-05 -3.31888e-05     -22.3155 
         -70      19.3535 -6.03995e-05 -3.29567e-05     -22.3118 
         -70      19.4886 -6.01691e-05 -3.28509e-05     -22.3081 
         -70      19.6242 -5.99051e-05 -3.28486e-05     -22.3043 
         -70      19.7602 -5.96174e-05 -3.29255e-05     -22.3005 
         -70      19.8968  -5.9317e-05 -3.30579e-05     -22.2967 
         -70      20.0337 -5.90159e-05 -3.32226e-05     -22.2929 
         -70      20.1712 -5.87248e-05 -3.33988e-05     -22.2891 
         -70      20.3091 -5.84528e-05 -3.35673e-05     -22.2852 
         -70      20.4475 -5.82059e-05 -3.37129e-05     -22.2813 
         -70      20.5864 -5.79871e-05 -3.38232e-05     -22.2774 
         -70      20.7257 -5.77957e-05 -3.38901e-05     -22.2735 
         -70      20.8655 -5.76265e-05 -3.39098e-05     -22.2696 
         -70      21.0058 -5.74715e-05 -3.38824e-05     -22.2656 
         -70      21.1465 -5.73185e-05 -3.38124e-05     -22.2616 
         -70      21.2877 -5.71536e-05 -3.37084e-05     -22.2576 
         -70      21.4294 -5.69608e-05 -3.35823e-05     -22.2536 
         -70      21.5716 -5.67246e-05 -3.34492e-05     -22.2495 
         -70      21.7142 -5.64315e-05 -3.33267e-05     -22.2455 
         -70      21.8573 -5.60713e-05  -3.3233e-05     -22.2414 
         -70      22.0008 -5.56418e-05 -3.31869e-05     -22.2373 
         -70      22.1449 -5.51492e-05 -3.32057e-05     -22.2331 
         -70      22.2893 -5.46149e-05 -3.33033e-05      -22.229 
         -70      22.4344 -5.40762e-05 -3.34891e-05     -22.2248 
         -70      22.5797 -5.35942e-05 -3.37646e-05     -22.2206 
         -70      22.7257 -5.32558e-05 -3.41221e-05     -22.2164 
         -70      22.8721  -5.3346e-05 -3.42175e-05     -22.2122 
         -70      23.0189 -5.36209e-05 -3.41942e-05      -22.208 
         -70      23.1663 -5.37905e-05 -3.44033e-05     -22.2037 
         -70       23.314 -5.38627e-05 -3.47707e-05     -22.1994 
         -70      23.4623 -5.38467e-05 -3.52354e-05     -22.1951 
         -70       23.611 -5.37524e-05 -3.57464e-05     -22.1908 
         -70      23.7602 -5.35904e-05 -3.62643e-05     -22.1865 
         -70        23.91 -5.33724e-05 -3.67572e-05     -22.1821 
         -70        24.06 -5.31111e-05 -3.72013e-05     -22.1777 
         -70      24.2107 -5.28194e-05 -3.75805e-05     -22.1733 
         -70      24.3617 -5.25116e-05 -3.78832e-05     -22.1689 
         -70      24.5133 -5.22013e-05 -3.81031e-05     -22.1645 
         -70      24.6653 -5.19037e-05 -3.82372e-05     -22.1601 
         -70      24.8178 -5.16328e-05 -3.82855e-05     -22.1556 
         -70      24.9708 -5.14032e-05 -3.82492e-05     -22.1511 
         -70      25.1242 -5.12287e-05  -3.8131e-05     -22.1466 
         -70      25.2781 -5.11217e-05 -3.79329e-05     -22.1421 
         -70      25.4324 -5.10938e-05 -3.76569e-05     -22.1376 
         -70      25.5873 -5.11543e-05 -3.73027e-05     -22.1331 
         -70      25.7426   -5.131e-05 -3.68688e-05     -22.1285 
         -70      25.8984 -5.15651e-05 -3.63499e-05     -22.1239 
         -70      26.0546 -5.19193e-05 -3.57388e-05     -22.1193 
         -70      26.2114  -5.2369e-05 -3.50231e-05     -22.1147 
         -70      26.3686 -5.13067e-05 -3.59981e-05     -22.1101 
         -70      26.5262 -5.02331e-05 -3.69924e-05     -22.1055 
         -70      26.6844 -4.93499e-05 -3.77399e-05     -22.1008 
         -70      26.8429 -4.86266e-05  -3.8247e-05     -22.0962 
         -70       27.002 -4.80342e-05 -3.85305e-05     -22.0915 
         -70      27.1615 -4.75493e-05 -3.86135e-05     -22.0868 
         -70      27.3216 -4.71501e-05 -3.85262e-05     -22.0821 
         -70      27.4821 -4.68191e-05 -3.83036e-05     -22.0774 
         -70       27.643 -4.65415e-05 -3.79846e-05     -22.0726 
         -70      27.8044 -4.63043e-05 -3.76092e-05     -22.0679 
         -70      27.9663 -4.60977e-05 -3.72185e-05     -22.0631 
         -70      28.1287 -4.59132e-05 -3.68502e-05     -22.0583 
         -70      28.2914 -4.57443e-05 -3.65386e-05     -22.0536 
         -70      28.4548 -4.55853e-05 -3.63099e-05     -22.0488 
         -70      28.6185  -4.5432e-05 -3.61814e-05     -22.0439 
         -70      28.7828 -4.52801e-05 -3.61568e-05     -22.0391 
         -70      28.9475 -4.51255e-05 -3.62239e-05     -22.0343 
         -70      29.1126  -4.4964e-05 -3.63502e-05     -22.0294 
         -70      29.2784   -4.479e-05 -3.64801e-05     -22.0245 
         -70      29.4444  -4.4597e-05 -3.65296e-05     -22.0197 
         -70       29.611 -4.43762e-05 -3.63824e-05     -22.0148 
         -70       29.778  -4.4423e-05 -3.62417e-05     -22.0099 
         -70      29.9456 -4.52172e-05 -3.70786e-05      -22.005 
         -70      30.1137 -4.54483e-05 -3.75859e-05          -22 
         -70      30.2821 -4.52876e-05 -3.78226e-05     -21.9951 
         -70      30.4511 -4.48778e-05 -3.78437e-05     -21.9902 
         -70      30.6204 -4.43367e-05 -3.76997e-05     -21.9852 
         -70      30.7903 -4.37557e-05 -3.74369e-05     -21.9802 
         -70      30.9606 -4.32055e-05 -3.70982e-05     -21.9753 
         -70      31.1315 -4.27337e-05 -3.67213e-05     -21.9703 
         -70      31.3028 -4.23708e-05  -3.6341e-05     -21.9653 
         -70      31.4745 -4.21296e-05 -3.59876e-05     -21.9603 
         -70      31.6468 -4.20075e-05 -3.56867e-05     -21.9553 
         -70      31.8194 -4.19901e-05 -3.54604e-05     -21.9502 
         -70      31.9926  -4.2052e-05 -3.53255e-05     -21.9452 
         -70      32.1662 -4.21603e-05 -3.52949e-05     -21.9401 
         -70      32.3404 -4.22763e-05 -3.53764e-05     -21.9351 
         -70      32.5149 -4.23587e-05 -3.55726e-05       -21.93 
         -70        32.69  -4.2366e-05 -3.58814e-05      -21.925 
         -70      32.8655 -4.22593e-05 -3.62945e-05     -21.9199 
         -70      33.0414 -4.20054e-05 -3.67972e-05     -21.9148 
         -70       33.218 -4.15795e-05 -3.73699e-05     -21.9097 
         -70      33.3948 -4.09693e-05 -3.79844e-05     -21.9046 
         -70      33.5723 -4.01761e-05 -3.86069e-05     -21.8995 
         -70        33.75 -3.92216e-05  -3.9194e-05     -21.8944 
         -70      33.9284 -3.81469e-05 -3.96957e-05     -21.8892 
         -70      34.1073 -3.70206e-05 -4.00514e-05     -21.8841 
         -70      34.2865 -3.59408e-05 -4.01912e-05      -21.879 
         -70      34.4663  -3.5036e-05  -4.0035e-05     -21.8738 
         -70      34.6465 -3.44749e-05 -3.94913e-05     -21.8687 
         -70      34.8272 -3.44648e-05 -3.84553e-05     -21.8635 
         -70      35.0083 -3.78642e-05 -3.93949e-05     -21.8583 
         -70        35.19 -4.19123e-05 -4.11702e-05     -21.8532 
         -70      35.3721 -4.06899e-05 -3.96636e-05      -21.848 
         -70      35.5546 -3.95198e-05 -3.85946e-05     -21.8428 
         -70      35.7377  -3.8455e-05 -3.78293e-05     -21.8376 
         -70      35.9211 -3.75317e-05 -3.72667e-05     -21.8324 
         -70      36.1052 -3.67661e-05 -3.68304e-05     -21.8272 
         -70      36.2895 -3.61627e-05  -3.6468e-05      -21.822 
         -70      36.4745  -3.5713e-05 -3.61446e-05     -21.8168 
         -70      36.6598 -3.54015e-05  -3.5842e-05     -21.8116 
         -70      36.8457 -3.52055e-05 -3.55528e-05     -21.8063 
         -70      37.0321 -3.50996e-05 -3.52796e-05     -21.8011 
         -70      37.2188 -3.50564e-05  -3.5031e-05     -21.7959 
         -70      37.4062 -3.50489e-05 -3.48188e-05     -21.7906 
         -70      37.5938 -3.50522e-05 -3.46566e-05     -21.7854 
         -70      37.7821 -3.50445e-05  -3.4557e-05     -21.7802 
         -70      37.9707 -3.50087e-05 -3.45302e-05     -21.7749 
         -70      38.1599  -3.4933e-05 -3.45824e-05     -21.7697 
         -70      38.3496 -3.48111e-05 -3.47151e-05     -21.7644 
         -70      38.5396 -3.46433e-05 -3.49236e-05     -21.7592 
         -70      38.7302 -3.44351e-05 -3.51979e-05     -21.7539 
         -70      38.9211  -3.4198e-05 -3.55212e-05     -21.7486 
         -70      39.1127 -3.39474e-05  -3.5872e-05     -21.7434 
         -70      39.3046 -3.37025e-05 -3.62235e-05     -21.7381 
         -70      39.4971 -3.34835e-05 -3.65463e-05     -21.7328 
         -70      39.6899 -3.33108e-05 -3.68091e-05     -21.7276 
         -70      39.8833  -3.3201e-05 -3.69823e-05     -21.7223 
         -70      40.0772 -3.31649e-05 -3.70396e-05      -21.717 
         -70      40.2714 -3.32038e-05 -3.69626e-05     -21.7117 
         -70      40.4663 -3.33051e-05 -3.67439e-05     -21.7064 
         -70      40.6615 -3.34378e-05 -3.63929e-05     -21.7012 
         -70      40.8573 -3.35481e-05 -3.59394e-05     -21.6959 
         -70      41.0534 -3.35525e-05 -3.54421e-05     -21.6906 
         -70      41.2501 -3.33323e-05 -3.49918e-05     -21.6853 
         -70      41.4473 -3.27262e-05 -3.47222e-05       -21.68 
         -70      41.6448 -3.15243e-05  -3.4816e-05     -21.6747 
         -70      41.8429 -2.97869e-05 -3.38008e-05     -21.6694 
         -70      42.0414 -2.92313e-05 -3.29013e-05     -21.6642 
         -70      42.2405 -2.92964e-05 -3.34803e-05     -21.6589 
         -70      42.4399  -2.9499e-05 -3.39418e-05     -21.6536 
         -70      42.6399   -2.977e-05 -3.42906e-05     -21.6483 
         -70      42.8404 -3.00539e-05 -3.45322e-05      -21.643 
         -70      43.0412 -3.03079e-05 -3.46744e-05     -21.6377 
         -70      43.2426 -3.05014e-05 -3.47269e-05     -21.6324 
         -70      43.4444 -3.06131e-05 -3.47004e-05     -21.6271 
         -70      43.6467 -3.06313e-05 -3.46061e-05     -21.6218 
         -70      43.8494 -3.05518e-05 -3.44563e-05     -21.6165 
         -70      44.0527 -3.03766e-05  -3.4263e-05     -21.6113 
         -70      44.2563 -3.01137e-05 -3.40388e-05      -21.606 
         -70      44.4606 -2.97747e-05 -3.37953e-05     -21.6007 
         -70      44.6653 -2.93751e-05 -3.35439e-05     -21.5954 
         -70      44.8704 -2.89326e-05 -3.32955e-05     -21.5901 
         -70       45.076 -2.84655e-05 -3.30593e-05     -21.5848 
         -70       45.282 -2.79938e-05 -3.28441e-05     -21.5796 
         -70      45.4886 -2.75357e-05 -3.26567e-05     -21.5743 
         -70      45.6955 -2.71099e-05 -3.25029e-05      -21.569 
         -70       45.903 -2.67319e-05 -3.23866e-05     -21.5637 
         -70      46.1111 -2.64158e-05   -3.231e-05     -21.5585 
         -70      46.3194 -2.61811e-05 -3.22663e-05     -21.5532 
         -70      46.5283 -2.60696e-05 -3.22279e-05     -21.5479 
         -70      46.7376 -2.60419e-05 -3.22295e-05     -21.5426 
         -70      46.9475 -2.60905e-05 -3.22643e-05     -21.5374 
         -70      47.1577 -2.62046e-05 -3.23243e-05     -21.5321 
         -70      47.3685 -2.63701e-05 -3.24003e-05     -21.5269 
         -70      47.5798 -2.65699e-05  -3.2482e-05     -21.5216 
         -70      47.7914 -2.67843e-05 -3.25583e-05     -21.5164 
         -70      48.0037 -2.69927e-05 -3.26182e-05     -21.5111 