Variables = x, y, u, v, p

Zone, I=800, F=POINT
          20            0           -0           -0     -65.5838 
          20     0.000234 -1.13583e-06 -1.13428e-09     -65.5838 
          20     0.000939 -4.16688e-06 -4.15018e-09     -65.5838 
          20     0.002113 -8.04083e-06 -7.91266e-09     -65.5838 
          20     0.003759   -1.142e-05 -1.07925e-08     -65.5838 
          20     0.005872 -1.31184e-05 -1.09382e-08     -65.5838 
          20     0.008457 -1.25747e-05 -6.60823e-09     -65.5838 
          20      0.01151 -1.00909e-05  3.59873e-09     -65.5838 
          20     0.015036 -6.79692e-06  2.06785e-08     -65.5838 
          20     0.019031 -4.29031e-06  4.52446e-08     -65.5838 
          20     0.023493 -3.99028e-06  7.77975e-08     -65.5838 
          20     0.028429 -6.45639e-06  1.19122e-07     -65.5838 
          20     0.033831 -1.09416e-05   1.7036e-07     -65.5838 
          20     0.039706 -1.55427e-05  2.33317e-07     -65.5838 
          20     0.046047 -1.81228e-05  3.09887e-07     -65.5838 
          20     0.052863 -1.79477e-05  4.01724e-07     -65.5838 
          20      0.06015 -1.71742e-05  5.09116e-07     -65.5838 
          20       0.0679 -2.02731e-05  6.30845e-07     -65.5838 
          20     0.076126 -2.76179e-05  7.66385e-07     -65.5838 
          20     0.084816  -2.3562e-05  9.19821e-07     -65.5838 
          20     0.093982  -2.9107e-05   1.0871e-06     -65.5838 
          20     0.103611 -3.26099e-05  1.26943e-06     -65.5838 
          20     0.113718 -3.51478e-05  1.46635e-06     -65.5838 
          20     0.124286 -3.74655e-05  1.67667e-06     -65.5838 
          20     0.135333 -3.99626e-05   1.8998e-06     -65.5838 
          20      0.14685  -4.2706e-05  2.13459e-06     -65.5838 
          20     0.158827 -4.55251e-05  2.37985e-06     -65.5838 
          20     0.171284 -4.81603e-05  2.63509e-06     -65.5838 
          20     0.184201 -5.04109e-05  2.89906e-06     -65.5838 
          20     0.197599 -5.22885e-05   3.1714e-06     -65.5838 
          20     0.211455 -5.40347e-05  3.45098e-06     -65.5838 
          20     0.225792 -5.59458e-05   3.7376e-06     -65.5838 
          20       0.2406 -5.77946e-05  4.03043e-06     -65.5838 
          20     0.255865 -5.87207e-05  4.32915e-06     -65.5838 
          20     0.271613 -5.99305e-05  4.63368e-06     -65.5838 
          20     0.287818 -6.09095e-05   4.9427e-06     -65.5838 
          20     0.304506 -6.16816e-05  5.25719e-06     -65.5838 
          20      0.32165 -6.22689e-05  5.57698e-06     -65.5838 
          20     0.339278 -6.26971e-05  5.90282e-06     -65.5837 
          20     0.357377  -6.2993e-05  6.23443e-06     -65.5837 
          20      0.37593 -6.31828e-05  6.57138e-06     -65.5837 
          20     0.394968 -6.32819e-05  6.91415e-06     -65.5837 
          20     0.414461 -6.33154e-05  7.26141e-06     -65.5837 
          20      0.43444 -6.33073e-05  7.61272e-06     -65.5837 
          20     0.454872   -6.328e-05  7.96628e-06     -65.5837 
          20     0.475791 -6.32528e-05  8.32129e-06     -65.5836 
          20     0.497163 -6.32418e-05  8.67566e-06     -65.5836 
          20     0.519021 -6.32582e-05  9.02838e-06     -65.5836 
          20      0.54135  -6.3308e-05  9.37761e-06     -65.5836 
          20     0.564131  -6.3391e-05  9.72161e-06     -65.5836 
          20       0.5874    -6.35e-05  1.00597e-05     -65.5835 
          20     0.611121 -6.36203e-05  1.03904e-05     -65.5835 
          20      0.63533 -6.37297e-05  1.07137e-05     -65.5835 
          20      0.65999 -6.37972e-05  1.10293e-05     -65.5835 
          20     0.685139 -6.37845e-05  1.13384e-05     -65.5834 
          20     0.710759 -6.36455e-05  1.16425e-05     -65.5834 
          20     0.736828  -6.3359e-05  1.19445e-05     -65.5834 
          20     0.763387  -6.2897e-05  1.22454e-05     -65.5833 
          20     0.790396 -6.22306e-05  1.25479e-05     -65.5833 
          20     0.817896 -6.13449e-05  1.28544e-05     -65.5833 
          20     0.845843 -6.02382e-05  1.31654e-05     -65.5832 
          20     0.874283 -5.89151e-05  1.34812e-05     -65.5832 
          20      0.90317 -5.73924e-05   1.3801e-05     -65.5832 
          20     0.932551 -5.56886e-05  1.41242e-05     -65.5831 
          20     0.962401 -5.38306e-05  1.44496e-05     -65.5831 
          20     0.992697 -5.18468e-05   1.4776e-05      -65.583 
          20      1.02349 -4.97624e-05  1.51027e-05      -65.583 
          20      1.05472 -4.76114e-05   1.5426e-05     -65.5829 
          20      1.08645 -4.54174e-05   1.5744e-05     -65.5829 
          20      1.11863 -4.32064e-05  1.60538e-05     -65.5828 
          20       1.1513 -4.09903e-05   1.6354e-05     -65.5827 
          20      1.18444 -3.87913e-05  1.66415e-05     -65.5827 
          20      1.21802 -3.66209e-05  1.69131e-05     -65.5826 
          20      1.25211 -3.44783e-05  1.71698e-05     -65.5825 
          20      1.28663 -3.23774e-05  1.74099e-05     -65.5825 
          20      1.32165 -3.03208e-05  1.76321e-05     -65.5824 
          20      1.35712 -2.83147e-05  1.78343e-05     -65.5823 
          20      1.39308 -2.63566e-05  1.80155e-05     -65.5822 
          20      1.42951 -2.44478e-05  1.81747e-05     -65.5821 
          20      1.46638 -2.25894e-05  1.83115e-05     -65.5821 
          20      1.50375 -2.07781e-05  1.84261e-05      -65.582 
          20      1.54156 -1.90176e-05  1.85179e-05     -65.5819 
          20      1.57987 -1.73066e-05  1.85857e-05     -65.5818 
          20      1.61863 -1.56471e-05  1.86283e-05     -65.5817 
          20      1.65788 -1.40326e-05  1.86493e-05     -65.5816 
          20      1.69757 -1.24646e-05  1.86438e-05     -65.5815 
          20      1.73776  -1.0935e-05  1.86153e-05     -65.5814 
          20      1.77842 -9.45282e-06  1.85617e-05     -65.5813 
          20      1.81952  -7.9982e-06  1.84867e-05     -65.5811 
          20      1.86113  -6.5679e-06  1.83911e-05      -65.581 
          20      1.90316 -5.16338e-06  1.82747e-05     -65.5809 
          20      1.94571 -3.77259e-06  1.81393e-05     -65.5808 
          20      1.98869 -2.38158e-06  1.79889e-05     -65.5806 
          20      2.03217  -9.6785e-07  1.78281e-05     -65.5805 
          20      2.07612  4.88151e-07  1.76604e-05     -65.5804 
          20      2.12051  2.00976e-06  1.74883e-05     -65.5802 
          20       2.1654  3.62475e-06  1.73207e-05     -65.5801 
          20      2.21073   5.3454e-06  1.71602e-05     -65.5799 
          20      2.25656  7.18218e-06  1.70074e-05     -65.5798 
          20      2.30283  9.13073e-06  1.68615e-05     -65.5796 
          20       2.3496  1.11811e-05  1.67189e-05     -65.5795 
          20      2.39685  1.33048e-05  1.65732e-05     -65.5793 
          20      2.44452  1.54571e-05  1.64147e-05     -65.5791 
          20      2.49271  1.75717e-05  1.62288e-05     -65.5789 
          20      2.54132  1.95727e-05  1.60011e-05     -65.5788 
          20      2.59044  2.14319e-05  1.57191e-05     -65.5786 
          20         2.64  2.30762e-05  1.53714e-05     -65.5784 
          20      2.69006  2.44571e-05  1.49489e-05     -65.5782 
          20      2.74056  2.55402e-05  1.44471e-05      -65.578 
          20      2.79156  2.62932e-05  1.38715e-05     -65.5778 
          20      2.84304  2.67256e-05  1.32195e-05     -65.5776 
          20      2.89494  2.68478e-05   1.2492e-05     -65.5774 
          20      2.94735  2.66772e-05  1.16916e-05     -65.5772 
          20       3.0002  2.62395e-05  1.08262e-05      -65.577 
          20      3.05355  2.55665e-05  9.90374e-06     -65.5767 
          20      3.10733   2.4697e-05   8.9368e-06     -65.5765 
          20      3.16163  2.36706e-05    7.936e-06     -65.5763 
          20      3.21639  2.25302e-05  6.91324e-06     -65.5761 
          20      3.27158  2.13168e-05  5.87695e-06     -65.5758 
          20      3.32729  2.00633e-05  4.82601e-06     -65.5756 
          20      3.38342  1.87977e-05   3.7512e-06     -65.5753 
          20      3.44007  1.75666e-05  2.70778e-06     -65.5751 
          20      3.49714  1.63498e-05   1.6508e-06     -65.5748 
          20      3.55472  1.51743e-05  5.99065e-07     -65.5746 
          20      3.61273  1.40637e-05 -4.31909e-07     -65.5743 
          20      3.67125  1.30247e-05 -1.44505e-06      -65.574 
          20      3.73025  1.20577e-05 -2.44767e-06     -65.5738 
          20      3.78967  1.11571e-05 -3.44697e-06     -65.5735 
          20      3.84961  1.03134e-05  -4.4476e-06     -65.5732 
          20      3.90996  9.51953e-06  -5.4436e-06     -65.5729 
          20      3.97084  8.76776e-06 -6.42523e-06     -65.5726 
          20      4.03214  8.05496e-06 -7.37639e-06     -65.5723 
          20      4.09395  7.37716e-06 -8.28848e-06      -65.572 
          20      4.15624   6.7314e-06 -9.16737e-06     -65.5717 
          20      4.21895  6.08751e-06 -1.00965e-05     -65.5714 
          20      4.28217  5.48464e-06 -1.09726e-05     -65.5711 
          20      4.34582  4.98616e-06 -1.17846e-05     -65.5708 
          20      4.40998  4.48728e-06 -1.26117e-05     -65.5705 
          20      4.47457  4.01286e-06 -1.34189e-05     -65.5701 
          20      4.53968  3.57107e-06 -1.41915e-05     -65.5698 
          20      4.60525  3.16085e-06 -1.49248e-05     -65.5695 
          20      4.67125  2.77491e-06 -1.56213e-05     -65.5691 
          20      4.73777  2.40275e-06 -1.62877e-05     -65.5688 
          20       4.8047  2.03577e-06 -1.69277e-05     -65.5685 
          20      4.87216  1.66719e-06 -1.75441e-05     -65.5681 
          20      4.94003  1.29565e-06 -1.81334e-05     -65.5678 
          20      5.00843  9.22937e-07 -1.86902e-05     -65.5674 
          20      5.07724  5.55209e-07 -1.92055e-05      -65.567 
          20      5.14658  1.97806e-07 -1.96743e-05     -65.5667 
          20      5.21639 -1.47098e-07 -2.00988e-05     -65.5663 
          20      5.28661 -4.87876e-07 -2.04989e-05     -65.5659 
          20      5.35736 -8.52836e-07 -2.09241e-05     -65.5656 
          20      5.42852 -1.14989e-06 -2.13362e-05     -65.5652 
          20      5.50021 -1.38099e-06 -2.16801e-05     -65.5648 
          20      5.57231 -1.65058e-06 -2.19964e-05     -65.5644 
          20      5.64493 -1.94545e-06  -2.2321e-05      -65.564 
          20      5.71803 -2.26324e-06  -2.2647e-05     -65.5636 
          20      5.79154 -2.54574e-06 -2.29762e-05     -65.5632 
          20      5.86558 -2.79815e-06 -2.33059e-05     -65.5628 
          20      5.94003 -3.02355e-06 -2.36329e-05     -65.5624 
          20      6.01501 -3.22541e-06 -2.39558e-05      -65.562 
          20       6.0904 -3.40672e-06 -2.42731e-05     -65.5616 
          20      6.16632 -3.57176e-06 -2.45851e-05     -65.5612 
          20      6.24271 -3.72501e-06 -2.48922e-05     -65.5608 
          20       6.3195 -3.87143e-06  -2.5195e-05     -65.5604 
          20      6.39683 -4.01606e-06 -2.54946e-05       -65.56 
          20      6.47457 -4.16204e-06 -2.57903e-05     -65.5595 
          20      6.55284 -4.31003e-06 -2.60798e-05     -65.5591 
          20      6.63152 -4.45498e-06 -2.63566e-05     -65.5587 
          20      6.71073 -4.58437e-06 -2.66096e-05     -65.5582 
          20      6.79034 -4.67385e-06 -2.68198e-05     -65.5578 
          20      6.87049  -4.8545e-06 -2.70587e-05     -65.5574 
          20      6.95111 -5.02778e-06 -2.72416e-05     -65.5569 
          20      7.03214 -5.19394e-06 -2.73976e-05     -65.5565 
          20       7.1137 -5.36324e-06 -2.75423e-05      -65.556 
          20      7.19566 -5.53806e-06 -2.76729e-05     -65.5556 
          20      7.27816 -5.71633e-06 -2.77805e-05     -65.5551 
          20      7.36106 -5.89099e-06 -2.78586e-05     -65.5546 
          20      7.44451 -6.07154e-06 -2.79328e-05     -65.5542 
          20      7.52842 -6.22881e-06 -2.79985e-05     -65.5537 
          20      7.61273 -6.35132e-06 -2.80403e-05     -65.5532 
          20      7.69758 -6.44515e-06 -2.80629e-05     -65.5528 
          20      7.78283  -6.5201e-06 -2.80761e-05     -65.5523 
          20      7.86862 -6.58764e-06 -2.80893e-05     -65.5518 
          20      7.95481 -6.65622e-06 -2.81073e-05     -65.5513 
          20      8.04155 -6.72583e-06 -2.81276e-05     -65.5509 
          20      8.12868 -6.77991e-06 -2.81395e-05     -65.5504 
          20      8.21635  -6.7566e-06 -2.81307e-05     -65.5499 
          20      8.30449 -6.72837e-06 -2.81005e-05     -65.5494 
          20      8.39303 -6.72438e-06 -2.80542e-05     -65.5489 
          20      8.48211 -6.72994e-06  -2.7998e-05     -65.5484 
          20      8.57159 -6.73584e-06 -2.79363e-05     -65.5479 
          20      8.66161 -6.73722e-06 -2.78712e-05     -65.5474 
          20      8.75203 -6.73256e-06 -2.78032e-05     -65.5469 
          20      8.84299 -6.72264e-06 -2.77305e-05     -65.5464 
          20      8.93443 -6.70973e-06 -2.76501e-05     -65.5459 
          20      9.02626 -6.69682e-06 -2.75581e-05     -65.5454 
          20      9.11863 -6.68691e-06 -2.74501e-05     -65.5449 
          20      9.21139  -6.6826e-06 -2.73231e-05     -65.5444 
          20      9.30471 -6.68568e-06 -2.71753e-05     -65.5438 
          20      9.39841 -6.69702e-06 -2.70089e-05     -65.5433 
          20      9.49267 -6.71664e-06 -2.68307e-05     -65.5428 
          20      9.58739 -6.74393e-06  -2.6655e-05     -65.5423 
          20      9.68251 -6.77821e-06 -2.65057e-05     -65.5417 
          20      9.77817  -6.8196e-06 -2.64183e-05     -65.5412 
          20      9.87422 -6.83029e-06 -2.63284e-05     -65.5407 
          20      9.97083 -6.86367e-06 -2.61022e-05     -65.5401 
          20      10.0678 -7.02922e-06 -2.57252e-05     -65.5396 
          20      10.1654 -7.02273e-06 -2.57273e-05     -65.5391 
          20      10.2633 -6.99487e-06 -2.57221e-05     -65.5385 
          20      10.3618 -6.99802e-06 -2.56098e-05      -65.538 
          20      10.4607 -7.00786e-06 -2.54425e-05     -65.5374 
          20      10.5601 -7.01163e-06 -2.52561e-05     -65.5369 
          20        10.66 -7.00624e-06 -2.50723e-05     -65.5363 
          20      10.7603 -6.95345e-06 -2.49529e-05     -65.5358 
          20      10.8611 -6.86213e-06  -2.4854e-05     -65.5352 
          20      10.9623  -6.7572e-06 -2.47518e-05     -65.5346 
          20      11.0641 -6.64925e-06 -2.46466e-05     -65.5341 
          20      11.1663  -6.5479e-06 -2.45397e-05     -65.5335 
          20       11.269 -6.46098e-06 -2.44326e-05     -65.5329 
          20      11.3721 -6.39397e-06 -2.43261e-05     -65.5324 
          20      11.4757 -6.35016e-06 -2.42207e-05     -65.5318 
          20      11.5798 -6.33008e-06 -2.41162e-05     -65.5312 
          20      11.6844 -6.33174e-06 -2.40123e-05     -65.5306 
          20      11.7894 -6.35066e-06 -2.39084e-05       -65.53 
          20       11.895 -6.38017e-06 -2.38048e-05     -65.5295 
          20      12.0009 -6.41186e-06 -2.37035e-05     -65.5289 
          20      12.1073 -6.43641e-06 -2.36089e-05     -65.5283 
          20      12.2142 -6.44426e-06 -2.35302e-05     -65.5277 
          20      12.3216 -6.42689e-06 -2.34824e-05     -65.5271 
          20      12.4294 -6.37813e-06 -2.34891e-05     -65.5265 
          20      12.5378 -6.34575e-06  -2.3407e-05     -65.5259 
          20      12.6465 -6.31681e-06 -2.33125e-05     -65.5253 
          20      12.7558 -6.29491e-06 -2.32408e-05     -65.5247 
          20      12.8656 -6.29142e-06 -2.31791e-05     -65.5241 
          20      12.9757  -6.3108e-06 -2.31194e-05     -65.5234 
          20      13.0864 -6.35237e-06 -2.30584e-05     -65.5228 
          20      13.1975 -6.41156e-06 -2.29973e-05     -65.5222 
          20      13.3092 -6.48152e-06 -2.29407e-05     -65.5216 
          20      13.4212 -6.55394e-06 -2.28964e-05     -65.5209 
          20      13.5338 -6.62035e-06 -2.28745e-05     -65.5203 
          20      13.6468 -6.67254e-06 -2.28859e-05     -65.5197 
          20      13.7603 -6.70888e-06 -2.27446e-05      -65.519 
          20      13.8743 -6.73718e-06   -2.268e-05     -65.5184 
          20      13.9886 -6.75422e-06 -2.26742e-05     -65.5178 
          20      14.1036 -6.75419e-06 -2.26848e-05     -65.5171 
          20      14.2189 -6.72981e-06  -2.2686e-05     -65.5165 
          20      14.3348 -6.67525e-06 -2.26682e-05     -65.5158 
          20       14.451 -6.59144e-06 -2.26357e-05     -65.5151 
          20      14.5678 -6.49326e-06 -2.25999e-05     -65.5145 
          20      14.6851 -6.41995e-06 -2.25709e-05     -65.5138 
          20      14.8028 -6.44763e-06  -2.2543e-05     -65.5132 
          20       14.921 -6.63171e-06 -2.24371e-05     -65.5125 
          20      15.0396 -6.72482e-06 -2.22071e-05     -65.5118 
          20      15.1588 -6.73657e-06 -2.20047e-05     -65.5111 
          20      15.2783 -6.70761e-06 -2.18846e-05     -65.5104 
          20      15.3984 -6.66682e-06 -2.18139e-05     -65.5098 
          20       15.519 -6.63485e-06 -2.16958e-05     -65.5091 
          20        15.64 -6.62698e-06 -2.13932e-05     -65.5084 
          20      15.7615 -6.45616e-06 -2.13314e-05     -65.5077 
          20      15.8834 -6.30496e-06 -2.12584e-05      -65.507 
          20      16.0058 -6.20483e-06 -2.11406e-05     -65.5063 
          20      16.1286 -6.15169e-06  -2.1006e-05     -65.5056 
          20       16.252  -6.1374e-06 -2.08733e-05     -65.5049 
          20      16.3759 -6.15104e-06 -2.07547e-05     -65.5041 
          20      16.5002 -6.17975e-06 -2.06558e-05     -65.5034 
          20       16.625 -6.21021e-06 -2.05772e-05     -65.5027 
          20      16.7501 -6.23005e-06 -2.05156e-05      -65.502 
          20      16.8759  -6.2298e-06  -2.0465e-05     -65.5012 
          20       17.002  -6.2049e-06 -2.04174e-05     -65.5005 
          20      17.1287 -6.15807e-06 -2.03638e-05     -65.4997 
          20      17.2557 -6.10213e-06 -2.02955e-05      -65.499 
          20      17.3834 -6.06279e-06 -2.02044e-05     -65.4983 
          20      17.5115  -6.0823e-06  -2.0084e-05     -65.4975 
          20      17.6399 -6.14521e-06 -1.98961e-05     -65.4967 
          20       17.769 -6.10828e-06 -1.97159e-05      -65.496 
          20      17.8984 -6.09549e-06 -1.96228e-05     -65.4952 
          20      18.0284  -6.0943e-06 -1.95565e-05     -65.4944 
          20      18.1587 -6.09431e-06 -1.94802e-05     -65.4937 
          20      18.2896 -6.08922e-06  -1.9374e-05     -65.4929 
          20       18.421 -6.07787e-06   -1.923e-05     -65.4921 
          20      18.5528 -6.06425e-06 -1.90478e-05     -65.4913 
          20      18.6851 -6.05635e-06 -1.88301e-05     -65.4905 
          20      18.8178 -6.06392e-06 -1.85817e-05     -65.4897 
          20      18.9511 -6.09487e-06 -1.83062e-05     -65.4889 
          20      19.0847 -6.15026e-06 -1.80074e-05     -65.4881 
          20      19.2189 -6.21811e-06 -1.76886e-05     -65.4873 
          20      19.3535  -6.2113e-06 -1.75934e-05     -65.4864 
          20      19.4886 -6.21888e-06 -1.74643e-05     -65.4856 
          20      19.6242  -6.2334e-06 -1.73001e-05     -65.4848 
          20      19.7602 -6.24835e-06 -1.71078e-05      -65.484 
          20      19.8968 -6.25853e-06 -1.68985e-05     -65.4831 
          20      20.0337 -6.25951e-06 -1.66881e-05     -65.4823 
          20      20.1712 -6.24754e-06 -1.64945e-05     -65.4814 
          20      20.3091 -6.21971e-06 -1.63358e-05     -65.4806 
          20      20.4475 -6.17441e-06 -1.62264e-05     -65.4797 
          20      20.5864 -6.11236e-06 -1.61723e-05     -65.4788 
          20      20.7257 -6.03792e-06 -1.61656e-05      -65.478 
          20      20.8655 -5.96065e-06 -1.61771e-05     -65.4771 
          20      21.0058 -5.89791e-06  -1.6148e-05     -65.4762 
          20      21.1465  -5.8772e-06 -1.59801e-05     -65.4753 
          20      21.2877 -5.93967e-06 -1.55254e-05     -65.4744 
          20      21.4294 -5.93972e-06 -1.56235e-05     -65.4735 
          20      21.5716 -5.91243e-06 -1.56894e-05     -65.4726 
          20      21.7142 -5.87597e-06 -1.56908e-05     -65.4717 
          20      21.8573 -5.83844e-06 -1.56424e-05     -65.4708 
          20      22.0008 -5.80532e-06 -1.55568e-05     -65.4698 
          20      22.1449 -5.77969e-06 -1.54443e-05     -65.4689 
          20      22.2893 -5.76279e-06 -1.53135e-05      -65.468 
          20      22.4344  -5.7543e-06 -1.51707e-05      -65.467 
          20      22.5797 -5.75276e-06 -1.50217e-05     -65.4661 
          20      22.7257 -5.75593e-06 -1.48701e-05     -65.4651 
          20      22.8721 -5.76104e-06  -1.4719e-05     -65.4642 
          20      23.0189 -5.76516e-06 -1.45705e-05     -65.4632 
          20      23.1663 -5.76544e-06 -1.44258e-05     -65.4622 
          20       23.314 -5.75935e-06 -1.42858e-05     -65.4613 
          20      23.4623 -5.74484e-06 -1.41503e-05     -65.4603 
          20       23.611  -5.7206e-06 -1.40196e-05     -65.4593 
          20      23.7602 -5.68605e-06 -1.38927e-05     -65.4583 
          20        23.91 -5.64156e-06  -1.3769e-05     -65.4573 
          20        24.06 -5.58842e-06 -1.36477e-05     -65.4563 
          20      24.2107 -5.52874e-06  -1.3527e-05     -65.4552 
          20      24.3617 -5.46564e-06 -1.34057e-05     -65.4542 
          20      24.5133 -5.40274e-06 -1.32815e-05     -65.4532 
          20      24.6653 -5.34443e-06  -1.3152e-05     -65.4522 
          20      24.8178  -5.2952e-06  -1.3014e-05     -65.4511 
          20      24.9708 -5.25965e-06 -1.28635e-05     -65.4501 
          20      25.1242 -5.24198e-06 -1.26956e-05      -65.449 
          20      25.2781 -5.24547e-06 -1.25038e-05     -65.4479 
          20      25.4324 -5.27205e-06 -1.22802e-05     -65.4469 
          20      25.5873 -5.32172e-06 -1.20146e-05     -65.4458 
          20      25.7426 -5.39163e-06 -1.16947e-05     -65.4447 
          20      25.8984 -5.47565e-06 -1.13049e-05     -65.4436 
          20      26.0546   -5.563e-06 -1.08267e-05     -65.4425 
          20      26.2114  -5.4523e-06 -1.04615e-05     -65.4414 
          20      26.3686 -4.87164e-06 -1.07803e-05     -65.4403 
          20      26.5262 -4.45118e-06 -1.12292e-05     -65.4392 
          20      26.6844  -4.2439e-06 -1.18341e-05     -65.4381 
          20      26.8429 -4.38932e-06 -1.18955e-05     -65.4369 
          20       27.002 -4.47668e-06 -1.17355e-05     -65.4358 
          20      27.1615 -4.51194e-06 -1.14549e-05     -65.4346 
          20      27.3216 -4.50608e-06 -1.11243e-05     -65.4335 
          20      27.4821  -4.5986e-06 -1.08465e-05     -65.4323 
          20       27.643 -4.97648e-06 -1.06768e-05     -65.4311 
          20      27.8044 -5.27601e-06 -1.05014e-05       -65.43 
          20      27.9663 -5.50231e-06 -1.03299e-05     -65.4288 
          20      28.1287 -5.66292e-06 -1.01699e-05     -65.4276 
          20      28.2914 -5.76576e-06 -1.00278e-05     -65.4264 
          20      28.4548 -5.81984e-06 -9.90826e-06     -65.4252 
          20      28.6185 -5.83404e-06 -9.81493e-06      -65.424 
          20      28.7828 -5.81722e-06  -9.7495e-06     -65.4227 
          20      28.9475 -5.77768e-06 -9.71258e-06     -65.4215 
          20      29.1126 -5.72301e-06  -9.7033e-06     -65.4203 
          20      29.2784 -5.65966e-06  -9.7196e-06      -65.419 
          20      29.4444  -5.5931e-06 -9.75824e-06     -65.4178 
          20       29.611 -5.52729e-06 -9.81513e-06     -65.4165 
          20       29.778  -5.4651e-06 -9.88518e-06     -65.4152 
          20      29.9456 -5.40788e-06 -9.96292e-06      -65.414 
          20      30.1137  -5.3559e-06 -1.00423e-05     -65.4127 
          20      30.2821 -5.30838e-06 -1.01172e-05     -65.4114 
          20      30.4511 -5.26362e-06 -1.01817e-05     -65.4101 
          20      30.6204 -5.21959e-06 -1.02303e-05     -65.4088 
          20      30.7903 -5.17406e-06 -1.02585e-05     -65.4074 
          20      30.9606  -5.1254e-06 -1.02627e-05     -65.4061 
          20      31.1315 -5.07287e-06 -1.02413e-05     -65.4048 
          20      31.3028 -5.01762e-06 -1.01947e-05     -65.4034 
          20      31.4745  -4.9634e-06 -1.01258e-05     -65.4021 
          20      31.6468 -4.91734e-06  -1.0041e-05     -65.4007 
          20      31.8194 -4.89125e-06  -9.9502e-06     -65.3994 
          20      31.9926 -4.90259e-06 -9.86783e-06      -65.398 
          20      32.1662 -4.97583e-06 -9.81355e-06     -65.3966 
          20      32.3404 -5.14405e-06 -9.81273e-06     -65.3952 
          20      32.5149  -5.2324e-06 -9.76605e-06     -65.3938 
          20        32.69 -5.30514e-06 -9.76315e-06     -65.3924 
          20      32.8655 -5.36251e-06 -9.77379e-06      -65.391 
          20      33.0414 -5.39387e-06 -9.77098e-06     -65.3896 
          20       33.218 -5.39422e-06 -9.74193e-06     -65.3881 
          20      33.3948 -5.36369e-06 -9.68477e-06     -65.3867 
          20      33.5723 -5.30694e-06 -9.60525e-06     -65.3852 
          20        33.75 -5.23287e-06 -9.51419e-06     -65.3838 
          20      33.9284 -5.15365e-06 -9.42425e-06     -65.3823 
          20      34.1073 -5.08449e-06 -9.34794e-06     -65.3808 
          20      34.2865  -5.0427e-06 -9.29508e-06     -65.3794 
          20      34.4663 -5.04693e-06 -9.27073e-06     -65.3779 
          20      34.6465 -5.11648e-06 -9.27369e-06     -65.3764 
          20      34.8272 -5.27054e-06 -9.29487e-06     -65.3749 
          20      35.0083 -5.52681e-06 -9.31623e-06     -65.3733 
          20        35.19 -5.90159e-06 -9.30998e-06     -65.3718 
          20      35.3721 -6.40745e-06 -9.23802e-06     -65.3703 
          20      35.5546 -6.28957e-06 -9.26101e-06     -65.3687 
          20      35.7377 -5.88736e-06 -9.32153e-06     -65.3672 
          20      35.9211 -5.58194e-06 -9.33389e-06     -65.3656 
          20      36.1052 -5.35903e-06 -9.30824e-06      -65.364 
          20      36.2895 -5.20524e-06 -9.25385e-06     -65.3625 
          20      36.4745 -5.10685e-06 -9.17889e-06     -65.3609 
          20      36.6598 -5.05123e-06 -9.09077e-06     -65.3593 
          20      36.8457 -5.02644e-06 -8.99573e-06     -65.3577 
          20      37.0321 -5.02196e-06 -8.89934e-06     -65.3561 
          20      37.2188 -5.02886e-06 -8.80636e-06     -65.3544 
          20      37.4062 -5.04022e-06 -8.72064e-06     -65.3528 
          20      37.5938 -5.05143e-06 -8.64578e-06     -65.3512 
          20      37.7821 -5.06062e-06 -8.58475e-06     -65.3495 
          20      37.9707 -5.06903e-06 -8.54061e-06     -65.3479 
          20      38.1599 -5.08136e-06 -8.51635e-06     -65.3462 
          20      38.3496 -5.10622e-06 -8.51549e-06     -65.3445 
          20      38.5396 -5.15645e-06 -8.54221e-06     -65.3428 
          20      38.7302 -5.24974e-06 -8.60189e-06     -65.3411 
          20      38.9211 -5.40867e-06 -8.70132e-06     -65.3394 
          20      39.1127  -5.5184e-06 -8.76846e-06     -65.3377 
          20      39.3046 -5.34169e-06 -8.61615e-06      -65.336 
          20      39.4971 -5.27855e-06  -8.4598e-06     -65.3343 
          20      39.6899 -5.29585e-06 -8.30386e-06     -65.3325 
          20      39.8833 -5.36523e-06 -8.15323e-06     -65.3308 
          20      40.0772 -5.46241e-06 -8.01318e-06      -65.329 
          20      40.2714 -5.56667e-06 -7.88815e-06     -65.3272 
          20      40.4663 -5.66081e-06 -7.78086e-06     -65.3255 
          20      40.6615 -5.73037e-06 -7.69257e-06     -65.3237 
          20      40.8573 -5.76419e-06  -7.6221e-06     -65.3219 
          20      41.0534 -5.75418e-06 -7.56635e-06     -65.3201 
          20      41.2501 -5.69585e-06    -7.52e-06     -65.3183 
          20      41.4473 -5.58889e-06 -7.47614e-06     -65.3164 
          20      41.6448 -5.43813e-06 -7.42678e-06     -65.3146 
          20      41.8429 -5.25402e-06  -7.3635e-06     -65.3128 
          20      42.0414 -5.05478e-06 -7.27884e-06     -65.3109 
          20      42.2405 -4.86687e-06 -7.16718e-06     -65.3091 
          20      42.4399 -4.72787e-06 -7.02688e-06     -65.3072 
          20      42.6399 -4.68754e-06 -6.86144e-06     -65.3053 
          20      42.8404 -4.81104e-06  -6.6824e-06     -65.3034 
          20      43.0412 -5.18058e-06  -6.5115e-06     -65.3016 
          20      43.2426  -5.4695e-06 -6.45174e-06     -65.2996 
          20      43.4444 -5.35273e-06 -6.49867e-06     -65.2977 
          20      43.6467  -5.2786e-06 -6.53453e-06     -65.2958 
          20      43.8494 -5.23389e-06 -6.55106e-06     -65.2939 
          20      44.0527 -5.20789e-06 -6.54292e-06     -65.2919 
          20      44.2563 -5.19242e-06 -6.50719e-06       -65.29 
          20      44.4606 -5.18134e-06 -6.44305e-06      -65.288 
          20      44.6653 -5.17039e-06 -6.35155e-06     -65.2861 
          20      44.8704 -5.15688e-06 -6.23534e-06     -65.2841 
          20       45.076 -5.13939e-06 -6.09795e-06     -65.2821 
          20       45.282 -5.11763e-06 -5.94426e-06     -65.2801 
          20      45.4886 -5.09206e-06 -5.77926e-06     -65.2781 
          20      45.6955 -5.06386e-06 -5.60886e-06     -65.2761 
          20       45.903 -5.03451e-06 -5.43854e-06     -65.2741 
          20      46.1111  -5.0058e-06 -5.27408e-06     -65.2721 
          20      46.3194 -4.97959e-06 -5.12096e-06       -65.27 
          20      46.5283 -4.95756e-06 -4.98377e-06      -65.268 
          20      46.7376 -4.94126e-06 -4.86688e-06     -65.2659 
          20      46.9475 -4.93184e-06 -4.77345e-06     -65.2639 
          20      47.1577 -4.93008e-06 -4.70603e-06     -65.2618 
          20      47.3685 -4.93625e-06 -4.66587e-06     -65.2597 
          20      47.5798 -4.95008e-06 -4.65327e-06     -65.2576 
          20      47.7914 -4.97074e-06 -4.66728e-06     -65.2555 
          20      48.0037 -4.99691e-06  -4.7058e-06     -65.2534 