Variables = x, y, u, v, p

Zone, I=800, F=POINT
         -10            0  2.35846e-19  2.93113e-24      63.9741 
         -10     0.000234  1.16884e-05  1.44268e-10      63.9741 
         -10     0.000939  4.40858e-05  5.31037e-10      63.9741 
         -10     0.002113  8.94046e-05  1.01915e-09      63.9741 
         -10     0.003759  0.000137252   1.3874e-09      63.9741 
         -10     0.005872  0.000177085  1.34579e-09      63.9741 
         -10     0.008457  0.000201577  5.55307e-10      63.9741 
         -10      0.01151  0.000208298 -1.35594e-09      63.9741 
         -10     0.015036  0.000200493 -4.78593e-09      63.9741 
         -10     0.019031  0.000185758 -1.01394e-08      63.9741 
         -10     0.023493   0.00017314 -1.78289e-08      63.9741 
         -10     0.028429  0.000169377 -2.82932e-08      63.9741 
         -10     0.033831  0.000175765  -4.1948e-08      63.9741 
         -10     0.039706  0.000187176 -5.92397e-08      63.9741 
         -10     0.046047   0.00019468 -8.05531e-08      63.9741 
         -10     0.052863  0.000191934  -1.0627e-07      63.9741 
         -10      0.06015  0.000182749 -1.36641e-07      63.9741 
         -10       0.0679  0.000182721 -1.71788e-07      63.9741 
         -10     0.076126  0.000200281 -2.11871e-07      63.9741 
         -10     0.084816  0.000189154 -2.57028e-07      63.9741 
         -10     0.093982  0.000196033  -3.0714e-07      63.9741 
         -10     0.103611   0.00019955 -3.62078e-07      63.9741 
         -10     0.113718  0.000201433 -4.21727e-07      63.9741 
         -10     0.124286  0.000202904 -4.85705e-07      63.9741 
         -10     0.135333  0.000204643 -5.53764e-07      63.9741 
         -10      0.14685  0.000206816  -6.2543e-07      63.9741 
         -10     0.158827  0.000209212 -7.00175e-07      63.9741 
         -10     0.171284  0.000211465 -7.77624e-07      63.9741 
         -10     0.184201  0.000213295  -8.5714e-07      63.9741 
         -10     0.197599  0.000214732 -9.38345e-07      63.9741 
         -10     0.211455  0.000216158 -1.02061e-06      63.9741 
         -10     0.225792  0.000218038 -1.10362e-06      63.9741 
         -10       0.2406  0.000220039 -1.18688e-06      63.9741 
         -10     0.255865  0.000220883 -1.26967e-06      63.9741 
         -10     0.271613   0.00022237 -1.35162e-06      63.9741 
         -10     0.287818  0.000223668 -1.43257e-06      63.9741 
         -10     0.304506   0.00022482 -1.51225e-06      63.9741 
         -10      0.32165  0.000225858  -1.5903e-06      63.9741 
         -10     0.339278  0.000226807 -1.66672e-06      63.9741 
         -10     0.357377  0.000227682 -1.74146e-06      63.9741 
         -10      0.37593  0.000228488 -1.81459e-06      63.9741 
         -10     0.394968  0.000229227 -1.88641e-06      63.9741 
         -10     0.414461  0.000229896 -1.95706e-06      63.9741 
         -10      0.43444  0.000230489 -2.02689e-06      63.9741 
         -10     0.454872  0.000231002 -2.09602e-06      63.9741 
         -10     0.475791  0.000231434 -2.16474e-06      63.9741 
         -10     0.497163  0.000231786 -2.23308e-06      63.9741 
         -10     0.519021  0.000232064 -2.30126e-06      63.9741 
         -10      0.54135  0.000232274 -2.36939e-06      63.9741 
         -10     0.564131  0.000232415 -2.43774e-06      63.9741 
         -10       0.5874  0.000232469 -2.50712e-06      63.9741 
         -10     0.611121  0.000232394 -2.57936e-06      63.9741 
         -10      0.63533   0.00023227 -2.65815e-06      63.9741 
         -10      0.65999  0.000232043 -2.73521e-06      63.9741 
         -10     0.685139  0.000231712 -2.81201e-06      63.9741 
         -10     0.710759  0.000231279 -2.88957e-06      63.9741 
         -10     0.736828  0.000230745 -2.96856e-06      63.9741 
         -10     0.763387  0.000230112 -3.04956e-06      63.9741 
         -10     0.790396  0.000229385 -3.13257e-06      63.9741 
         -10     0.817896  0.000228568 -3.21762e-06      63.9741 
         -10     0.845843  0.000227665  -3.3042e-06      63.9741 
         -10     0.874283  0.000226682 -3.39191e-06      63.9741 
         -10      0.90317  0.000225626 -3.47992e-06       63.974 
         -10     0.932551  0.000224503 -3.56757e-06       63.974 
         -10     0.962401   0.00022332 -3.65397e-06       63.974 
         -10     0.992697  0.000222086 -3.73825e-06       63.974 
         -10      1.02349  0.000220805 -3.81983e-06       63.974 
         -10      1.05472  0.000219488 -3.89798e-06       63.974 
         -10      1.08645  0.000218137  -3.9724e-06       63.974 
         -10      1.11863  0.000216763 -4.04273e-06       63.974 
         -10       1.1513  0.000215369 -4.10905e-06       63.974 
         -10      1.18444  0.000213961 -4.17144e-06       63.974 
         -10      1.21802  0.000212544 -4.23009e-06       63.974 
         -10      1.25211  0.000211121 -4.28532e-06       63.974 
         -10      1.28663  0.000209695 -4.33713e-06       63.974 
         -10      1.32165  0.000208268 -4.38528e-06       63.974 
         -10      1.35712  0.000206843 -4.42864e-06      63.9739 
         -10      1.39308  0.000205419 -4.46512e-06      63.9739 
         -10      1.42951  0.000203998 -4.49088e-06      63.9739 
         -10      1.46638  0.000202584  -4.4998e-06      63.9739 
         -10      1.50375  0.000201177 -4.48266e-06      63.9739 
         -10      1.54156  0.000200258 -4.42535e-06      63.9739 
         -10      1.57987  0.000199137 -4.41445e-06      63.9739 
         -10      1.61863   0.00019783  -4.4372e-06      63.9739 
         -10      1.65788  0.000196393 -4.47897e-06      63.9738 
         -10      1.69757  0.000194876 -4.52702e-06      63.9738 
         -10      1.73776  0.000193323 -4.57075e-06      63.9738 
         -10      1.77842  0.000191774 -4.60147e-06      63.9738 
         -10      1.81952  0.000190265 -4.61253e-06      63.9738 
         -10      1.86113  0.000188819  -4.5993e-06      63.9738 
         -10      1.90316  0.000187461 -4.55905e-06      63.9738 
         -10      1.94571  0.000186205 -4.49078e-06      63.9737 
         -10      1.98869  0.000185064  -4.3954e-06      63.9737 
         -10      2.03217  0.000184042 -4.27511e-06      63.9737 
         -10      2.07612   0.00018314 -4.13377e-06      63.9737 
         -10      2.12051  0.000182357 -3.97653e-06      63.9737 
         -10       2.1654  0.000181682 -3.80921e-06      63.9736 
         -10      2.21073  0.000181105 -3.63894e-06      63.9736 
         -10      2.25656  0.000180613 -3.47292e-06      63.9736 
         -10      2.30283  0.000180189  -3.3192e-06      63.9736 
         -10       2.3496  0.000179815  -3.1854e-06      63.9736 
         -10      2.39685  0.000179472 -3.07932e-06      63.9735 
         -10      2.44452  0.000179141 -3.00821e-06      63.9735 
         -10      2.49271  0.000178804 -2.97842e-06      63.9735 
         -10      2.54132  0.000178442 -2.99546e-06      63.9734 
         -10      2.59044  0.000178041 -3.06355e-06      63.9734 
         -10         2.64  0.000177587 -3.18535e-06      63.9734 
         -10      2.69006   0.00017707  -3.3621e-06      63.9734 
         -10      2.74056  0.000176485 -3.59278e-06      63.9733 
         -10      2.79156  0.000175829 -3.87502e-06      63.9733 
         -10      2.84304  0.000175104 -4.20395e-06      63.9733 
         -10      2.89494   0.00017432 -4.57254e-06      63.9732 
         -10      2.94735  0.000173486 -4.97277e-06      63.9732 
         -10       3.0002  0.000172622 -5.39366e-06      63.9732 
         -10      3.05355  0.000171746 -5.82413e-06      63.9731 
         -10      3.10733  0.000170885 -6.25074e-06      63.9731 
         -10      3.16163  0.000170064 -6.66097e-06       63.973 
         -10      3.21639  0.000169312 -7.04152e-06       63.973 
         -10      3.27158  0.000168657 -7.38041e-06       63.973 
         -10      3.32729  0.000168122 -7.66871e-06      63.9729 
         -10      3.38342  0.000167726 -7.90013e-06      63.9729 
         -10      3.44007   0.00016748 -8.07438e-06      63.9728 
         -10      3.49714  0.000167378 -8.19759e-06      63.9728 
         -10      3.55472    0.0001674 -8.28558e-06      63.9727 
         -10      3.61273    0.0001675  -8.3655e-06      63.9727 
         -10      3.67125  0.000167605 -8.47934e-06      63.9726 
         -10      3.73025    0.0001676 -8.68682e-06      63.9726 
         -10      3.78967  0.000167562 -8.63649e-06      63.9725 
         -10      3.84961  0.000167582 -8.62759e-06      63.9725 
         -10      3.90996  0.000167605 -8.80219e-06      63.9724 
         -10      3.97084  0.000167633 -9.08156e-06      63.9724 
         -10      4.03214  0.000167665 -9.40125e-06      63.9723 
         -10      4.09395  0.000167699 -9.71259e-06      63.9722 
         -10      4.15624  0.000167733 -9.98094e-06      63.9722 
         -10      4.21895  0.000167766 -1.01859e-05      63.9721 
         -10      4.28217  0.000167727 -1.04509e-05       63.972 
         -10      4.34582  0.000167682 -1.07165e-05       63.972 
         -10      4.40998  0.000167648 -1.09609e-05      63.9719 
         -10      4.47457  0.000167623 -1.11918e-05      63.9718 
         -10      4.53968  0.000167606 -1.14127e-05      63.9717 
         -10      4.60525  0.000167591 -1.16224e-05      63.9717 
         -10      4.67125  0.000167573  -1.1816e-05      63.9716 
         -10      4.73777  0.000167543 -1.19865e-05      63.9715 
         -10       4.8047  0.000167491 -1.21249e-05      63.9714 
         -10      4.87216  0.000167406 -1.22228e-05      63.9713 
         -10      4.94003   0.00016728 -1.22737e-05      63.9712 
         -10      5.00843  0.000167107 -1.22753e-05      63.9711 
         -10      5.07724  0.000166892 -1.22325e-05       63.971 
         -10      5.14658  0.000166652 -1.21597e-05       63.971 
         -10      5.21639  0.000166422 -1.20853e-05      63.9709 
         -10      5.28661  0.000166243  -1.2022e-05      63.9707 
         -10      5.35736  0.000166048 -1.18804e-05      63.9706 
         -10      5.42852  0.000165947  -1.1829e-05      63.9705 
         -10      5.50021  0.000165916 -1.18181e-05      63.9704 
         -10      5.57231   0.00016594 -1.18159e-05      63.9703 
         -10      5.64493  0.000166007 -1.18051e-05      63.9702 
         -10      5.71803  0.000166108 -1.17793e-05      63.9701 
         -10      5.79154  0.000166236 -1.17402e-05        63.97 
         -10      5.86558  0.000166384 -1.16944e-05      63.9698 
         -10      5.94003  0.000166543  -1.1651e-05      63.9697 
         -10      6.01501  0.000166707 -1.16188e-05      63.9696 
         -10       6.0904  0.000166863 -1.16048e-05      63.9694 
         -10      6.16632  0.000167001 -1.16121e-05      63.9693 
         -10      6.24271  0.000167107 -1.16391e-05      63.9692 
         -10       6.3195   0.00016717 -1.16791e-05       63.969 
         -10      6.39683  0.000167178 -1.17205e-05      63.9689 
         -10      6.47457  0.000167124 -1.17478e-05      63.9687 
         -10      6.55284  0.000167009 -1.17435e-05      63.9686 
         -10      6.63152  0.000166841  -1.1691e-05      63.9684 
         -10      6.71073  0.000166647 -1.15787e-05      63.9682 
         -10      6.79034  0.000166469 -1.14049e-05      63.9681 
         -10      6.87049   0.00016638 -1.11843e-05      63.9679 
         -10      6.95111   0.00016643 -1.09132e-05      63.9677 
         -10      7.03214  0.000166566 -1.04033e-05      63.9675 
         -10       7.1137  0.000166213 -1.05086e-05      63.9674 
         -10      7.19566  0.000165992 -1.05393e-05      63.9672 
         -10      7.27816  0.000165956 -1.04668e-05       63.967 
         -10      7.36106  0.000165867 -1.03836e-05      63.9668 
         -10      7.44451  0.000165736 -1.03118e-05      63.9666 
         -10      7.52842  0.000165584 -1.02683e-05      63.9664 
         -10      7.61273  0.000165432 -1.02645e-05      63.9662 
         -10      7.69758  0.000165303 -1.03062e-05      63.9659 
         -10      7.78283  0.000165216 -1.03939e-05      63.9657 
         -10      7.86862  0.000165185  -1.0523e-05      63.9655 
         -10      7.95481  0.000165215  -1.0684e-05      63.9653 
         -10      8.04155  0.000165307 -1.08638e-05       63.965 
         -10      8.12868  0.000165453 -1.10456e-05      63.9648 
         -10      8.21635  0.000165639 -1.12113e-05      63.9645 
         -10      8.30449  0.000165846 -1.13415e-05      63.9643 
         -10      8.39303  0.000166057 -1.14182e-05       63.964 
         -10      8.48211  0.000166256 -1.14262e-05      63.9638 
         -10      8.57159  0.000166436 -1.13558e-05      63.9635 
         -10      8.66161  0.000166611 -1.12049e-05      63.9632 
         -10      8.75203  0.000166817 -1.09827e-05       63.963 
         -10      8.84299   0.00016713 -1.07124e-05      63.9627 
         -10      8.93443  0.000167576 -1.04345e-05      63.9624 
         -10      9.02626  0.000167756 -1.02789e-05      63.9621 
         -10      9.11863  0.000167743 -1.01339e-05      63.9618 
         -10      9.21139  0.000167642 -9.90022e-06      63.9615 
         -10      9.30471  0.000167513 -9.58432e-06      63.9612 
         -10      9.39841  0.000167391 -9.29691e-06      63.9608 
         -10      9.49267  0.000167307 -9.23952e-06      63.9605 
         -10      9.58739  0.000167154 -9.28663e-06      63.9602 
         -10      9.68251  0.000167009 -9.19706e-06      63.9598 
         -10      9.77817  0.000166908 -9.08349e-06      63.9595 
         -10      9.87422  0.000166826  -8.9678e-06      63.9591 
         -10      9.97083  0.000166751 -8.86248e-06      63.9588 
         -10      10.0678  0.000166676 -8.77174e-06      63.9584 
         -10      10.1654  0.000166604 -8.69168e-06       63.958 
         -10      10.2633  0.000166543 -8.61215e-06      63.9576 
         -10      10.3618  0.000166505  -8.5181e-06      63.9572 
         -10      10.4607  0.000166501 -8.39237e-06      63.9568 
         -10      10.5601  0.000166541 -8.21875e-06      63.9564 
         -10        10.66  0.000166629 -7.98505e-06       63.956 
         -10      10.7603  0.000166764 -7.68875e-06      63.9556 
         -10      10.8611  0.000166933  -7.3406e-06      63.9552 
         -10      10.9623   0.00016711 -6.97264e-06      63.9547 
         -10      11.0641   0.00016725 -6.64297e-06      63.9543 
         -10      11.1663  0.000167288 -6.43713e-06      63.9538 
         -10       11.269   0.00016726  -6.0659e-06      63.9534 
         -10      11.3721  0.000167284 -5.73805e-06      63.9529 
         -10      11.4757  0.000167328 -5.45359e-06      63.9524 
         -10      11.5798  0.000167368 -5.20449e-06       63.952 
         -10      11.6844  0.000167382 -4.97881e-06      63.9515 
         -10      11.7894   0.00016736 -4.76178e-06       63.951 
         -10       11.895  0.000167295  -4.5404e-06      63.9505 
         -10      12.0009  0.000167189 -4.30672e-06      63.9499 
         -10      12.1073  0.000167052 -4.06165e-06      63.9494 
         -10      12.2142    0.0001669  -3.8213e-06      63.9489 
         -10      12.3216  0.000166751 -3.62113e-06      63.9483 
         -10      12.4294  0.000166628 -3.52373e-06      63.9478 
         -10      12.5378  0.000166766  -3.2534e-06      63.9472 
         -10      12.6465  0.000166925 -2.81908e-06      63.9466 
         -10      12.7558  0.000166891 -2.53754e-06      63.9461 
         -10      12.8656  0.000166758 -2.35242e-06      63.9455 
         -10      12.9757  0.000166602 -2.22017e-06      63.9449 
         -10      13.0864  0.000166476 -2.10748e-06      63.9443 
         -10      13.1975   0.00016641 -1.98966e-06      63.9436 
         -10      13.3092  0.000166419 -1.84796e-06       63.943 
         -10      13.4212  0.000166495 -1.66898e-06      63.9424 
         -10      13.5338   0.00016662 -1.44275e-06      63.9417 
         -10      13.6468  0.000166764 -1.16331e-06      63.9411 
         -10      13.7603  0.000166895 -8.28635e-07      63.9404 
         -10      13.8743  0.000166982  -4.4055e-07      63.9397 
         -10      13.9886  0.000167005 -8.23738e-09       63.939 
         -10      14.1036  0.000166966  4.51856e-07      63.9383 
         -10      14.2189  0.000166895  9.10163e-07      63.9376 
         -10      14.3348  0.000166746  1.22427e-06      63.9369 
         -10       14.451   0.00016636  1.21477e-06      63.9361 
         -10      14.5678  0.000166135  1.25591e-06      63.9354 
         -10      14.6851  0.000166034  1.34995e-06      63.9346 
         -10      14.8028  0.000166024  1.49461e-06      63.9339 
         -10       14.921  0.000166075  1.68453e-06      63.9331 
         -10      15.0396  0.000166161  1.91136e-06      63.9323 
         -10      15.1588   0.00016626  2.16575e-06      63.9315 
         -10      15.2783  0.000166356  2.43682e-06      63.9307 
         -10      15.3984  0.000166433  2.71444e-06      63.9299 
         -10       15.519  0.000166483  2.98847e-06      63.9291 
         -10        15.64  0.000166499  3.25001e-06      63.9282 
         -10      15.7615  0.000166481   3.4925e-06      63.9274 
         -10      15.8834  0.000166428  3.71074e-06      63.9265 
         -10      16.0058  0.000166346  3.90268e-06      63.9256 
         -10      16.1286  0.000166242  4.06824e-06      63.9247 
         -10       16.252  0.000166126  4.21057e-06      63.9238 
         -10      16.3759  0.000166008  4.33499e-06      63.9229 
         -10      16.5002    0.0001659   4.4492e-06       63.922 
         -10       16.625  0.000165814  4.56307e-06       63.921 
         -10      16.7501  0.000165761  4.68744e-06      63.9201 
         -10      16.8759  0.000165749  4.83407e-06      63.9191 
         -10       17.002  0.000165784  5.01389e-06      63.9181 
         -10      17.1287  0.000165867   5.2367e-06      63.9172 
         -10      17.2557  0.000165994  5.50866e-06      63.9162 
         -10      17.3834  0.000166152    5.832e-06      63.9151 
         -10      17.5115  0.000166319  6.20169e-06      63.9141 
         -10      17.6399  0.000166462  6.60373e-06      63.9131 
         -10       17.769  0.000166535  7.01379e-06       63.912 
         -10      17.8984  0.000166475  7.39216e-06       63.911 
         -10      18.0284  0.000166202  7.68311e-06      63.9099 
         -10      18.1587    0.0001655  7.52171e-06      63.9088 
         -10      18.2896  0.000165341  8.17034e-06      63.9077 
         -10       18.421   0.00016538  9.09862e-06      63.9066 
         -10      18.5528   0.00016509  9.09873e-06      63.9055 
         -10      18.6851  0.000164813  9.13691e-06      63.9043 
         -10      18.8178  0.000164566  9.22078e-06      63.9032 
         -10      18.9511  0.000164356  9.35304e-06       63.902 
         -10      19.0847  0.000164188  9.53188e-06      63.9008 
         -10      19.2189  0.000164064  9.75273e-06      63.8996 
         -10      19.3535  0.000163981   1.0008e-05      63.8984 
         -10      19.4886  0.000163935  1.02894e-05      63.8972 
         -10      19.6242   0.00016392  1.05872e-05      63.8959 
         -10      19.7602  0.000163928  1.08912e-05      63.8947 
         -10      19.8968  0.000163952  1.11928e-05      63.8934 
         -10      20.0337  0.000163984  1.14832e-05      63.8921 
         -10      20.1712  0.000164016  1.17561e-05      63.8908 
         -10      20.3091  0.000164043   1.2006e-05      63.8895 
         -10      20.4475  0.000164058    1.223e-05      63.8882 
         -10      20.5864   0.00016406  1.24271e-05      63.8869 
         -10      20.7257  0.000164046  1.25982e-05      63.8855 
         -10      20.8655  0.000164017  1.27464e-05      63.8842 
         -10      21.0058  0.000163976  1.28761e-05      63.8828 
         -10      21.1465  0.000163928  1.29934e-05      63.8814 
         -10      21.2877  0.000163879  1.31044e-05        63.88 
         -10      21.4294   0.00016384  1.32154e-05      63.8786 
         -10      21.5716  0.000163819  1.33314e-05      63.8771 
         -10      21.7142   0.00016383   1.3455e-05      63.8757 
         -10      21.8573  0.000163885  1.35853e-05      63.8742 
         -10      22.0008  0.000163995  1.37159e-05      63.8727 
         -10      22.1449  0.000164174  1.38338e-05      63.8712 
         -10      22.2893  0.000163646  1.39989e-05      63.8697 
         -10      22.4344  0.000163155   1.4315e-05      63.8682 
         -10      22.5797  0.000162792  1.46866e-05      63.8666 
         -10      22.7257  0.000162531  1.50415e-05      63.8651 
         -10      22.8721  0.000162348  1.53337e-05      63.8635 
         -10      23.0189  0.000162222  1.55425e-05      63.8619 
         -10      23.1663  0.000162137    1.567e-05      63.8603 
         -10       23.314  0.000162081  1.57362e-05      63.8587 
         -10      23.4623  0.000162045  1.57747e-05      63.8571 
         -10       23.611  0.000162022  1.58263e-05      63.8554 
         -10      23.7602  0.000162001  1.59324e-05      63.8537 
         -10        23.91  0.000161973  1.61258e-05      63.8521 
         -10        24.06   0.00016192  1.63721e-05      63.8504 
         -10      24.2107   0.00016186  1.64813e-05      63.8487 
         -10      24.3617  0.000161797  1.65712e-05      63.8469 
         -10      24.5133  0.000161748  1.66486e-05      63.8452 
         -10      24.6653  0.000161725   1.6722e-05      63.8434 
         -10      24.8178  0.000161732  1.68012e-05      63.8417 
         -10      24.9708  0.000161769   1.6896e-05      63.8399 
         -10      25.1242  0.000161829  1.70153e-05      63.8381 
         -10      25.2781  0.000161903  1.71665e-05      63.8362 
         -10      25.4324  0.000161975  1.73543e-05      63.8344 
         -10      25.5873  0.000162031  1.75805e-05      63.8325 
         -10      25.7426  0.000162053  1.78429e-05      63.8307 
         -10      25.8984  0.000162025  1.81354e-05      63.8288 
         -10      26.0546  0.000161936  1.84469e-05      63.8269 
         -10      26.2114  0.000161779  1.87621e-05       63.825 
         -10      26.3686  0.000161557    1.906e-05       63.823 
         -10      26.5262  0.000161288  1.93147e-05      63.8211 
         -10      26.6844  0.000161002  1.94961e-05      63.8191 
         -10      26.8429  0.000160752  1.95688e-05      63.8171 
         -10       27.002  0.000160618  1.95017e-05      63.8151 
         -10      27.1615  0.000160537  2.02174e-05      63.8131 
         -10      27.3216  0.000160403  2.07483e-05      63.8111 
         -10      27.4821  0.000160234  2.11283e-05       63.809 
         -10       27.643  0.000160046  2.13915e-05      63.8069 
         -10      27.8044  0.000159851  2.15709e-05      63.8049 
         -10      27.9663   0.00015966  2.16964e-05      63.8028 
         -10      28.1287   0.00015948  2.17952e-05      63.8006 
         -10      28.2914  0.000159318  2.18907e-05      63.7985 
         -10      28.4548  0.000159176  2.20019e-05      63.7964 
         -10      28.6185  0.000159055  2.21424e-05      63.7942 
         -10      28.7828  0.000158953  2.23206e-05       63.792 
         -10      28.9475  0.000158867  2.25387e-05      63.7898 
         -10      29.1126   0.00015879   2.2792e-05      63.7876 
         -10      29.2784  0.000158714  2.30695e-05      63.7853 
         -10      29.4444  0.000158629  2.33522e-05      63.7831 
         -10       29.611  0.000158523  2.36146e-05      63.7808 
         -10       29.778  0.000158383   2.3823e-05      63.7785 
         -10      29.9456  0.000158193  2.39366e-05      63.7762 
         -10      30.1137  0.000157937  2.39066e-05      63.7739 
         -10      30.2821  0.000157599  2.36774e-05      63.7716 
         -10      30.4511  0.000157377  2.41181e-05      63.7692 
         -10      30.6204  0.000157216  2.44941e-05      63.7669 
         -10      30.7903  0.000157095   2.4801e-05      63.7645 
         -10      30.9606  0.000157002  2.50536e-05      63.7621 
         -10      31.1315  0.000156932  2.52672e-05      63.7596 
         -10      31.3028  0.000156883  2.54555e-05      63.7572 
         -10      31.4745  0.000156855  2.56295e-05      63.7547 
         -10      31.6468  0.000156849  2.57972e-05      63.7523 
         -10      31.8194  0.000156864  2.59611e-05      63.7498 
         -10      31.9926  0.000156896  2.61182e-05      63.7473 
         -10      32.1662  0.000156931  2.62582e-05      63.7448 
         -10      32.3404  0.000156946  2.63631e-05      63.7422 
         -10      32.5149  0.000156906  2.64054e-05      63.7396 
         -10        32.69  0.000156755  2.63477e-05      63.7371 
         -10      32.8655  0.000156418  2.61418e-05      63.7345 
         -10      33.0414  0.000155794  2.57278e-05      63.7319 
         -10       33.218  0.000155696  2.62007e-05      63.7292 
         -10      33.3948  0.000155809   2.6899e-05      63.7266 
         -10      33.5723  0.000155779  2.73648e-05      63.7239 
         -10        33.75  0.000155649  2.76783e-05      63.7212 
         -10      33.9284  0.000155455  2.79006e-05      63.7186 
         -10      34.1073  0.000155229   2.8074e-05      63.7158 
         -10      34.2865  0.000154995  2.82264e-05      63.7131 
         -10      34.4663  0.000154771  2.83735e-05      63.7104 
         -10      34.6465  0.000154571  2.85212e-05      63.7076 
         -10      34.8272  0.000154403  2.86686e-05      63.7048 
         -10      35.0083   0.00015427  2.88096e-05       63.702 
         -10        35.19   0.00015417  2.89355e-05      63.6992 
         -10      35.3721  0.000154098  2.90361e-05      63.6963 
         -10      35.5546  0.000154046  2.91023e-05      63.6935 
         -10      35.7377  0.000154003  2.91267e-05      63.6906 
         -10      35.9211  0.000153956  2.91052e-05      63.6877 
         -10      36.1052  0.000153893  2.90376e-05      63.6848 
         -10      36.2895    0.0001538  2.89286e-05      63.6819 
         -10      36.4745  0.000153666  2.87874e-05       63.679 
         -10      36.6598  0.000153482  2.86288e-05       63.676 
         -10      36.8457  0.000153251  2.85683e-05       63.673 
         -10      37.0321  0.000153034  2.87836e-05      63.6701 
         -10      37.2188  0.000152836  2.89975e-05       63.667 
         -10      37.4062  0.000152654  2.92058e-05       63.664 
         -10      37.5938  0.000152484  2.94037e-05       63.661 
         -10      37.7821  0.000152322  2.95872e-05      63.6579 
         -10      37.9707  0.000152165  2.97529e-05      63.6548 
         -10      38.1599   0.00015201  2.98984e-05      63.6517 
         -10      38.3496  0.000151851  3.00223e-05      63.6486 
         -10      38.5396  0.000151688  3.01247e-05      63.6455 
         -10      38.7302  0.000151517  3.02075e-05      63.6424 
         -10      38.9211  0.000151336  3.02744e-05      63.6392 
         -10      39.1127  0.000151144  3.03315e-05       63.636 
         -10      39.3046   0.00015094   3.0387e-05      63.6328 
         -10      39.4971  0.000150725  3.04521e-05      63.6296 
         -10      39.6899  0.000150502   3.0541e-05      63.6264 
         -10      39.8833  0.000150274  3.06709e-05      63.6231 
         -10      40.0772  0.000150065  3.09096e-05      63.6199 
         -10      40.2714  0.000149976  3.14614e-05      63.6166 
         -10      40.4663  0.000149856   3.1867e-05      63.6133 
         -10      40.6615  0.000149717  3.21524e-05        63.61 
         -10      40.8573  0.000149568  3.23423e-05      63.6067 
         -10      41.0534  0.000149415  3.24583e-05      63.6033 
         -10      41.2501  0.000149261  3.25204e-05         63.6 
         -10      41.4473  0.000149108  3.25457e-05      63.5966 
         -10      41.6448  0.000148958  3.25493e-05      63.5932 
         -10      41.8429  0.000148809  3.25439e-05      63.5898 
         -10      42.0414   0.00014866  3.25399e-05      63.5863 
         -10      42.2405   0.00014851  3.25457e-05      63.5829 
         -10      42.4399  0.000148355  3.25675e-05      63.5794 
         -10      42.6399  0.000148194  3.26096e-05       63.576 
         -10      42.8404  0.000148025  3.26744e-05      63.5725 
         -10      43.0412  0.000147847  3.27624e-05       63.569 
         -10      43.2426  0.000147659  3.28728e-05      63.5654 
         -10      43.4444   0.00014746  3.30031e-05      63.5619 
         -10      43.6467  0.000147251  3.31498e-05      63.5583 
         -10      43.8494  0.000147034   3.3308e-05      63.5547 
         -10      44.0527   0.00014681  3.34726e-05      63.5512 
         -10      44.2563  0.000146583  3.36373e-05      63.5476 
         -10      44.4606  0.000146355  3.37962e-05      63.5439 
         -10      44.6653  0.000146131  3.39427e-05      63.5403 
         -10      44.8704  0.000145915  3.40711e-05      63.5366 
         -10       45.076  0.000145712  3.41762e-05       63.533 
         -10       45.282  0.000145524  3.42539e-05      63.5293 
         -10      45.4886  0.000145356  3.43017e-05      63.5256 
         -10      45.6955  0.000145209  3.43189e-05      63.5219 
         -10       45.903  0.000145085  3.43071e-05      63.5181 
         -10      46.1111  0.000144981   3.4271e-05      63.5144 
         -10      46.3194  0.000144893  3.42186e-05      63.5106 
         -10      46.5283  0.000144815  3.41618e-05      63.5068 
         -10      46.7376  0.000144734   3.4117e-05       63.503 
         -10      46.9475  0.000144632  3.41059e-05      63.4992 
         -10      47.1577  0.000144488   3.4156e-05      63.4954 
         -10      47.3685   0.00014425  3.42989e-05      63.4916 
         -10      47.5798  0.000143815  3.44738e-05      63.4877 
         -10      47.7914  0.000143469  3.46422e-05      63.4839 
         -10      48.0037  0.000143199  3.47973e-05        63.48 