Variables = x, y, u, v, p

Zone, I=800, F=POINT
          20            0           -0           -0     -19.5171 
          20     0.000234 -2.84364e-06 -2.04167e-10     -19.5171 
          20     0.000939 -1.08822e-05 -7.38714e-10     -19.5171 
          20     0.002113 -2.26386e-05 -1.35084e-09     -19.5171 
          20     0.003759 -3.61248e-05 -1.59444e-09     -19.5171 
          20     0.005872  -4.9238e-05 -7.97658e-10     -19.5171 
          20     0.008457 -6.04242e-05  1.95557e-09     -19.5171 
          20      0.01151 -6.89547e-05  7.80997e-09     -19.5171 
          20     0.015036 -7.51634e-05  1.81125e-08     -19.5171 
          20     0.019031 -8.02345e-05  3.42859e-08     -19.5171 
          20     0.023493 -8.57756e-05  5.77163e-08     -19.5171 
          20     0.028429 -9.31825e-05  8.96753e-08     -19.5171 
          20     0.033831 -0.000103003  1.31062e-07     -19.5171 
          20     0.039706  -0.00011468  1.82549e-07     -19.5171 
          20     0.046047 -0.000126754  2.44414e-07     -19.5171 
          20     0.052863 -0.000137812  3.16971e-07     -19.5171 
          20      0.06015 -0.000147702  4.00516e-07     -19.5171 
          20       0.0679 -0.000158271  4.95517e-07     -19.5171 
          20     0.076126 -0.000171559  6.02663e-07     -19.5171 
          20     0.084816 -0.000183015  7.20928e-07     -19.5171 
          20     0.093982 -0.000194208  8.47874e-07     -19.5171 
          20     0.103611 -0.000205376  9.82904e-07     -19.5171 
          20     0.113718 -0.000216322  1.12476e-06     -19.5171 
          20     0.124286 -0.000226852  1.27136e-06     -19.5171 
          20     0.135333 -0.000236854  1.42079e-06     -19.5171 
          20      0.14685 -0.000246228  1.57053e-06     -19.5171 
          20     0.158827 -0.000254909  1.71793e-06     -19.5171 
          20     0.171284 -0.000262872   1.8607e-06     -19.5171 
          20     0.184201 -0.000270062  1.99615e-06     -19.5171 
          20     0.197599 -0.000276438  2.12215e-06     -19.5171 
          20     0.211455 -0.000281922  2.23619e-06     -19.5171 
          20     0.225792 -0.000286471  2.33598e-06     -19.5171 
          20       0.2406 -0.000290107  2.41822e-06     -19.5171 
          20     0.255865 -0.000292934  2.48084e-06     -19.5171 
          20     0.271613 -0.000294826  2.52443e-06     -19.5171 
          20     0.287818 -0.000295895  2.54452e-06     -19.5171 
          20     0.304506 -0.000296186  2.53967e-06     -19.5171 
          20      0.32165 -0.000295756  2.50781e-06     -19.5171 
          20     0.339278 -0.000294684  2.44622e-06      -19.517 
          20     0.357377 -0.000293065  2.35128e-06      -19.517 
          20      0.37593 -0.000291012  2.21849e-06      -19.517 
          20     0.394968 -0.000288636  2.04461e-06      -19.517 
          20     0.414461 -0.000286063  1.82491e-06      -19.517 
          20      0.43444  -0.00028341  1.55374e-06      -19.517 
          20     0.454872 -0.000280799  1.22609e-06      -19.517 
          20     0.475791 -0.000278333  8.36119e-07      -19.517 
          20     0.497163 -0.000276105  3.79551e-07      -19.517 
          20     0.519021 -0.000274182 -1.48485e-07      -19.517 
          20      0.54135 -0.000272607  -7.5083e-07      -19.517 
          20     0.564131 -0.000271395 -1.42867e-06      -19.517 
          20       0.5874 -0.000270524 -2.18323e-06      -19.517 
          20     0.611121 -0.000269943 -3.01164e-06      -19.517 
          20      0.63533 -0.000269569  -3.9115e-06      -19.517 
          20      0.65999 -0.000269298 -4.87588e-06      -19.517 
          20     0.685139 -0.000269016   -5.899e-06      -19.517 
          20     0.710759 -0.000268616 -6.97176e-06     -19.5169 
          20     0.736828 -0.000267995 -8.08283e-06     -19.5169 
          20     0.763387 -0.000267033 -9.22638e-06     -19.5169 
          20     0.790396 -0.000265654 -1.03931e-05     -19.5169 
          20     0.817896 -0.000263796 -1.15767e-05     -19.5169 
          20     0.845843 -0.000261422 -1.27674e-05     -19.5169 
          20     0.874283   -0.0002585 -1.39602e-05     -19.5169 
          20      0.90317 -0.000255027 -1.51473e-05     -19.5169 
          20     0.932551 -0.000251003 -1.63265e-05     -19.5169 
          20     0.962401 -0.000246448 -1.74939e-05     -19.5168 
          20     0.992697 -0.000241399 -1.86467e-05     -19.5168 
          20      1.02349 -0.000235881 -1.97841e-05     -19.5168 
          20      1.05472 -0.000229937 -2.09042e-05     -19.5168 
          20      1.08645 -0.000223592 -2.20077e-05     -19.5168 
          20      1.11863 -0.000216889 -2.30896e-05     -19.5168 
          20       1.1513 -0.000209843 -2.41448e-05     -19.5167 
          20      1.18444  -0.00020251 -2.51765e-05     -19.5167 
          20      1.21802 -0.000194908 -2.61836e-05     -19.5167 
          20      1.25211 -0.000187044 -2.71621e-05     -19.5167 
          20      1.28663 -0.000178973 -2.81141e-05     -19.5167 
          20      1.32165 -0.000170711 -2.90409e-05     -19.5166 
          20      1.35712 -0.000162294 -2.99385e-05     -19.5166 
          20      1.39308 -0.000153727 -3.08055e-05     -19.5166 
          20      1.42951 -0.000145037 -3.16392e-05     -19.5166 
          20      1.46638 -0.000136258 -3.24383e-05     -19.5165 
          20      1.50375 -0.000127403 -3.32049e-05     -19.5165 
          20      1.54156  -0.00011852 -3.39385e-05     -19.5165 
          20      1.57987 -0.000109625 -3.46386e-05     -19.5165 
          20      1.61863 -0.000100757 -3.52995e-05     -19.5164 
          20      1.65788 -9.19368e-05 -3.59257e-05     -19.5164 
          20      1.69757 -8.32082e-05 -3.65127e-05     -19.5164 
          20      1.73776  -7.4598e-05  -3.7063e-05     -19.5163 
          20      1.77842 -6.61366e-05 -3.75764e-05     -19.5163 
          20      1.81952  -5.7889e-05  -3.8049e-05     -19.5163 
          20      1.86113 -4.98834e-05 -3.84852e-05     -19.5162 
          20      1.90316 -4.21635e-05 -3.88863e-05     -19.5162 
          20      1.94571 -3.47504e-05 -3.92534e-05     -19.5161 
          20      1.98869 -2.76903e-05 -3.95853e-05     -19.5161 
          20      2.03217 -2.10031e-05 -3.98818e-05     -19.5161 
          20      2.07612 -1.47267e-05 -4.01409e-05      -19.516 
          20      2.12051 -8.88962e-06 -4.03612e-05      -19.516 
          20       2.1654 -3.47742e-06 -4.05445e-05     -19.5159 
          20      2.21073  1.49438e-06 -4.06912e-05     -19.5159 
          20      2.25656  6.03191e-06 -4.08028e-05     -19.5158 
          20      2.30283  1.01319e-05 -4.08808e-05     -19.5158 
          20       2.3496  1.38114e-05 -4.09261e-05     -19.5157 
          20      2.39685  1.70866e-05  -4.0937e-05     -19.5157 
          20      2.44452   1.9987e-05 -4.09074e-05     -19.5156 
          20      2.49271  2.25532e-05 -4.08357e-05     -19.5156 
          20      2.54132  2.47654e-05 -4.07538e-05     -19.5155 
          20      2.59044  2.66831e-05 -4.06239e-05     -19.5155 
          20         2.64  2.83273e-05 -4.04578e-05     -19.5154 
          20      2.69006  2.97275e-05 -4.02601e-05     -19.5154 
          20      2.74056  3.09125e-05 -4.00301e-05     -19.5153 
          20      2.79156  3.19146e-05 -3.97735e-05     -19.5152 
          20      2.84304   3.2747e-05 -3.94741e-05     -19.5152 
          20      2.89494  3.34348e-05 -3.91308e-05     -19.5151 
          20      2.94735  3.39996e-05 -3.87432e-05     -19.5151 
          20       3.0002  3.44552e-05 -3.83114e-05      -19.515 
          20      3.05355  3.48117e-05 -3.78328e-05     -19.5149 
          20      3.10733  3.50726e-05 -3.73059e-05     -19.5149 
          20      3.16163  3.52393e-05 -3.67276e-05     -19.5148 
          20      3.21639    3.531e-05 -3.60976e-05     -19.5147 
          20      3.27158  3.52841e-05  -3.5419e-05     -19.5147 
          20      3.32729  3.51642e-05 -3.46996e-05     -19.5146 
          20      3.38342  3.49606e-05 -3.39591e-05     -19.5145 
          20      3.44007  3.46255e-05 -3.31513e-05     -19.5144 
          20      3.49714  3.42195e-05 -3.23391e-05     -19.5144 
          20      3.55472    3.372e-05 -3.15124e-05     -19.5143 
          20      3.61273  3.31196e-05 -3.06684e-05     -19.5142 
          20      3.67125  3.24286e-05 -2.98147e-05     -19.5141 
          20      3.73025  3.16666e-05 -2.89654e-05      -19.514 
          20      3.78967  3.08527e-05 -2.81328e-05     -19.5139 
          20      3.84961  2.99968e-05 -2.73215e-05     -19.5139 
          20      3.90996  2.91014e-05 -2.65317e-05     -19.5138 
          20      3.97084  2.81572e-05 -2.57557e-05     -19.5137 
          20      4.03214  2.71538e-05 -2.49896e-05     -19.5136 
          20      4.09395  2.60855e-05  -2.4238e-05     -19.5135 
          20      4.15624  2.49725e-05 -2.35343e-05     -19.5134 
          20      4.21895  2.39772e-05 -2.29133e-05     -19.5133 
          20      4.28217  2.29681e-05 -2.22756e-05     -19.5132 
          20      4.34582  2.18273e-05 -2.15747e-05     -19.5131 
          20      4.40998  2.07104e-05 -2.09922e-05     -19.5131 
          20      4.47457  1.95987e-05 -2.04443e-05      -19.513 
          20      4.53968  1.84817e-05 -1.98916e-05     -19.5129 
          20      4.60525  1.73595e-05 -1.93275e-05     -19.5128 
          20      4.67125  1.62375e-05 -1.87634e-05     -19.5127 
          20      4.73777  1.51208e-05 -1.82158e-05     -19.5126 
          20       4.8047  1.40177e-05 -1.77004e-05     -19.5125 
          20      4.87216  1.29315e-05  -1.7222e-05     -19.5123 
          20      4.94003  1.18657e-05 -1.67755e-05     -19.5122 
          20      5.00843  1.08173e-05 -1.63432e-05     -19.5121 
          20      5.07724  9.78371e-06 -1.59043e-05      -19.512 
          20      5.14658  8.75767e-06 -1.54422e-05     -19.5119 
          20      5.21639   7.7359e-06 -1.49641e-05     -19.5118 
          20      5.28661  6.72051e-06 -1.45237e-05     -19.5117 
          20      5.35736  5.72209e-06  -1.4251e-05     -19.5116 
          20      5.42852  4.87572e-06 -1.39213e-05     -19.5115 
          20      5.50021  3.97106e-06 -1.34052e-05     -19.5114 
          20      5.57231  2.96165e-06 -1.29525e-05     -19.5113 
          20      5.64493  2.01735e-06  -1.2638e-05     -19.5111 
          20      5.71803  1.13226e-06 -1.23916e-05      -19.511 
          20      5.79154  2.58011e-07 -1.21172e-05     -19.5109 
          20      5.86558 -6.05637e-07 -1.18159e-05     -19.5108 
          20      5.94003 -1.45297e-06 -1.14988e-05     -19.5107 
          20      6.01501 -2.28056e-06 -1.11797e-05     -19.5105 
          20       6.0904 -3.08389e-06  -1.0872e-05     -19.5104 
          20      6.16632 -3.86408e-06 -1.05828e-05     -19.5103 
          20      6.24271 -4.62379e-06 -1.03127e-05     -19.5102 
          20       6.3195  -5.3688e-06 -1.00552e-05     -19.5101 
          20      6.39683 -6.10827e-06  -9.7973e-06     -19.5099 
          20      6.47457 -6.84773e-06 -9.52541e-06     -19.5098 
          20      6.55284 -7.58976e-06 -9.23035e-06     -19.5097 
          20      6.63152 -8.32364e-06 -8.91864e-06     -19.5095 
          20      6.71073 -9.02262e-06 -8.62344e-06     -19.5094 
          20      6.79034 -9.63028e-06 -8.42273e-06     -19.5093 
          20      6.87049 -1.03654e-05 -8.04967e-06     -19.5092 
          20      6.95111  -1.1102e-05 -7.73502e-06      -19.509 
          20      7.03214 -1.18143e-05 -7.45965e-06     -19.5089 
          20       7.1137 -1.25074e-05 -7.18135e-06     -19.5088 
          20      7.19566 -1.31804e-05 -6.88421e-06     -19.5086 
          20      7.27816 -1.38283e-05 -6.57477e-06     -19.5085 
          20      7.36106 -1.44315e-05 -6.28009e-06     -19.5084 
          20      7.44451 -1.51257e-05 -5.94338e-06     -19.5082 
          20      7.52842 -1.58078e-05 -5.65258e-06     -19.5081 
          20      7.61273 -1.64062e-05 -5.42962e-06     -19.5079 
          20      7.69758 -1.69428e-05 -5.23224e-06     -19.5078 
          20      7.78283 -1.74457e-05 -5.01779e-06     -19.5077 
          20      7.86862 -1.79475e-05 -4.75585e-06     -19.5075 
          20      7.95481 -1.84742e-05 -4.44568e-06     -19.5074 
          20      8.04155 -1.90401e-05 -4.13237e-06     -19.5072 
          20      8.12868 -1.96334e-05  -3.9285e-06     -19.5071 
          20      8.21635 -2.01093e-05 -3.69523e-06     -19.5069 
          20      8.30449  -2.0507e-05 -3.41642e-06     -19.5068 
          20      8.39303 -2.09205e-05 -3.22956e-06     -19.5067 
          20      8.48211 -2.13426e-05 -3.06289e-06     -19.5065 
          20      8.57159 -2.17662e-05  -2.8797e-06     -19.5064 
          20      8.66161 -2.21879e-05 -2.66825e-06     -19.5062 
          20      8.75203 -2.26054e-05 -2.43469e-06     -19.5061 
          20      8.84299 -2.30209e-05  -2.1943e-06     -19.5059 
          20      8.93443 -2.34374e-05 -1.96633e-06     -19.5058 
          20      9.02626   -2.386e-05   -1.768e-06     -19.5056 
          20      9.11863 -2.42952e-05 -1.60997e-06     -19.5055 
          20      9.21139 -2.47472e-05 -1.49471e-06     -19.5053 
          20      9.30471 -2.52185e-05 -1.41449e-06     -19.5052 
          20      9.39841 -2.57046e-05 -1.35284e-06      -19.505 
          20      9.49267 -2.61934e-05 -1.28676e-06     -19.5049 
          20      9.58739 -2.66589e-05 -1.19206e-06     -19.5047 
          20      9.68251 -2.70576e-05 -1.05061e-06     -19.5045 
          20      9.77817 -2.73243e-05 -8.60024e-07     -19.5044 
          20      9.87422 -2.76033e-05 -8.47188e-07     -19.5042 
          20      9.97083 -2.80016e-05 -9.41152e-07     -19.5041 
          20      10.0678 -2.83731e-05 -7.92422e-07     -19.5039 
          20      10.1654 -2.88178e-05 -7.99186e-07     -19.5037 
          20      10.2633 -2.91633e-05 -8.90099e-07     -19.5036 
          20      10.3618 -2.94351e-05 -9.57465e-07     -19.5034 
          20      10.4607 -2.96725e-05 -1.00227e-06     -19.5033 
          20      10.5601 -2.98993e-05 -1.03011e-06     -19.5031 
          20        10.66 -3.01264e-05 -1.04978e-06     -19.5029 
          20      10.7603 -3.05528e-05 -9.44779e-07     -19.5028 
          20      10.8611 -3.10422e-05 -8.47604e-07     -19.5026 
          20      10.9623 -3.15033e-05 -8.03018e-07     -19.5024 
          20      11.0641 -3.19318e-05  -7.9328e-07     -19.5023 
          20      11.1663 -3.23234e-05 -8.03443e-07     -19.5021 
          20       11.269 -3.26745e-05 -8.21803e-07     -19.5019 
          20      11.3721 -3.29843e-05 -8.40409e-07     -19.5018 
          20      11.4757 -3.32521e-05  -8.5509e-07     -19.5016 
          20      11.5798 -3.34803e-05 -8.65393e-07     -19.5014 
          20      11.6844 -3.36721e-05  -8.7401e-07     -19.5013 
          20      11.7894 -3.38332e-05 -8.86027e-07     -19.5011 
          20       11.895 -3.39705e-05 -9.07666e-07     -19.5009 
          20      12.0009 -3.40921e-05 -9.44649e-07     -19.5007 
          20      12.1073 -3.42068e-05 -1.00026e-06     -19.5006 
          20      12.2142 -3.43233e-05 -1.07258e-06     -19.5004 
          20      12.3216 -3.44498e-05 -1.15174e-06     -19.5002 
          20      12.4294  -3.4592e-05 -1.21593e-06        -19.5 
          20      12.5378 -3.46277e-05 -1.22319e-06     -19.4998 
          20      12.6465 -3.46699e-05 -1.22657e-06     -19.4997 
          20      12.7558 -3.47449e-05 -1.23836e-06     -19.4995 
          20      12.8656 -3.48373e-05 -1.25894e-06     -19.4993 
          20      12.9757 -3.49374e-05 -1.28745e-06     -19.4991 
          20      13.0864 -3.50411e-05 -1.32117e-06     -19.4989 
          20      13.1975 -3.51476e-05 -1.35481e-06     -19.4988 
          20      13.3092 -3.52591e-05  -1.3803e-06     -19.4986 
          20      13.4212 -3.53788e-05 -1.38649e-06     -19.4984 
          20      13.5338 -3.55105e-05 -1.35939e-06     -19.4982 
          20      13.6468 -3.56561e-05 -1.28239e-06      -19.498 
          20      13.7603 -3.58436e-05 -1.15557e-06     -19.4978 
          20      13.8743 -3.60651e-05 -1.02533e-06     -19.4976 
          20      13.9886 -3.63024e-05 -9.05222e-07     -19.4974 
          20      14.1036 -3.65428e-05 -8.00513e-07     -19.4973 
          20      14.2189 -3.67755e-05 -7.09682e-07     -19.4971 
          20      14.3348  -3.6993e-05 -6.25289e-07     -19.4969 
          20       14.451 -3.71885e-05 -5.38565e-07     -19.4967 
          20      14.5678 -3.73562e-05 -4.45483e-07     -19.4965 
          20      14.6851 -3.74878e-05 -3.56745e-07     -19.4963 
          20      14.8028 -3.75699e-05 -3.10113e-07     -19.4961 
          20       14.921 -3.74736e-05 -2.46684e-07     -19.4959 
          20      15.0396 -3.73935e-05  -2.6708e-07     -19.4957 
          20      15.1588 -3.73923e-05  -3.1745e-07     -19.4955 
          20      15.2783 -3.74269e-05 -3.16567e-07     -19.4953 
          20      15.3984 -3.74584e-05 -2.59649e-07     -19.4951 
          20       15.519 -3.74478e-05 -2.08122e-07     -19.4949 
          20        15.64  -3.7352e-05 -2.81458e-07     -19.4947 
          20      15.7615 -3.75174e-05 -2.88668e-07     -19.4945 
          20      15.8834 -3.77062e-05 -2.76014e-07     -19.4943 
          20      16.0058 -3.78526e-05 -2.72432e-07     -19.4941 
          20      16.1286 -3.79523e-05 -2.71192e-07     -19.4938 
          20       16.252 -3.80102e-05  -2.6476e-07     -19.4936 
          20      16.3759 -3.80374e-05 -2.47012e-07     -19.4934 
          20      16.5002 -3.80495e-05 -2.14788e-07     -19.4932 
          20       16.625 -3.80639e-05 -1.68548e-07      -19.493 
          20      16.7501 -3.80969e-05 -1.12543e-07     -19.4928 
          20      16.8759 -3.81613e-05 -5.36253e-08     -19.4926 
          20       17.002 -3.82629e-05  2.69982e-10     -19.4923 
          20      17.1287  -3.8397e-05  4.33402e-08     -19.4921 
          20      17.2557 -3.85448e-05  7.55456e-08     -19.4919 
          20      17.3834 -3.86696e-05  1.08007e-07     -19.4917 
          20      17.5115 -3.87121e-05  1.69193e-07     -19.4915 
          20      17.6399 -3.86234e-05  1.48198e-07     -19.4912 
          20       17.769 -3.86192e-05 -9.01808e-08      -19.491 
          20      17.8984 -3.86975e-05 -1.97119e-07     -19.4908 
          20      18.0284 -3.88183e-05  -2.2453e-07     -19.4905 
          20      18.1587 -3.89508e-05 -2.08005e-07     -19.4903 
          20      18.2896 -3.90724e-05 -1.70173e-07     -19.4901 
          20       18.421  -3.9167e-05  -1.2436e-07     -19.4899 
          20      18.5528 -3.92243e-05 -7.89421e-08     -19.4896 
          20      18.6851 -3.92395e-05 -4.22692e-08     -19.4894 
          20      18.8178 -3.92127e-05 -2.87128e-08     -19.4891 
          20      18.9511 -3.91487e-05 -6.50994e-08     -19.4889 
          20      19.0847 -3.90584e-05 -1.98142e-07     -19.4887 
          20      19.2189 -3.89588e-05 -5.03187e-07     -19.4884 
          20      19.3535 -3.90646e-05 -3.75602e-07     -19.4882 
          20      19.4886 -3.90868e-05 -3.30975e-07     -19.4879 
          20      19.6242  -3.9046e-05 -3.54993e-07     -19.4877 
          20      19.7602 -3.89665e-05 -4.26863e-07     -19.4874 
          20      19.8968 -3.88716e-05 -5.28093e-07     -19.4872 
          20      20.0337 -3.87826e-05 -6.42276e-07     -19.4869 
          20      20.1712 -3.87166e-05 -7.56001e-07     -19.4867 
          20      20.3091 -3.86852e-05 -8.58578e-07     -19.4864 
          20      20.4475 -3.86923e-05 -9.43218e-07     -19.4862 
          20      20.5864 -3.87316e-05 -1.00704e-06     -19.4859 
          20      20.7257 -3.87841e-05 -1.05207e-06     -19.4857 
          20      20.8655 -3.88156e-05 -1.08607e-06     -19.4854 
          20      21.0058 -3.87726e-05 -1.12325e-06     -19.4851 
          20      21.1465 -3.85794e-05 -1.18549e-06     -19.4849 
          20      21.2877 -3.81348e-05 -1.30322e-06     -19.4846 
          20      21.4294 -3.86044e-05 -1.23982e-06     -19.4844 
          20      21.5716 -3.89635e-05 -1.22008e-06     -19.4841 
          20      21.7142 -3.91801e-05 -1.23935e-06     -19.4838 
          20      21.8573 -3.92891e-05 -1.28198e-06     -19.4835 
          20      22.0008 -3.93197e-05 -1.33632e-06     -19.4833 
          20      22.1449 -3.92966e-05 -1.39435e-06      -19.483 
          20      22.2893 -3.92397e-05 -1.45076e-06     -19.4827 
          20      22.4344 -3.91649e-05 -1.50285e-06     -19.4824 
          20      22.5797 -3.90843e-05 -1.54956e-06     -19.4822 
          20      22.7257 -3.90069e-05 -1.59143e-06     -19.4819 
          20      22.8721 -3.89387e-05 -1.62979e-06     -19.4816 
          20      23.0189 -3.88832e-05 -1.66657e-06     -19.4813 
          20      23.1663 -3.88418e-05 -1.70394e-06      -19.481 
          20       23.314 -3.88142e-05 -1.74387e-06     -19.4807 
          20      23.4623 -3.87987e-05 -1.78806e-06     -19.4804 
          20       23.611 -3.87927e-05 -1.83749e-06     -19.4801 
          20      23.7602 -3.87928e-05 -1.89261e-06     -19.4798 
          20        23.91 -3.87954e-05 -1.95294e-06     -19.4795 
          20        24.06 -3.87969e-05 -2.01718e-06     -19.4793 
          20      24.2107  -3.8794e-05 -2.08346e-06     -19.4789 
          20      24.3617 -3.87841e-05 -2.14914e-06     -19.4786 
          20      24.5133 -3.87654e-05 -2.21141e-06     -19.4783 
          20      24.6653 -3.87372e-05 -2.26723e-06      -19.478 
          20      24.8178 -3.87002e-05 -2.31413e-06     -19.4777 
          20      24.9708 -3.86568e-05 -2.35039e-06     -19.4774 
          20      25.1242 -3.86108e-05 -2.37584e-06     -19.4771 
          20      25.2781  -3.8568e-05  -2.3926e-06     -19.4768 
          20      25.4324 -3.85364e-05 -2.40582e-06     -19.4765 
          20      25.5873 -3.85255e-05 -2.42476e-06     -19.4761 
          20      25.7426 -3.85475e-05 -2.46377e-06     -19.4758 
          20      25.8984 -3.86161e-05 -2.54372e-06     -19.4755 
          20      26.0546 -3.87472e-05 -2.69305e-06     -19.4752 
          20      26.2114  -3.8983e-05 -2.87999e-06     -19.4749 
          20      26.3686 -3.92057e-05 -2.95798e-06     -19.4745 
          20      26.5262 -3.92226e-05 -3.12684e-06     -19.4742 
          20      26.6844 -3.90118e-05 -3.40827e-06     -19.4739 
          20      26.8429 -3.91459e-05  -2.9517e-06     -19.4735 
          20       27.002 -3.91689e-05 -2.74138e-06     -19.4732 
          20      27.1615 -3.90893e-05  -2.7531e-06     -19.4728 
          20      27.3216 -3.89438e-05 -2.92609e-06     -19.4725 
          20      27.4821 -3.87781e-05 -3.12168e-06     -19.4722 
          20       27.643 -3.86672e-05  -3.1404e-06     -19.4718 
          20      27.8044 -3.86029e-05 -3.17775e-06     -19.4715 
          20      27.9663 -3.85691e-05 -3.22505e-06     -19.4711 
          20      28.1287 -3.85522e-05 -3.27561e-06     -19.4708 
          20      28.2914 -3.85421e-05 -3.32424e-06     -19.4704 
          20      28.4548 -3.85311e-05 -3.36729e-06       -19.47 
          20      28.6185 -3.85139e-05 -3.40212e-06     -19.4697 
          20      28.7828 -3.84875e-05 -3.42715e-06     -19.4693 
          20      28.9475  -3.8451e-05 -3.44152e-06      -19.469 
          20      29.1126 -3.84049e-05 -3.44499e-06     -19.4686 
          20      29.2784 -3.83511e-05 -3.43779e-06     -19.4682 
          20      29.4444 -3.82929e-05 -3.42057e-06     -19.4678 
          20       29.611 -3.82339e-05 -3.39419e-06     -19.4675 
          20       29.778 -3.81785e-05 -3.35986e-06     -19.4671 
          20      29.9456 -3.81308e-05 -3.31893e-06     -19.4667 
          20      30.1137 -3.80949e-05  -3.2731e-06     -19.4663 
          20      30.2821 -3.80741e-05 -3.22441e-06      -19.466 
          20      30.4511 -3.80705e-05 -3.17521e-06     -19.4656 
          20      30.6204 -3.80848e-05 -3.12861e-06     -19.4652 
          20      30.7903 -3.81158e-05 -3.08829e-06     -19.4648 
          20      30.9606 -3.81599e-05 -3.05912e-06     -19.4644 
          20      31.1315 -3.82105e-05 -3.04713e-06      -19.464 
          20      31.3028 -3.82577e-05 -3.06007e-06     -19.4636 
          20      31.4745  -3.8288e-05 -3.10763e-06     -19.4632 
          20      31.6468 -3.82831e-05 -3.20211e-06     -19.4628 
          20      31.8194 -3.82201e-05 -3.35853e-06     -19.4624 
          20      31.9926 -3.80704e-05 -3.59592e-06      -19.462 
          20      32.1662 -3.77996e-05 -3.93684e-06     -19.4616 
          20      32.3404 -3.73662e-05  -4.4097e-06     -19.4612 
          20      32.5149 -3.76313e-05 -3.96596e-06     -19.4608 
          20        32.69 -3.78034e-05  -3.6276e-06     -19.4603 
          20      32.8655 -3.78482e-05 -3.45287e-06     -19.4599 
          20      33.0414 -3.78199e-05 -3.38799e-06     -19.4595 
          20       33.218 -3.77602e-05 -3.39026e-06     -19.4591 
          20      33.3948    -3.77e-05 -3.42723e-06     -19.4586 
          20      33.5723 -3.76596e-05  -3.4755e-06     -19.4582 
          20        33.75 -3.76499e-05 -3.51953e-06     -19.4578 
          20      33.9284 -3.76731e-05 -3.55078e-06     -19.4573 
          20      34.1073 -3.77239e-05 -3.56649e-06     -19.4569 
          20      34.2865 -3.77907e-05 -3.56872e-06     -19.4565 
          20      34.4663 -3.78565e-05  -3.5633e-06      -19.456 
          20      34.6465 -3.79002e-05  -3.5588e-06     -19.4556 
          20      34.8272  -3.7898e-05 -3.56553e-06     -19.4551 
          20      35.0083 -3.78249e-05 -3.59453e-06     -19.4547 
          20        35.19 -3.76556e-05 -3.65669e-06     -19.4542 
          20      35.3721 -3.73669e-05 -3.76169e-06     -19.4538 
          20      35.5546 -3.72927e-05 -3.96843e-06     -19.4533 
          20      35.7377 -3.73416e-05 -4.18962e-06     -19.4529 
          20      35.9211 -3.73513e-05 -4.37882e-06     -19.4524 
          20      36.1052 -3.73277e-05  -4.5318e-06     -19.4519 
          20      36.2895  -3.7277e-05 -4.64588e-06     -19.4515 
          20      36.4745 -3.72057e-05 -4.72087e-06      -19.451 
          20      36.6598 -3.71206e-05 -4.75823e-06     -19.4505 
          20      36.8457  -3.7028e-05 -4.76147e-06       -19.45 
          20      37.0321 -3.69343e-05 -4.73566e-06     -19.4496 
          20      37.2188 -3.68456e-05 -4.68739e-06     -19.4491 
          20      37.4062 -3.67676e-05 -4.62428e-06     -19.4486 
          20      37.5938 -3.67054e-05  -4.5549e-06     -19.4481 
          20      37.7821 -3.66642e-05 -4.48799e-06     -19.4476 
          20      37.9707 -3.66484e-05  -4.4324e-06     -19.4471 
          20      38.1599 -3.66626e-05 -4.39612e-06     -19.4466 
          20      38.3496 -3.67112e-05 -4.38599e-06     -19.4461 
          20      38.5396 -3.67984e-05  -4.4068e-06     -19.4456 
          20      38.7302 -3.69293e-05 -4.46061e-06     -19.4451 
          20      38.9211 -3.71089e-05 -4.54575e-06     -19.4446 
          20      39.1127 -3.72247e-05 -4.56426e-06     -19.4441 
          20      39.3046 -3.70468e-05 -4.43379e-06     -19.4436 
          20      39.4971 -3.69207e-05 -4.43407e-06     -19.4431 
          20      39.6899 -3.68455e-05 -4.51368e-06     -19.4426 
          20      39.8833 -3.68164e-05 -4.63291e-06     -19.4421 
          20      40.0772 -3.68259e-05 -4.76194e-06     -19.4415 
          20      40.2714  -3.6864e-05 -4.87937e-06      -19.441 
          20      40.4663 -3.69196e-05 -4.97118e-06     -19.4405 
          20      40.6615 -3.69803e-05 -5.02883e-06       -19.44 
          20      40.8573 -3.70337e-05 -5.04872e-06     -19.4394 
          20      41.0534  -3.7068e-05 -5.03084e-06     -19.4389 
          20      41.2501 -3.70727e-05 -4.97814e-06     -19.4383 
          20      41.4473 -3.70395e-05 -4.89592e-06     -19.4378 
          20      41.6448 -3.69629e-05 -4.79149e-06     -19.4373 
          20      41.8429 -3.68412e-05 -4.67353e-06     -19.4367 
          20      42.0414 -3.66773e-05 -4.55276e-06     -19.4362 
          20      42.2405 -3.64793e-05 -4.44135e-06     -19.4356 
          20      42.4399 -3.62621e-05 -4.35411e-06     -19.4351 
          20      42.6399  -3.6047e-05 -4.30848e-06     -19.4345 
          20      42.8404 -3.58642e-05 -4.32601e-06     -19.4339 
          20      43.0412 -3.57525e-05 -4.43309e-06     -19.4334 
          20      43.2426 -3.58947e-05 -4.55666e-06     -19.4328 
          20      43.4444 -3.62009e-05 -4.57729e-06     -19.4323 
          20      43.6467 -3.64413e-05 -4.59523e-06     -19.4317 
          20      43.8494 -3.66245e-05 -4.61389e-06     -19.4311 
          20      44.0527 -3.67588e-05 -4.63568e-06     -19.4305 
          20      44.2563 -3.68511e-05 -4.66205e-06       -19.43 
          20      44.4606 -3.69079e-05  -4.6937e-06     -19.4294 
          20      44.6653  -3.6935e-05 -4.73065e-06     -19.4288 
          20      44.8704 -3.69372e-05 -4.77233e-06     -19.4282 
          20       45.076 -3.69189e-05 -4.81787e-06     -19.4276 
          20       45.282 -3.68841e-05 -4.86593e-06      -19.427 
          20      45.4886  -3.6836e-05 -4.91511e-06     -19.4264 
          20      45.6955 -3.67774e-05 -4.96373e-06     -19.4258 
          20       45.903 -3.67108e-05 -5.01024e-06     -19.4252 
          20      46.1111  -3.6638e-05 -5.05302e-06     -19.4246 
          20      46.3194  -3.6561e-05 -5.09053e-06      -19.424 
          20      46.5283 -3.64809e-05 -5.12155e-06     -19.4234 
          20      46.7376 -3.63991e-05 -5.14493e-06     -19.4228 
          20      46.9475 -3.63163e-05 -5.15988e-06     -19.4222 
          20      47.1577 -3.62334e-05 -5.16583e-06     -19.4216 
          20      47.3685  -3.6151e-05 -5.16254e-06      -19.421 
          20      47.5798 -3.60695e-05 -5.15008e-06     -19.4203 
          20      47.7914 -3.59895e-05 -5.12883e-06     -19.4197 
          20      48.0037 -3.59112e-05  -5.0994e-06     -19.4191 