Variables = x, y, u, v, p

Zone, I=800, F=POINT
         400            0           -0           -0     -17.5195 
         400     0.000234 -4.71214e-07  4.50377e-11     -17.5195 
         400     0.000939 -2.14355e-06  7.20652e-10     -17.5195 
         400     0.002113 -5.69964e-06  3.63227e-09     -17.5195 
         400     0.003759 -1.20785e-05  1.14296e-08     -17.5195 
         400     0.005872 -2.21632e-05  2.76915e-08     -17.5195 
         400     0.008457 -3.65912e-05  5.69411e-08     -17.5195 
         400      0.01151 -5.54837e-05  1.04395e-07     -17.5195 
         400     0.015036 -7.85043e-05  1.76048e-07     -17.5195 
         400     0.019031 -0.000104885  2.78241e-07     -17.5195 
         400     0.023493 -0.000133777  4.17635e-07     -17.5195 
         400     0.028429 -0.000164654  6.01364e-07     -17.5195 
         400     0.033831  -0.00019743  8.36014e-07     -17.5195 
         400     0.039706 -0.000232701  1.12855e-06     -17.5195 
         400     0.046047 -0.000271256  1.48489e-06     -17.5195 
         400     0.052863 -0.000313587  1.91124e-06     -17.5195 
         400      0.06015 -0.000358964  2.41234e-06     -17.5195 
         400       0.0679 -0.000405417  2.99157e-06     -17.5195 
         400     0.076126  -0.00045198  3.65282e-06     -17.5195 
         400     0.084816 -0.000503389  4.39686e-06     -17.5195 
         400     0.093982 -0.000554157  5.22517e-06     -17.5195 
         400     0.103611 -0.000606273  6.13565e-06     -17.5195 
         400     0.113718 -0.000659266  7.12735e-06     -17.5195 
         400     0.124286  -0.00071253  8.19488e-06     -17.5195 
         400     0.135333  -0.00076569  9.33492e-06     -17.5195 
         400      0.14685 -0.000818284  1.05402e-05     -17.5195 
         400     0.158827 -0.000869901   1.1802e-05     -17.5195 
         400     0.171284 -0.000920286  1.31136e-05     -17.5195 
         400     0.184201 -0.000969025  1.44634e-05     -17.5195 
         400     0.197599  -0.00101586  1.58431e-05     -17.5195 
         400     0.211455  -0.00106035  1.72394e-05     -17.5195 
         400     0.225792  -0.00110226  1.86432e-05     -17.5195 
         400       0.2406  -0.00114135  2.00421e-05     -17.5195 
         400     0.255865  -0.00117756  2.14237e-05     -17.5195 
         400     0.271613  -0.00121059  2.27787e-05     -17.5195 
         400     0.287818  -0.00124039  2.40944e-05     -17.5195 
         400     0.304506  -0.00126695  2.53632e-05     -17.5195 
         400      0.32165  -0.00129023  2.65742e-05     -17.5195 
         400     0.339278  -0.00131031  2.77213e-05     -17.5195 
         400     0.357377  -0.00132723  2.87965e-05     -17.5195 
         400      0.37593  -0.00134109  2.97931e-05     -17.5195 
         400     0.394968  -0.00135206  3.07081e-05     -17.5195 
         400     0.414461  -0.00136027  3.15366e-05     -17.5195 
         400      0.43444  -0.00136593  3.22782e-05     -17.5195 
         400     0.454872  -0.00136922  3.29311e-05     -17.5195 
         400     0.475791  -0.00137033  3.34972e-05     -17.5195 
         400     0.497163  -0.00136947  3.39776e-05     -17.5195 
         400     0.519021  -0.00136683  3.43762e-05     -17.5195 
         400      0.54135  -0.00136257  3.46965e-05     -17.5195 
         400     0.564131  -0.00135687  3.49429e-05     -17.5195 
         400       0.5874  -0.00134986  3.51204e-05     -17.5195 
         400     0.611121   -0.0013417  3.52337e-05     -17.5195 
         400      0.63533  -0.00133241  3.52951e-05     -17.5195 
         400      0.65999  -0.00132226  3.53094e-05     -17.5195 
         400     0.685139  -0.00131124  3.52839e-05     -17.5195 
         400     0.710759  -0.00129935  3.52258e-05     -17.5195 
         400     0.736828  -0.00128664  3.51424e-05     -17.5195 
         400     0.763387  -0.00127307  3.50404e-05     -17.5195 
         400     0.790396  -0.00125867  3.49267e-05     -17.5195 
         400     0.817896  -0.00124343  3.48073e-05     -17.5195 
         400     0.845843  -0.00122737   3.4688e-05     -17.5195 
         400     0.874283  -0.00121047  3.45737e-05     -17.5195 
         400      0.90317  -0.00119276  3.44688e-05     -17.5195 
         400     0.932551  -0.00117424  3.43765e-05     -17.5195 
         400     0.962401  -0.00115493  3.42995e-05     -17.5195 
         400     0.992697  -0.00113488  3.42394e-05     -17.5195 
         400      1.02349  -0.00111406  3.41966e-05     -17.5195 
         400      1.05472  -0.00109257  3.41707e-05     -17.5195 
         400      1.08645  -0.00107041  3.41603e-05     -17.5195 
         400      1.11863  -0.00104767  3.41631e-05     -17.5195 
         400       1.1513  -0.00102438   3.4176e-05     -17.5195 
         400      1.18444  -0.00100063  3.41951e-05     -17.5195 
         400      1.21802  -0.00097651  3.42162e-05     -17.5195 
         400      1.25211 -0.000952071   3.4235e-05     -17.5195 
         400      1.28663 -0.000927432  3.42474e-05     -17.5195 
         400      1.32165 -0.000902628  3.42498e-05     -17.5195 
         400      1.35712 -0.000877763    3.424e-05     -17.5195 
         400      1.39308  -0.00085284  3.42175e-05     -17.5195 
         400      1.42951 -0.000827889  3.41845e-05     -17.5195 
         400      1.46638 -0.000802895  3.41466e-05     -17.5195 
         400      1.50375  -0.00077772   3.4114e-05     -17.5195 
         400      1.54156 -0.000752508  3.40214e-05     -17.5195 
         400      1.57987 -0.000727157  3.39007e-05     -17.5195 
         400      1.61863 -0.000701666  3.37583e-05     -17.5195 
         400      1.65788 -0.000675967  3.35958e-05     -17.5195 
         400      1.69757 -0.000650082  3.34149e-05     -17.5195 
         400      1.73776 -0.000623953  3.32166e-05     -17.5195 
         400      1.77842 -0.000597587  3.30022e-05     -17.5195 
         400      1.81952 -0.000571001  3.27728e-05     -17.5195 
         400      1.86113 -0.000544149  3.25287e-05     -17.5195 
         400      1.90316 -0.000517079  3.22709e-05     -17.5195 
         400      1.94571 -0.000489757  3.19993e-05     -17.5195 
         400      1.98869 -0.000462241  3.17144e-05     -17.5195 
         400      2.03217 -0.000434505   3.1416e-05     -17.5195 
         400      2.07612 -0.000406598  3.11041e-05     -17.5195 
         400      2.12051 -0.000378569  3.07789e-05     -17.5195 
         400       2.1654  -0.00035041  3.04398e-05     -17.5195 
         400      2.21073 -0.000322204  3.00869e-05     -17.5195 
         400      2.25656 -0.000293947  2.97194e-05     -17.5195 
         400      2.30283 -0.000265731  2.93377e-05     -17.5195 
         400       2.3496 -0.000237562  2.89411e-05     -17.5195 
         400      2.39685 -0.000209514  2.85296e-05     -17.5195 
         400      2.44452 -0.000181664  2.81037e-05     -17.5195 
         400      2.49271 -0.000154025  2.76628e-05     -17.5195 
         400      2.54132   -0.0001267  2.72078e-05     -17.5195 
         400      2.59044 -9.97047e-05  2.67385e-05     -17.5195 
         400         2.64 -7.31406e-05  2.62563e-05     -17.5195 
         400      2.69006 -4.70258e-05  2.57613e-05     -17.5195 
         400      2.74056 -2.14599e-05  2.52551e-05     -17.5195 
         400      2.79156  3.54066e-06  2.47383e-05     -17.5195 
         400      2.84304  2.79002e-05  2.42125e-05     -17.5195 
         400      2.89494  5.15478e-05  2.36797e-05     -17.5195 
         400      2.94735  7.44718e-05  2.31405e-05     -17.5195 
         400       3.0002  9.65893e-05  2.25974e-05     -17.5195 
         400      3.05355  0.000117893  2.20509e-05     -17.5195 
         400      3.10733  0.000138311  2.15032e-05     -17.5195 
         400      3.16163  0.000157842  2.09544e-05     -17.5195 
         400      3.21639   0.00017644  2.04053e-05     -17.5195 
         400      3.27158  0.000194064  1.98564e-05     -17.5195 
         400      3.32729  0.000210722  1.93056e-05     -17.5195 
         400      3.38342  0.000226368  1.87516e-05     -17.5195 
         400      3.44007   0.00024101  1.81899e-05     -17.5195 
         400      3.49714  0.000254612   1.7616e-05     -17.5195 
         400      3.55472   0.00026718  1.70213e-05     -17.5194 
         400      3.61273  0.000278679  1.63964e-05     -17.5194 
         400      3.67125  0.000289109  1.57271e-05     -17.5194 
         400      3.73025  0.000298435  1.49967e-05     -17.5194 
         400      3.78967  0.000306786  1.43832e-05     -17.5194 
         400      3.84961    0.0003141  1.37879e-05     -17.5194 
         400      3.90996   0.00032034  1.31314e-05     -17.5194 
         400      3.97084  0.000325574  1.24298e-05     -17.5194 
         400      4.03214  0.000329853  1.16991e-05     -17.5194 
         400      4.09395  0.000333246  1.09519e-05     -17.5194 
         400      4.15624  0.000335809  1.02004e-05     -17.5194 
         400      4.21895  0.000337601  9.45557e-06     -17.5194 
         400      4.28217  0.000338686  8.72495e-06     -17.5194 
         400      4.34582  0.000339123  8.01711e-06     -17.5194 
         400      4.40998  0.000338968  7.33708e-06     -17.5194 
         400      4.47457  0.000338281  6.69087e-06     -17.5194 
         400      4.53968  0.000337115  6.08129e-06     -17.5194 
         400      4.60525  0.000335522  5.51173e-06     -17.5194 
         400      4.67125  0.000333556  4.98451e-06     -17.5194 
         400      4.73777  0.000331259  4.49991e-06     -17.5194 
         400       4.8047  0.000328681  4.05901e-06     -17.5194 
         400      4.87216  0.000325859  3.66073e-06     -17.5194 
         400      4.94003  0.000322833  3.30467e-06     -17.5194 
         400      5.00843  0.000319634  2.98856e-06     -17.5194 
         400      5.07724  0.000316297  2.71057e-06     -17.5194 
         400      5.14658  0.000312843  2.46726e-06     -17.5194 
         400      5.21639  0.000309297  2.25511e-06     -17.5194 
         400      5.28661  0.000305682  2.06972e-06     -17.5194 
         400      5.35736  0.000302008  1.90527e-06     -17.5194 
         400      5.42852  0.000298294  1.75542e-06     -17.5194 
         400      5.50021  0.000294544  1.61195e-06     -17.5194 
         400      5.57231  0.000290772  1.46549e-06     -17.5194 
         400      5.64493  0.000286979  1.30424e-06     -17.5194 
         400      5.71803  0.000283174  1.11438e-06     -17.5194 
         400      5.79154  0.000279366  8.79292e-07     -17.5193 
         400      5.86558   0.00027555  8.65903e-07     -17.5193 
         400      5.94003  0.000271715  8.13541e-07     -17.5193 
         400      6.01501  0.000267851  7.13295e-07     -17.5193 
         400       6.0904  0.000263959  5.87397e-07     -17.5193 
         400      6.16632  0.000260036  4.66784e-07     -17.5193 
         400      6.24271  0.000256221  3.12713e-07     -17.5193 
         400       6.3195  0.000252514  1.19924e-07     -17.5193 
         400      6.39683  0.000248808  -6.3123e-08     -17.5193 
         400      6.47457  0.000245115  -2.4397e-07     -17.5193 
         400      6.55284  0.000241432 -4.27645e-07     -17.5193 
         400      6.63152   0.00023777 -6.15682e-07     -17.5193 
         400      6.71073  0.000234152 -7.39382e-07     -17.5193 
         400      6.79034  0.000230576 -8.93492e-07     -17.5193 
         400      6.87049  0.000227031 -1.07901e-06     -17.5193 
         400      6.95111  0.000223519 -1.28261e-06     -17.5193 
         400      7.03214  0.000220043 -1.49374e-06     -17.5193 
         400       7.1137  0.000216597 -1.70492e-06     -17.5193 
         400      7.19566  0.000213187 -1.91031e-06     -17.5193 
         400      7.27816  0.000209808 -2.10676e-06     -17.5193 
         400      7.36106  0.000206465 -2.29226e-06     -17.5193 
         400      7.44451  0.000203155 -2.46685e-06     -17.5193 
         400      7.52842  0.000199881  -2.6313e-06     -17.5193 
         400      7.61273  0.000196646 -2.78733e-06     -17.5193 
         400      7.69758  0.000193447 -2.93759e-06     -17.5193 
         400      7.78283  0.000190291 -3.08454e-06     -17.5193 
         400      7.86862  0.000187172 -3.23116e-06     -17.5193 
         400      7.95481  0.000184099 -3.37966e-06     -17.5193 
         400      8.04155  0.000181067 -3.53219e-06     -17.5193 
         400      8.12868  0.000178082 -3.68961e-06     -17.5193 
         400      8.21635   0.00017514 -3.85225e-06     -17.5193 
         400      8.30449  0.000172242 -4.01876e-06     -17.5193 
         400      8.39303  0.000169392  -4.1863e-06     -17.5193 
         400      8.48211  0.000166582 -4.35076e-06     -17.5193 
         400      8.57159  0.000163813 -4.50569e-06     -17.5193 
         400      8.66161  0.000161076 -4.64321e-06     -17.5193 
         400      8.75203   0.00015837 -4.75294e-06     -17.5193 
         400      8.84299  0.000155681 -4.82283e-06     -17.5193 
         400      8.93443     0.000153 -4.83844e-06     -17.5193 
         400      9.02626  0.000150414 -4.97287e-06     -17.5193 
         400      9.11863  0.000147863 -5.15716e-06     -17.5193 
         400      9.21139  0.000145317 -5.30578e-06     -17.5193 
         400      9.30471  0.000142785 -5.42383e-06     -17.5193 
         400      9.39841  0.000140284 -5.51549e-06     -17.5193 
         400      9.49267  0.000137821 -5.58489e-06     -17.5193 
         400      9.58739  0.000135403 -5.63568e-06     -17.5193 
         400      9.68251  0.000133036 -5.67142e-06     -17.5193 
         400      9.77817  0.000130719 -5.69567e-06     -17.5193 
         400      9.87422  0.000128452 -5.71197e-06     -17.5193 
         400      9.97083   0.00012623 -5.72409e-06     -17.5193 
         400      10.0678   0.00012405 -5.73602e-06     -17.5192 
         400      10.1654  0.000121902 -5.75222e-06     -17.5192 
         400      10.2633  0.000119782 -5.77757e-06     -17.5192 
         400      10.3618  0.000117676 -5.81765e-06     -17.5192 
         400      10.4607  0.000115579 -5.87872e-06     -17.5192 
         400      10.5601  0.000113484  -5.9678e-06     -17.5192 
         400        10.66  0.000111381 -6.09306e-06     -17.5192 
         400      10.7603  0.000109302 -6.22539e-06     -17.5192 
         400      10.8611  0.000107461 -6.09313e-06     -17.5192 
         400      10.9623  0.000105602 -5.99649e-06     -17.5192 
         400      11.0641  0.000103731 -5.93005e-06     -17.5192 
         400      11.1663  0.000101859 -5.88929e-06     -17.5192 
         400       11.269  9.99946e-05 -5.86985e-06     -17.5192 
         400      11.3721  9.81445e-05 -5.86711e-06     -17.5192 
         400      11.4757  9.63198e-05 -5.87583e-06     -17.5192 
         400      11.5798  9.45256e-05 -5.88959e-06     -17.5192 
         400      11.6844  9.27718e-05 -5.90026e-06     -17.5192 
         400      11.7894   9.1062e-05 -5.89753e-06     -17.5192 
         400       11.895  8.94028e-05 -5.86829e-06     -17.5192 
         400      12.0009   8.7799e-05 -5.79616e-06     -17.5192 
         400      12.1073  8.62499e-05 -5.66062e-06     -17.5192 
         400      12.2142  8.47471e-05 -5.48612e-06     -17.5192 
         400      12.3216  8.32187e-05 -5.53167e-06     -17.5192 
         400      12.4294  8.17138e-05 -5.56518e-06     -17.5192 
         400      12.5378  8.02321e-05 -5.58607e-06     -17.5192 
         400      12.6465  7.87774e-05 -5.59399e-06     -17.5192 
         400      12.7558  7.73484e-05 -5.58898e-06     -17.5192 
         400      12.8656  7.59469e-05 -5.57134e-06     -17.5192 
         400      12.9757  7.45743e-05 -5.54168e-06     -17.5192 
         400      13.0864  7.32281e-05 -5.50074e-06     -17.5192 
         400      13.1975  7.19101e-05 -5.44962e-06     -17.5192 
         400      13.3092  7.06176e-05 -5.38941e-06     -17.5192 
         400      13.4212  6.93519e-05 -5.32153e-06     -17.5192 
         400      13.5338  6.81101e-05  -5.2473e-06     -17.5192 
         400      13.6468  6.68922e-05 -5.16828e-06     -17.5192 
         400      13.7603  6.56983e-05 -5.08607e-06     -17.5192 
         400      13.8743  6.45254e-05 -5.00209e-06     -17.5192 
         400      13.9886  6.33746e-05 -4.91798e-06     -17.5192 
         400      14.1036   6.2243e-05 -4.83508e-06     -17.5192 
         400      14.2189  6.11319e-05 -4.75486e-06     -17.5192 
         400      14.3348  6.00389e-05 -4.67843e-06     -17.5192 
         400       14.451  5.89653e-05 -4.60695e-06     -17.5192 
         400      14.5678   5.7909e-05 -4.54118e-06     -17.5192 
         400      14.6851  5.68708e-05 -4.48179e-06     -17.5192 
         400      14.8028  5.58516e-05 -4.42918e-06     -17.5192 
         400       14.921  5.48497e-05 -4.38332e-06     -17.5192 
         400      15.0396   5.3867e-05 -4.34402e-06     -17.5192 
         400      15.1588  5.29023e-05 -4.31058e-06     -17.5192 
         400      15.2783  5.19573e-05 -4.28204e-06     -17.5192 
         400      15.3984  5.10308e-05 -4.25691e-06     -17.5192 
         400       15.519  5.01237e-05 -4.23333e-06     -17.5192 
         400        15.64  4.92366e-05   -4.209e-06     -17.5192 
         400      15.7615  4.83676e-05 -4.18103e-06     -17.5192 
         400      15.8834  4.75174e-05 -4.14614e-06     -17.5192 
         400      16.0058  4.66831e-05 -4.10042e-06     -17.5192 
         400      16.1286  4.58563e-05 -4.01809e-06     -17.5192 
         400       16.252   4.5029e-05 -3.89564e-06     -17.5192 
         400      16.3759  4.42202e-05 -3.79712e-06     -17.5192 
         400      16.5002  4.34321e-05 -3.73981e-06     -17.5192 
         400       16.625  4.26655e-05 -3.74653e-06     -17.5192 
         400      16.7501  4.19163e-05 -3.81155e-06     -17.5192 
         400      16.8759  4.12104e-05 -3.77385e-06     -17.5192 
         400       17.002  4.06901e-05  -3.4495e-06     -17.5192 
         400      17.1287  4.01086e-05 -3.27182e-06     -17.5192 
         400      17.2557  3.94618e-05 -3.22333e-06     -17.5192 
         400      17.3834  3.88018e-05 -3.19271e-06     -17.5192 
         400      17.5115   3.8139e-05 -3.17018e-06     -17.5192 
         400      17.6399  3.74817e-05 -3.14826e-06     -17.5192 
         400       17.769  3.68351e-05 -3.12145e-06     -17.5192 
         400      17.8984  3.62045e-05 -3.08618e-06     -17.5192 
         400      18.0284   3.5592e-05 -3.04034e-06     -17.5192 
         400      18.1587  3.50003e-05 -2.98328e-06     -17.5192 
         400      18.2896  3.44293e-05 -2.91529e-06     -17.5192 
         400       18.421  3.38794e-05 -2.83766e-06     -17.5192 
         400      18.5528  3.33503e-05 -2.75239e-06     -17.5192 
         400      18.6851  3.28398e-05 -2.66172e-06     -17.5192 
         400      18.8178   3.2347e-05 -2.56845e-06     -17.5192 
         400      18.9511  3.18694e-05 -2.47515e-06     -17.5192 
         400      19.0847  3.14058e-05 -2.38465e-06     -17.5192 
         400      19.2189  3.09535e-05 -2.29926e-06     -17.5192 
         400      19.3535  3.05115e-05  -2.2212e-06     -17.5192 
         400      19.4886  3.00777e-05 -2.15202e-06     -17.5192 
         400      19.6242  2.96511e-05 -2.09289e-06     -17.5192 
         400      19.7602  2.92314e-05 -2.04438e-06     -17.5192 
         400      19.8968  2.88176e-05 -2.00628e-06     -17.5192 
         400      20.0337  2.84103e-05 -1.97792e-06     -17.5192 
         400      20.1712  2.80095e-05 -1.95789e-06     -17.5192 
         400      20.3091  2.76167e-05 -1.94428e-06     -17.5192 
         400      20.4475  2.72327e-05 -1.93467e-06     -17.5192 
         400      20.5864  2.68592e-05 -1.92634e-06     -17.5192 
         400      20.7257  2.64984e-05 -1.91635e-06     -17.5192 
         400      20.8655  2.61514e-05  -1.9018e-06     -17.5192 
         400      21.0058  2.58205e-05 -1.88009e-06     -17.5192 
         400      21.1465  2.55064e-05 -1.84913e-06     -17.5192 
         400      21.2877  2.52101e-05 -1.80784e-06     -17.5192 
         400      21.4294  2.49311e-05 -1.75634e-06     -17.5192 
         400      21.5716  2.46682e-05 -1.69663e-06     -17.5192 
         400      21.7142  2.44183e-05   -1.633e-06     -17.5192 
         400      21.8573  2.41761e-05 -1.57248e-06     -17.5192 
         400      22.0008  2.39334e-05  -1.5257e-06     -17.5192 
         400      22.1449  2.35497e-05 -1.49119e-06     -17.5192 
         400      22.2893  2.32114e-05 -1.46573e-06     -17.5192 
         400      22.4344  2.29096e-05 -1.44453e-06     -17.5192 
         400      22.5797  2.26371e-05 -1.42409e-06     -17.5192 
         400      22.7257  2.23869e-05  -1.4018e-06     -17.5192 
         400      22.8721  2.21536e-05 -1.37602e-06     -17.5192 
         400      23.0189  2.19325e-05 -1.34583e-06     -17.5192 
         400      23.1663  2.17194e-05 -1.31083e-06     -17.5192 
         400       23.314  2.15114e-05 -1.27124e-06     -17.5192 
         400      23.4623   2.1306e-05  -1.2275e-06     -17.5192 
         400       23.611  2.11017e-05 -1.18044e-06     -17.5192 
         400      23.7602  2.08972e-05 -1.13091e-06     -17.5192 
         400        23.91  2.06925e-05 -1.07993e-06     -17.5192 
         400        24.06  2.04879e-05 -1.02852e-06     -17.5192 
         400      24.2107  2.02836e-05 -9.77495e-07     -17.5192 
         400      24.3617  2.00811e-05 -9.27715e-07     -17.5192 
         400      24.5133  1.98815e-05 -8.79702e-07     -17.5192 
         400      24.6653  1.96866e-05 -8.33944e-07     -17.5192 
         400      24.8178  1.94979e-05  -7.9058e-07     -17.5192 
         400      24.9708  1.93174e-05 -7.49666e-07     -17.5192 
         400      25.1242  1.91469e-05 -7.11089e-07     -17.5192 
         400      25.2781  1.89877e-05 -6.74524e-07     -17.5192 
         400      25.4324  1.88413e-05 -6.39717e-07     -17.5192 
         400      25.5873  1.87081e-05 -6.06335e-07     -17.5192 
         400      25.7426  1.85887e-05 -5.74306e-07     -17.5192 
         400      25.8984  1.84823e-05 -5.43735e-07     -17.5192 
         400      26.0546  1.83878e-05 -5.15276e-07     -17.5192 
         400      26.2114  1.83026e-05 -4.90122e-07     -17.5192 
         400      26.3686  1.82232e-05  -4.7039e-07     -17.5192 
         400      26.5262  1.81446e-05 -4.59277e-07     -17.5192 
         400      26.6844  1.80603e-05 -4.61331e-07     -17.5192 
         400      26.8429  1.79621e-05 -4.82799e-07     -17.5192 
         400       27.002  1.78394e-05 -5.32003e-07     -17.5192 
         400      27.1615  1.76801e-05 -6.19556e-07     -17.5192 
         400      27.3216  1.74689e-05 -7.59136e-07     -17.5192 
         400      27.4821  1.71885e-05 -9.67531e-07     -17.5192 
         400       27.643  1.70598e-05 -1.05094e-06     -17.5192 
         400      27.8044  1.71909e-05 -8.72467e-07     -17.5192 
         400      27.9663  1.72286e-05 -7.75762e-07     -17.5192 
         400      28.1287  1.71988e-05 -7.39227e-07     -17.5192 
         400      28.2914  1.71225e-05  -7.4481e-07     -17.5192 
         400      28.4548  1.70162e-05 -7.77457e-07     -17.5193 
         400      28.6185  1.68932e-05 -8.24885e-07     -17.5193 
         400      28.7828  1.67632e-05 -8.77498e-07     -17.5193 
         400      28.9475  1.66334e-05 -9.27908e-07     -17.5193 
         400      29.1126  1.65086e-05 -9.70815e-07     -17.5193 
         400      29.2784  1.63916e-05 -1.00286e-06     -17.5193 
         400      29.4444  1.62837e-05 -1.02217e-06     -17.5193 
         400       29.611  1.61849e-05 -1.02831e-06     -17.5193 
         400       29.778  1.60947e-05 -1.02197e-06     -17.5193 
         400      29.9456  1.60117e-05 -1.00472e-06     -17.5193 
         400      30.1137  1.59346e-05 -9.78872e-07     -17.5193 
         400      30.2821  1.58619e-05 -9.47252e-07     -17.5193 
         400      30.4511  1.57922e-05 -9.12892e-07     -17.5193 
         400      30.6204  1.57248e-05 -8.79029e-07     -17.5193 
         400      30.7903  1.56589e-05 -8.48712e-07     -17.5193 
         400      30.9606   1.5595e-05 -8.24834e-07     -17.5193 
         400      31.1315  1.55334e-05 -8.09791e-07     -17.5193 
         400      31.3028  1.54756e-05 -8.05478e-07     -17.5193 
         400      31.4745  1.54233e-05 -8.13061e-07     -17.5193 
         400      31.6468  1.53783e-05 -8.32912e-07     -17.5193 
         400      31.8194   1.5343e-05 -8.64442e-07     -17.5193 
         400      31.9926  1.53194e-05 -9.06137e-07     -17.5193 
         400      32.1662  1.53091e-05 -9.55292e-07     -17.5193 
         400      32.3404  1.53128e-05 -1.00822e-06     -17.5193 
         400      32.5149    1.533e-05  -1.0599e-06     -17.5193 
         400        32.69  1.53583e-05 -1.10434e-06     -17.5193 
         400      32.8655  1.53926e-05 -1.13424e-06     -17.5193 
         400      33.0414   1.5425e-05 -1.14122e-06     -17.5193 
         400       33.218  1.54432e-05 -1.11588e-06     -17.5193 
         400      33.3948  1.54301e-05 -1.04787e-06     -17.5193 
         400      33.5723  1.53627e-05  -9.2582e-07     -17.5193 
         400        33.75  1.52112e-05 -7.37989e-07     -17.5193 
         400      33.9284  1.49398e-05 -4.76236e-07     -17.5193 
         400      34.1073  1.49265e-05 -7.03989e-07     -17.5193 
         400      34.2865  1.48985e-05   -8.762e-07     -17.5193 
         400      34.4663  1.48589e-05 -1.00385e-06     -17.5193 
         400      34.6465  1.48106e-05 -1.09593e-06     -17.5193 
         400      34.8272  1.47567e-05 -1.16037e-06     -17.5193 
         400      35.0083     1.47e-05 -1.20354e-06     -17.5193 
         400        35.19  1.46432e-05 -1.23073e-06     -17.5193 
         400      35.3721  1.45887e-05 -1.24597e-06     -17.5193 
         400      35.5546  1.45388e-05 -1.25225e-06     -17.5193 
         400      35.7377  1.44954e-05 -1.25154e-06     -17.5193 
         400      35.9211  1.44601e-05 -1.24487e-06     -17.5193 
         400      36.1052   1.4434e-05 -1.23234e-06     -17.5193 
         400      36.2895   1.4418e-05 -1.21326e-06     -17.5193 
         400      36.4745  1.44125e-05 -1.18608e-06     -17.5193 
         400      36.6598  1.44172e-05  -1.1486e-06     -17.5193 
         400      36.8457  1.44316e-05 -1.09775e-06     -17.5193 
         400      37.0321   1.4448e-05 -1.12622e-06     -17.5193 
         400      37.2188  1.44496e-05 -1.13347e-06     -17.5193 
         400      37.4062  1.44407e-05 -1.12227e-06     -17.5193 
         400      37.5938  1.44252e-05 -1.09857e-06     -17.5193 
         400      37.7821  1.44064e-05 -1.06741e-06     -17.5193 
         400      37.9707  1.43874e-05 -1.03302e-06     -17.5193 
         400      38.1599  1.43706e-05 -9.98662e-07     -17.5193 
         400      38.3496  1.43579e-05 -9.66815e-07     -17.5193 
         400      38.5396  1.43504e-05 -9.39127e-07     -17.5193 
         400      38.7302  1.43489e-05  -9.1642e-07     -17.5193 
         400      38.9211  1.43533e-05 -8.98917e-07     -17.5193 
         400      39.1127  1.43632e-05   -8.862e-07     -17.5193 
         400      39.3046  1.43775e-05 -8.77453e-07     -17.5193 
         400      39.4971  1.43947e-05 -8.71527e-07     -17.5193 
         400      39.6899   1.4413e-05 -8.67184e-07     -17.5193 
         400      39.8833  1.44301e-05 -8.63255e-07     -17.5193 
         400      40.0772  1.44437e-05 -8.58906e-07     -17.5193 
         400      40.2714  1.44512e-05 -8.53888e-07     -17.5193 
         400      40.4663  1.44503e-05 -8.48822e-07     -17.5193 
         400      40.6615  1.44389e-05 -8.45548e-07     -17.5193 
         400      40.8573  1.44152e-05  -8.4746e-07     -17.5193 
         400      41.0534  1.43781e-05 -8.59906e-07     -17.5193 
         400      41.2501  1.43276e-05 -8.90649e-07     -17.5193 
         400      41.4473  1.42645e-05  -9.5029e-07     -17.5193 
         400      41.6448  1.41914e-05 -1.05269e-06     -17.5193 
         400      41.8429  1.41122e-05 -1.21587e-06     -17.5193 
         400      42.0414  1.40485e-05 -1.28481e-06     -17.5193 
         400      42.2405  1.40377e-05 -1.14592e-06     -17.5193 
         400      42.4399  1.40568e-05 -1.05202e-06     -17.5193 
         400      42.6399  1.40943e-05 -9.93491e-07     -17.5194 
         400      42.8404  1.41407e-05 -9.62268e-07     -17.5194 
         400      43.0412  1.41886e-05 -9.51446e-07     -17.5194 
         400      43.2426  1.42324e-05 -9.55241e-07     -17.5194 
         400      43.4444   1.4268e-05 -9.68914e-07     -17.5194 
         400      43.6467   1.4293e-05 -9.88686e-07     -17.5194 
         400      43.8494  1.43059e-05 -1.01157e-06     -17.5194 
         400      44.0527  1.43064e-05 -1.03537e-06     -17.5194 
         400      44.2563  1.42951e-05 -1.05849e-06     -17.5194 
         400      44.4606  1.42732e-05 -1.07995e-06     -17.5194 
         400      44.6653  1.42426e-05 -1.09922e-06     -17.5194 
         400      44.8704  1.42055e-05 -1.11613e-06     -17.5194 
         400       45.076  1.41644e-05 -1.13091e-06     -17.5194 
         400       45.282  1.41217e-05 -1.14396e-06     -17.5194 
         400      45.4886  1.40801e-05  -1.1559e-06     -17.5194 
         400      45.6955  1.40417e-05 -1.16743e-06     -17.5194 
         400       45.903  1.40088e-05 -1.17932e-06     -17.5194 
         400      46.1111  1.39829e-05 -1.19233e-06     -17.5194 
         400      46.3194  1.39653e-05 -1.20714e-06     -17.5194 
         400      46.5283  1.39565e-05 -1.22439e-06     -17.5194 
         400      46.7376  1.39565e-05 -1.24453e-06     -17.5194 
         400      46.9475  1.39646e-05 -1.26789e-06     -17.5194 
         400      47.1577  1.39792e-05 -1.29457e-06     -17.5194 
         400      47.3685  1.39981e-05 -1.32454e-06     -17.5194 
         400      47.5798   1.4018e-05 -1.35747e-06     -17.5194 
         400      47.7914  1.40351e-05 -1.39286e-06     -17.5194 
         400      48.0037  1.40444e-05 -1.43006e-06     -17.5194 