Variables = x, y, u, v, p

Zone, I=800, F=POINT
         850            0           -0           -0      7.15255 
         850     0.000234  7.95401e-06  4.77375e-11      7.15255 
         850     0.000939   2.9628e-05  7.68992e-10      7.15255 
         850     0.002113  5.86961e-05  3.88267e-09      7.15255 
         850     0.003759  8.66461e-05  1.22323e-08      7.15255 
         850     0.005872   0.00010483  2.96724e-08      7.15255 
         850     0.008457  0.000107057   6.1098e-08      7.15255 
         850      0.01151  9.10904e-05  1.12192e-07      7.15255 
         850     0.015036  5.91876e-05  1.89537e-07      7.15255 
         850     0.019031  1.72179e-05  3.00173e-07      7.15255 
         850     0.023493 -2.76783e-05  4.51589e-07      7.15255 
         850     0.028429 -7.01278e-05  6.51918e-07      7.15255 
         850     0.033831 -0.000108836  9.08852e-07      7.15255 
         850     0.039706 -0.000147665  1.23068e-06      7.15255 
         850     0.046047 -0.000193407  1.62474e-06      7.15255 
         850     0.052863  -0.00025104  2.09892e-06      7.15255 
         850      0.06015 -0.000317529  2.65971e-06      7.15255 
         850       0.0679  -0.00038044  3.31238e-06      7.15255 
         850     0.076126 -0.000432677    4.063e-06      7.15255 
         850     0.084816 -0.000509252  4.91443e-06      7.15255 
         850     0.093982 -0.000575129  5.87054e-06      7.15255 
         850     0.103611 -0.000645427  6.93136e-06      7.15255 
         850     0.113718 -0.000718622  8.09859e-06      7.15255 
         850     0.124286 -0.000793283  9.36885e-06      7.15255 
         850     0.135333 -0.000868592  1.07414e-05      7.15255 
         850      0.14685 -0.000943883  1.22109e-05      7.15255 
         850     0.158827  -0.00101875  1.37701e-05      7.15255 
         850     0.171284  -0.00109309  1.54147e-05      7.15255 
         850     0.184201  -0.00116649  1.71335e-05      7.15255 
         850     0.197599  -0.00123856  1.89201e-05      7.15255 
         850     0.211455  -0.00130846   2.0761e-05      7.15255 
         850     0.225792  -0.00137554  2.26479e-05      7.15255 
         850       0.2406  -0.00143958  2.45676e-05      7.15255 
         850     0.255865  -0.00150109   2.6506e-05      7.15255 
         850     0.271613  -0.00155857  2.84544e-05      7.15255 
         850     0.287818  -0.00161226   3.0397e-05      7.15255 
         850     0.304506  -0.00166201  3.23244e-05      7.15255 
         850      0.32165  -0.00170755  3.42218e-05      7.15255 
         850     0.339278  -0.00174885  3.60807e-05      7.15255 
         850     0.357377  -0.00178581  3.78894e-05      7.15255 
         850      0.37593   -0.0018184  3.96367e-05      7.15255 
         850     0.394968  -0.00184673   4.1317e-05      7.15255 
         850     0.414461  -0.00187084  4.29204e-05      7.15255 
         850      0.43444  -0.00189093  4.44432e-05      7.15255 
         850     0.454872  -0.00190714   4.5878e-05      7.15255 
         850     0.475791  -0.00191969  4.72236e-05      7.15255 
         850     0.497163   -0.0019288  4.84751e-05      7.15255 
         850     0.519021   -0.0019347  4.96335e-05      7.15255 
         850      0.54135  -0.00193763  5.06981e-05      7.15255 
         850     0.564131  -0.00193784  5.16699e-05      7.15255 
         850       0.5874   -0.0019356   5.2554e-05      7.15255 
         850     0.611121  -0.00193118  5.33551e-05      7.15255 
         850      0.63533  -0.00192472   5.4076e-05      7.15255 
         850      0.65999  -0.00191654  5.47175e-05      7.15255 
         850     0.685139  -0.00190679  5.52895e-05      7.15255 
         850     0.710759  -0.00189564  5.58001e-05      7.15255 
         850     0.736828  -0.00188323  5.62579e-05      7.15255 
         850     0.763387  -0.00186966  5.66726e-05      7.15255 
         850     0.790396  -0.00185503  5.70523e-05      7.15255 
         850     0.817896  -0.00183938  5.74063e-05      7.15255 
         850     0.845843  -0.00182279  5.77424e-05      7.15255 
         850     0.874283  -0.00180524  5.80695e-05      7.15255 
         850      0.90317  -0.00178679  5.83948e-05      7.15255 
         850     0.932551  -0.00176738  5.87263e-05      7.15255 
         850     0.962401  -0.00174701  5.90709e-05      7.15255 
         850     0.992697  -0.00172567  5.94346e-05      7.15255 
         850      1.02349   -0.0017033  5.98241e-05      7.15255 
         850      1.05472  -0.00167989  6.02441e-05      7.15255 
         850      1.08645  -0.00165539  6.06997e-05      7.15255 
         850      1.11863  -0.00162982   6.1194e-05      7.15255 
         850       1.1513  -0.00160314  6.17308e-05      7.15255 
         850      1.18444  -0.00157539  6.23117e-05      7.15255 
         850      1.21802  -0.00154665  6.29367e-05      7.15255 
         850      1.25211  -0.00151693  6.36064e-05      7.15255 
         850      1.28663  -0.00148637  6.43174e-05      7.15255 
         850      1.32165  -0.00145504  6.50669e-05      7.15255 
         850      1.35712  -0.00142311  6.58476e-05      7.15255 
         850      1.39308  -0.00139066  6.66519e-05      7.15255 
         850      1.42951  -0.00135784  6.74673e-05      7.15255 
         850      1.46638  -0.00132478  6.82777e-05      7.15255 
         850      1.50375  -0.00129147  6.90644e-05      7.15255 
         850      1.54156  -0.00125762  6.99341e-05      7.15255 
         850      1.57987  -0.00122422  7.07851e-05      7.15255 
         850      1.61863  -0.00119131   7.1607e-05      7.15255 
         850      1.65788  -0.00115875  7.24011e-05      7.15255 
         850      1.69757  -0.00112653   7.3166e-05      7.15255 
         850      1.73776  -0.00109452  7.39028e-05      7.15255 
         850      1.77842  -0.00106269  7.46108e-05      7.15255 
         850      1.81952  -0.00103098  7.52892e-05      7.15255 
         850      1.86113 -0.000999294  7.59389e-05      7.15255 
         850      1.90316 -0.000967615  7.65586e-05      7.15256 
         850      1.94571 -0.000935841  7.71488e-05      7.15256 
         850      1.98869 -0.000903972  7.77083e-05      7.15256 
         850      2.03217 -0.000871911  7.82376e-05      7.15256 
         850      2.07612 -0.000839643  7.87358e-05      7.15256 
         850      2.12051 -0.000807159  7.92023e-05      7.15256 
         850       2.1654 -0.000774378  7.96372e-05      7.15256 
         850      2.21073 -0.000741328  8.00394e-05      7.15256 
         850      2.25656 -0.000707939  8.04093e-05      7.15256 
         850      2.30283 -0.000674252  8.07457e-05      7.15257 
         850       2.3496 -0.000640208  8.10489e-05      7.15257 
         850      2.39685 -0.000605834  8.13183e-05      7.15257 
         850      2.44452 -0.000571166  8.15533e-05      7.15257 
         850      2.49271 -0.000536162  8.17541e-05      7.15257 
         850      2.54132 -0.000500898  8.19202e-05      7.15257 
         850      2.59044 -0.000465341  8.20517e-05      7.15258 
         850         2.64 -0.000429581  8.21483e-05      7.15258 
         850      2.69006 -0.000393599  8.22102e-05      7.15258 
         850      2.74056 -0.000357493  8.22373e-05      7.15258 
         850      2.79156 -0.000321253  8.22298e-05      7.15258 
         850      2.84304 -0.000284961  8.21878e-05      7.15259 
         850      2.89494 -0.000248699  8.21115e-05      7.15259 
         850      2.94735  -0.00021247  8.20013e-05      7.15259 
         850       3.0002 -0.000176394  8.18573e-05      7.15259 
         850      3.05355 -0.000140476  8.16797e-05       7.1526 
         850      3.10733 -0.000104839  8.14689e-05       7.1526 
         850      3.16163 -6.94913e-05  8.12247e-05       7.1526 
         850      3.21639 -3.45275e-05  8.09472e-05       7.1526 
         850      3.27158 -3.84193e-08  8.06364e-05      7.15261 
         850      3.32729  3.39694e-05  8.02914e-05      7.15261 
         850      3.38342  6.73843e-05  7.99119e-05      7.15261 
         850      3.44007  0.000100205   7.9496e-05      7.15262 
         850      3.49714  0.000132333  7.90427e-05      7.15262 
         850      3.55472  0.000163777  7.85488e-05      7.15262 
         850      3.61273  0.000194457   7.8012e-05      7.15263 
         850      3.67125  0.000224396  7.74274e-05      7.15263 
         850      3.73025   0.00025356  7.67901e-05      7.15263 
         850      3.78967  0.000282215  7.62043e-05      7.15264 
         850      3.84961   0.00031004  7.56305e-05      7.15264 
         850      3.90996  0.000336777  7.50201e-05      7.15264 
         850      3.97084  0.000362448  7.43739e-05      7.15265 
         850      4.03214  0.000386991  7.36945e-05      7.15265 
         850      4.09395   0.00041043  7.29824e-05      7.15266 
         850      4.15624   0.00043273    7.224e-05      7.15266 
         850      4.21895  0.000453867  7.14693e-05      7.15266 
         850      4.28217  0.000473868  7.06707e-05      7.15267 
         850      4.34582  0.000492698  6.98471e-05      7.15267 
         850      4.40998  0.000510387  6.89986e-05      7.15268 
         850      4.47457  0.000526911   6.8128e-05      7.15268 
         850      4.53968  0.000542304  6.72355e-05      7.15268 
         850      4.60525  0.000556561  6.63231e-05      7.15269 
         850      4.67125  0.000569685   6.5393e-05      7.15269 
         850      4.73777  0.000581714  6.44449e-05       7.1527 
         850       4.8047  0.000592648  6.34816e-05       7.1527 
         850      4.87216  0.000602525  6.25029e-05       7.1527 
         850      4.94003  0.000611355  6.15116e-05      7.15271 
         850      5.00843   0.00061918  6.05071e-05      7.15271 
         850      5.07724  0.000626014  5.94921e-05      7.15272 
         850      5.14658  0.000631903  5.84662e-05      7.15272 
         850      5.21639  0.000636873  5.74312e-05      7.15273 
         850      5.28661  0.000640957  5.63888e-05      7.15273 
         850      5.35736    0.0006442  5.53384e-05      7.15273 
         850      5.42852  0.000646634  5.42825e-05      7.15274 
         850      5.50021  0.000648305  5.32202e-05      7.15274 
         850      5.57231  0.000649251  5.21542e-05      7.15275 
         850      5.64493  0.000649515  5.10834e-05      7.15275 
         850      5.71803   0.00064914  5.00096e-05      7.15275 
         850      5.79154   0.00064817  4.89343e-05      7.15276 
         850      5.86558  0.000646645  4.78564e-05      7.15276 
         850      5.94003  0.000644614  4.67785e-05      7.15277 
         850      6.01501  0.000642114  4.56994e-05      7.15277 
         850       6.0904  0.000639192  4.46216e-05      7.15278 
         850      6.16632  0.000635885  4.35441e-05      7.15278 
         850      6.24271  0.000632236  4.24683e-05      7.15278 
         850       6.3195  0.000628287  4.13958e-05      7.15279 
         850      6.39683  0.000624069  4.03256e-05      7.15279 
         850      6.47457  0.000619625  3.92602e-05      7.15279 
         850      6.55284  0.000614982  3.81985e-05       7.1528 
         850      6.63152  0.000610178  3.71431e-05       7.1528 
         850      6.71073  0.000605236  3.60932e-05      7.15281 
         850      6.79034   0.00060019  3.50513e-05      7.15281 
         850      6.87049  0.000595057  3.40167e-05      7.15281 
         850      6.95111  0.000589861  3.29912e-05      7.15282 
         850      7.03214  0.000584625  3.19769e-05      7.15282 
         850       7.1137  0.000579358  3.09734e-05      7.15283 
         850      7.19566  0.000574079  2.99835e-05      7.15283 
         850      7.27816  0.000568791  2.90071e-05      7.15283 
         850      7.36106  0.000563509  2.80475e-05      7.15284 
         850      7.44451  0.000558291  2.70889e-05      7.15284 
         850      7.52842  0.000553171  2.61219e-05      7.15284 
         850      7.61273  0.000548073  2.51676e-05      7.15285 
         850      7.69758  0.000542988  2.42267e-05      7.15285 
         850      7.78283  0.000537921   2.3303e-05      7.15285 
         850      7.86862  0.000532862  2.23976e-05      7.15286 
         850      7.95481  0.000527816  2.15142e-05      7.15286 
         850      8.04155  0.000522773   2.0654e-05      7.15286 
         850      8.12868   0.00051774  1.98211e-05      7.15287 
         850      8.21635   0.00051271  1.90167e-05      7.15287 
         850      8.30449  0.000507693  1.82442e-05      7.15287 
         850      8.39303  0.000502701  1.75067e-05      7.15288 
         850      8.48211  0.000497741  1.68058e-05      7.15288 
         850      8.57159  0.000492845  1.61449e-05      7.15288 
         850      8.66161  0.000488034  1.55255e-05      7.15289 
         850      8.75203  0.000483357  1.49297e-05      7.15289 
         850      8.84299   0.00047876  1.40547e-05      7.15289 
         850      8.93443  0.000474186  1.32415e-05       7.1529 
         850      9.02626  0.000469644  1.24836e-05       7.1529 
         850      9.11863  0.000465129  1.17732e-05       7.1529 
         850      9.21139  0.000460654   1.1105e-05      7.15291 
         850      9.30471  0.000456213   1.0472e-05      7.15291 
         850      9.39841  0.000451816  9.86986e-06      7.15291 
         850      9.49267  0.000447459  9.29238e-06      7.15291 
         850      9.58739  0.000443148   8.7354e-06      7.15292 
         850      9.68251  0.000438886  8.19505e-06      7.15292 
         850      9.77817   0.00043467  7.66659e-06      7.15292 
         850      9.87422  0.000430507  7.14738e-06      7.15293 
         850      9.97083  0.000426392  6.63351e-06      7.15293 
         850      10.0678  0.000422333  6.12313e-06      7.15293 
         850      10.1654  0.000418323  5.61313e-06      7.15293 
         850      10.2633  0.000414372   5.1024e-06      7.15294 
         850      10.3618  0.000410473   4.5886e-06      7.15294 
         850      10.4607  0.000406626  4.08568e-06      7.15294 
         850      10.5601  0.000402811  3.64602e-06      7.15295 
         850        10.66  0.000399041  3.20881e-06      7.15295 
         850      10.7603  0.000395319  2.77534e-06      7.15295 
         850      10.8611  0.000391636  2.34563e-06      7.15295 
         850      10.9623  0.000387998  1.92126e-06      7.15296 
         850      11.0641  0.000384396  1.50251e-06      7.15296 
         850      11.1663  0.000380833  1.09071e-06      7.15296 
         850       11.269   0.00037731  6.87194e-07      7.15296 
         850      11.3721  0.000373822  2.92309e-07      7.15296 
         850      11.4757  0.000370375 -9.24022e-08      7.15297 
         850      11.5798  0.000366961 -4.66721e-07      7.15297 
         850      11.6844  0.000363589 -8.29348e-07      7.15297 
         850      11.7894  0.000360252  -1.1803e-06      7.15297 
         850       11.895  0.000356955 -1.51889e-06      7.15298 
         850      12.0009    0.0003537 -1.84465e-06      7.15298 
         850      12.1073  0.000350485 -2.15809e-06      7.15298 
         850      12.2142  0.000347313 -2.45888e-06      7.15298 
         850      12.3216  0.000344183 -2.74788e-06      7.15298 
         850      12.4294    0.0003411  -3.0252e-06      7.15299 
         850      12.5378   0.00033806 -3.29202e-06      7.15299 
         850      12.6465  0.000335068 -3.54882e-06      7.15299 
         850      12.7558  0.000332121 -3.79704e-06      7.15299 
         850      12.8656  0.000329222 -4.03756e-06      7.15299 
         850      12.9757  0.000326372 -4.27135e-06        7.153 
         850      13.0864  0.000323568  -4.4999e-06        7.153 
         850      13.1975  0.000320814 -4.72385e-06        7.153 
         850      13.3092  0.000318103 -4.94441e-06        7.153 
         850      13.4212  0.000315439 -5.16178e-06        7.153 
         850      13.5338  0.000312817 -5.37648e-06      7.15301 
         850      13.6468  0.000310235   -5.588e-06      7.15301 
         850      13.7603  0.000307692  -5.7952e-06      7.15301 
         850      13.8743  0.000305181  -5.9966e-06      7.15301 
         850      13.9886  0.000302701 -6.18911e-06      7.15301 
         850      14.1036  0.000300242 -6.36909e-06      7.15301 
         850      14.2189  0.000297714  -6.5205e-06      7.15302 
         850      14.3348  0.000295199 -6.66621e-06      7.15302 
         850       14.451  0.000292752 -6.81321e-06      7.15302 
         850      14.5678  0.000290363 -6.95953e-06      7.15302 
         850      14.6851  0.000288029 -7.10324e-06      7.15302 
         850      14.8028  0.000285747 -7.24271e-06      7.15302 
         850       14.921  0.000283511 -7.37699e-06      7.15303 
         850      15.0396  0.000281318 -7.50496e-06      7.15303 
         850      15.1588  0.000279164 -7.62619e-06      7.15303 
         850      15.2783  0.000277049 -7.74012e-06      7.15303 
         850      15.3984  0.000274965 -7.84678e-06      7.15303 
         850       15.519  0.000272915 -7.94612e-06      7.15303 
         850        15.64  0.000270895  -8.0383e-06      7.15303 
         850      15.7615  0.000268904 -8.12385e-06      7.15304 
         850      15.8834  0.000266941 -8.20314e-06      7.15304 
         850      16.0058  0.000265003 -8.27692e-06      7.15304 
         850      16.1286  0.000263093 -8.34575e-06      7.15304 
         850       16.252  0.000261206 -8.41046e-06      7.15304 
         850      16.3759  0.000259343 -8.47177e-06      7.15304 
         850      16.5002  0.000257507 -8.53035e-06      7.15304 
         850       16.625  0.000255693 -8.58702e-06      7.15304 
         850      16.7501  0.000253904  -8.6423e-06      7.15305 
         850      16.8759  0.000252139 -8.69683e-06      7.15305 
         850       17.002  0.000250399 -8.75092e-06      7.15305 
         850      17.1287  0.000248681 -8.80492e-06      7.15305 
         850      17.2557   0.00024699 -8.85878e-06      7.15305 
         850      17.3834  0.000245321 -8.91245e-06      7.15305 
         850      17.5115  0.000243676 -8.96546e-06      7.15305 
         850      17.6399  0.000242057 -9.01708e-06      7.15305 
         850       17.769  0.000240461 -9.06641e-06      7.15305 
         850      17.8984  0.000238953 -9.11679e-06      7.15306 
         850      18.0284  0.000237513 -9.16602e-06      7.15306 
         850      18.1587  0.000236097  -9.2093e-06      7.15306 
         850      18.2896  0.000234703 -9.24525e-06      7.15306 
         850       18.421  0.000233331 -9.27273e-06      7.15306 
         850      18.5528  0.000231982 -9.29101e-06      7.15306 
         850      18.6851  0.000230651 -9.29976e-06      7.15306 
         850      18.8178  0.000229342 -9.29902e-06      7.15306 
         850      18.9511  0.000228051  -9.2892e-06      7.15306 
         850      19.0847  0.000226781 -9.27113e-06      7.15306 
         850      19.2189  0.000225529 -9.24596e-06      7.15306 
         850      19.3535  0.000224298  -9.2153e-06      7.15306 
         850      19.4886  0.000223087 -9.18099e-06      7.15307 
         850      19.6242  0.000221896 -9.14529e-06      7.15307 
         850      19.7602  0.000220728 -9.11074e-06      7.15307 
         850      19.8968  0.000219583 -9.08006e-06      7.15307 
         850      20.0337  0.000218462 -9.05628e-06      7.15307 
         850      20.1712  0.000217367  -9.0425e-06      7.15307 
         850      20.3091  0.000216301 -9.04198e-06      7.15307 
         850      20.4475  0.000215264 -9.05796e-06      7.15307 
         850      20.5864   0.00021426 -9.09366e-06      7.15307 
         850      20.7257  0.000213293 -9.15209e-06      7.15307 
         850      20.8655   0.00021225 -9.14828e-06      7.15307 
         850      21.0058  0.000211106 -9.04476e-06      7.15307 
         850      21.1465  0.000210018 -8.96056e-06      7.15307 
         850      21.2877  0.000208979  -8.8932e-06      7.15307 
         850      21.4294   0.00020798 -8.83991e-06      7.15308 
         850      21.5716  0.000207017 -8.79801e-06      7.15308 
         850      21.7142  0.000206084 -8.76478e-06      7.15308 
         850      21.8573  0.000205177 -8.73743e-06      7.15308 
         850      22.0008  0.000204295 -8.71331e-06      7.15308 
         850      22.1449  0.000203433 -8.68971e-06      7.15308 
         850      22.2893  0.000202593 -8.66408e-06      7.15308 
         850      22.4344  0.000201773 -8.63391e-06      7.15308 
         850      22.5797  0.000200974 -8.59687e-06      7.15308 
         850      22.7257  0.000200197 -8.55067e-06      7.15308 
         850      22.8721  0.000199443 -8.49326e-06      7.15308 
         850      23.0189  0.000198715  -8.4228e-06      7.15308 
         850      23.1663  0.000198014 -8.33748e-06      7.15308 
         850       23.314  0.000197345 -8.23596e-06      7.15308 
         850      23.4623  0.000196708 -8.11682e-06      7.15308 
         850       23.611   0.00019592 -8.10983e-06      7.15308 
         850      23.7602  0.000195164 -8.09942e-06      7.15308 
         850        23.91  0.000194441 -8.08402e-06      7.15308 
         850        24.06  0.000193747  -8.0636e-06      7.15308 
         850      24.2107  0.000193079 -8.03814e-06      7.15308 
         850      24.3617  0.000192436 -8.00774e-06      7.15308 
         850      24.5133  0.000191814 -7.97245e-06      7.15309 
         850      24.6653  0.000191213 -7.93249e-06      7.15309 
         850      24.8178   0.00019063 -7.88798e-06      7.15309 
         850      24.9708  0.000190065 -7.83921e-06      7.15309 
         850      25.1242  0.000189516 -7.78653e-06      7.15309 
         850      25.2781  0.000188981 -7.73021e-06      7.15309 
         850      25.4324   0.00018846 -7.67074e-06      7.15309 
         850      25.5873  0.000187951  -7.6085e-06      7.15309 
         850      25.7426  0.000187453 -7.54407e-06      7.15309 
         850      25.8984  0.000186965  -7.4779e-06      7.15309 
         850      26.0546  0.000186485 -7.41067e-06      7.15309 
         850      26.2114  0.000186013 -7.34287e-06      7.15309 
         850      26.3686  0.000185547 -7.27519e-06      7.15309 
         850      26.5262  0.000185086 -7.20833e-06      7.15309 
         850      26.6844  0.000184629 -7.14282e-06      7.15309 
         850      26.8429  0.000184175  -7.0794e-06      7.15309 
         850       27.002  0.000183724  -7.0186e-06      7.15309 
         850      27.1615  0.000183275  -6.9611e-06      7.15309 
         850      27.3216  0.000182827 -6.90734e-06      7.15309 
         850      27.4821  0.000182383 -6.85783e-06      7.15309 
         850       27.643  0.000181943 -6.81301e-06      7.15309 
         850      27.8044  0.000181509 -6.77307e-06      7.15309 
         850      27.9663  0.000181085 -6.73823e-06      7.15309 
         850      28.1287  0.000180673 -6.70844e-06      7.15309 
         850      28.2914   0.00018028 -6.68356e-06      7.15309 
         850      28.4548  0.000179913 -6.66317e-06      7.15309 
         850      28.6185  0.000179581 -6.64668e-06      7.15309 
         850      28.7828  0.000179293 -6.63317e-06      7.15309 
         850      28.9475  0.000179065 -6.62145e-06      7.15309 
         850      29.1126  0.000178808 -6.51264e-06      7.15309 
         850      29.2784   0.00017852 -6.38461e-06      7.15309 
         850      29.4444  0.000178224 -6.26496e-06      7.15309 
         850       29.611  0.000177923 -6.15267e-06      7.15309 
         850       29.778   0.00017762 -6.04715e-06      7.15309 
         850      29.9456  0.000177317 -5.94757e-06      7.15309 
         850      30.1137  0.000177018 -5.85338e-06      7.15309 
         850      30.2821  0.000176725 -5.76409e-06      7.15309 
         850      30.4511  0.000176438 -5.67906e-06      7.15309 
         850      30.6204  0.000176159 -5.59798e-06      7.15309 
         850      30.7903  0.000175889 -5.52029e-06      7.15309 
         850      30.9606  0.000175629 -5.44577e-06      7.15309 
         850      31.1315  0.000175379 -5.37397e-06      7.15309 
         850      31.3028  0.000175138 -5.30465e-06      7.15309 
         850      31.4745  0.000174908  -5.2376e-06      7.15309 
         850      31.6468  0.000174688 -5.17249e-06      7.15309 
         850      31.8194  0.000174476  -5.1092e-06      7.15309 
         850      31.9926  0.000174274 -5.04743e-06      7.15309 
         850      32.1662   0.00017408 -4.98713e-06      7.15309 
         850      32.3404  0.000173893 -4.92803e-06      7.15309 
         850      32.5149  0.000173713 -4.87009e-06      7.15309 
         850        32.69  0.000173539 -4.81308e-06      7.15309 
         850      32.8655  0.000173369 -4.75695e-06      7.15309 
         850      33.0414  0.000173204 -4.70162e-06      7.15309 
         850       33.218  0.000173043 -4.64693e-06      7.15309 
         850      33.3948  0.000172884 -4.59286e-06      7.15309 
         850      33.5723  0.000172727 -4.53928e-06      7.15309 
         850        33.75  0.000172572 -4.48622e-06      7.15309 
         850      33.9284  0.000172418 -4.43355e-06      7.15309 
         850      34.1073  0.000172265  -4.3813e-06      7.15309 
         850      34.2865  0.000172113 -4.32952e-06      7.15309 
         850      34.4663  0.000171961 -4.27816e-06      7.15309 
         850      34.6465  0.000171809 -4.22736e-06      7.15309 
         850      34.8272  0.000171659 -4.17714e-06      7.15309 
         850      35.0083  0.000171511 -4.12774e-06      7.15309 
         850        35.19  0.000171364 -4.07925e-06      7.15309 
         850      35.3721  0.000171221 -4.03199e-06      7.15309 
         850      35.5546  0.000171081  -3.9863e-06      7.15309 
         850      35.7377  0.000170947 -3.94251e-06      7.15309 
         850      35.9211   0.00017082 -3.90117e-06      7.15309 
         850      36.1052  0.000170701 -3.86281e-06      7.15309 
         850      36.2895  0.000170591 -3.82816e-06      7.15309 
         850      36.4745  0.000170493 -3.79802e-06      7.15309 
         850      36.6598   0.00017041 -3.77337e-06      7.15309 
         850      36.8457  0.000170341 -3.75531e-06      7.15309 
         850      37.0321  0.000170291 -3.74515e-06      7.15309 
         850      37.2188  0.000170262 -3.74437e-06      7.15309 
         850      37.4062  0.000170255 -3.75469e-06      7.15309 
         850      37.5938  0.000170137 -3.78903e-06      7.15309 
         850      37.7821  0.000170013 -3.81308e-06      7.15309 
         850      37.9707  0.000169881 -3.82469e-06      7.15309 
         850      38.1599  0.000169739 -3.82221e-06      7.15309 
         850      38.3496  0.000169584  -3.8042e-06      7.15309 
         850      38.5396  0.000169413 -3.76956e-06      7.15309 
         850      38.7302  0.000169219 -3.71737e-06      7.15309 
         850      38.9211  0.000168999 -3.64723e-06      7.15309 
         850      39.1127  0.000168745 -3.55889e-06      7.15309 
         850      39.3046  0.000168595  -3.4858e-06      7.15309 
         850      39.4971  0.000168694 -3.47322e-06      7.15309 
         850      39.6899  0.000168759 -3.45731e-06      7.15309 
         850      39.8833  0.000168794 -3.43294e-06      7.15309 
         850      40.0772  0.000168802 -3.39567e-06      7.15309 
         850      40.2714   0.00016879 -3.34177e-06      7.15309 
         850      40.4663   0.00016876 -3.26796e-06      7.15309 
         850      40.6615  0.000168717 -3.17173e-06      7.15309 
         850      40.8573  0.000168617 -3.11667e-06      7.15309 
         850      41.0534   0.00016846 -3.13574e-06      7.15309 
         850      41.2501  0.000168314 -3.14959e-06      7.15309 
         850      41.4473  0.000168183 -3.15837e-06      7.15309 
         850      41.6448  0.000168066 -3.16232e-06      7.15309 
         850      41.8429  0.000167963 -3.16175e-06      7.15309 
         850      42.0414  0.000167874 -3.15706e-06      7.15309 
         850      42.2405  0.000167798 -3.14863e-06      7.15309 
         850      42.4399  0.000167735 -3.13695e-06      7.15309 
         850      42.6399  0.000167683 -3.12246e-06      7.15309 
         850      42.8404  0.000167642 -3.10567e-06      7.15309 
         850      43.0412  0.000167608 -3.08709e-06      7.15309 
         850      43.2426  0.000167582 -3.06719e-06      7.15309 
         850      43.4444  0.000167562 -3.04647e-06      7.15309 
         850      43.6467  0.000167545 -3.02535e-06      7.15309 
         850      43.8494   0.00016753 -3.00432e-06      7.15309 
         850      44.0527  0.000167517 -2.98372e-06      7.15309 
         850      44.2563  0.000167503 -2.96394e-06      7.15309 
         850      44.4606  0.000167488 -2.94527e-06      7.15309 
         850      44.6653  0.000167471 -2.92798e-06      7.15309 
         850      44.8704   0.00016745 -2.91229e-06      7.15309 
         850       45.076  0.000167426 -2.89832e-06      7.15309 
         850       45.282  0.000167398 -2.88619e-06      7.15309 
         850      45.4886  0.000167365  -2.8759e-06      7.15309 
         850      45.6955  0.000167329 -2.86745e-06      7.15309 
         850       45.903  0.000167288 -2.86074e-06      7.15309 
         850      46.1111  0.000167244 -2.85562e-06      7.15309 
         850      46.3194  0.000167198 -2.85191e-06      7.15309 
         850      46.5283   0.00016715 -2.84936e-06      7.15309 
         850      46.7376  0.000167101 -2.84767e-06      7.15309 
         850      46.9475  0.000167053 -2.84652e-06      7.15309 
         850      47.1577  0.000167005 -2.84558e-06      7.15309 
         850      47.3685   0.00016696 -2.84445e-06      7.15309 
         850      47.5798  0.000166918 -2.84278e-06      7.15309 
         850      47.7914  0.000166881 -2.84018e-06      7.15309 
         850      48.0037  0.000166848 -2.83632e-06      7.15309 