Variables = x, y, u, v, p

Zone, I=800, F=POINT
         600            0           -0           -0     -20.6879 
         600     0.000234  2.85257e-06  1.82233e-11     -20.6879 
         600     0.000939  1.09935e-05  2.91323e-10     -20.6879 
         600     0.002113  2.31511e-05  1.47313e-09     -20.6879 
         600     0.003759  3.76168e-05  4.65962e-09     -20.6879 
         600     0.005872  5.25523e-05  1.13665e-08     -20.6879 
         600     0.008457   6.6579e-05   2.3569e-08     -20.6879 
         600      0.01151  7.89699e-05  4.36403e-08     -20.6879 
         600     0.015036  8.98736e-05  7.44348e-08     -20.6879 
         600     0.019031  0.000100099  1.19161e-07     -20.6879 
         600     0.023493  0.000110773  1.81424e-07     -20.6879 
         600     0.028429  0.000122826  2.65358e-07     -20.6879 
         600     0.033831  0.000136452  3.75226e-07     -20.6879 
         600     0.039706   0.00015097  5.15908e-07     -20.6879 
         600     0.046047  0.000165026  6.92276e-07     -20.6879 
         600     0.052863  0.000177459  9.09904e-07     -20.6879 
         600      0.06015   0.00018829  1.17424e-06     -20.6879 
         600       0.0679  0.000199173  1.49065e-06     -20.6879 
         600     0.076126  0.000211404  1.86547e-06     -20.6879 
         600     0.084816  0.000219844  2.30402e-06     -20.6879 
         600     0.093982  0.000228255  2.81272e-06     -20.6879 
         600     0.103611  0.000235115  3.39657e-06     -20.6879 
         600     0.113718   0.00024039  4.06207e-06     -20.6879 
         600     0.124286  0.000244032  4.81342e-06     -20.6879 
         600     0.135333   0.00024601   5.6569e-06     -20.6879 
         600      0.14685  0.000246285  6.59652e-06     -20.6879 
         600     0.158827  0.000244839  7.63557e-06     -20.6879 
         600     0.171284  0.000241666  8.77946e-06     -20.6879 
         600     0.184201  0.000236798  1.00295e-05     -20.6879 
         600     0.197599  0.000230288  1.13903e-05     -20.6879 
         600     0.211455  0.000222249  1.28615e-05     -20.6879 
         600     0.225792  0.000212792  1.44468e-05     -20.6879 
         600       0.2406  0.000202036  1.61459e-05     -20.6879 
         600     0.255865  0.000190073  1.79569e-05     -20.6879 
         600     0.271613  0.000177099  1.98829e-05     -20.6879 
         600     0.287818  0.000163265  2.19193e-05     -20.6879 
         600     0.304506  0.000148711  2.40678e-05     -20.6879 
         600      0.32165  0.000133626  2.63225e-05     -20.6879 
         600     0.339278  0.000118149  2.86847e-05     -20.6879 
         600     0.357377  0.000102454  3.11498e-05     -20.6879 
         600      0.37593  8.67114e-05  3.37122e-05     -20.6879 
         600     0.394968  7.10421e-05  3.63727e-05     -20.6879 
         600     0.414461  5.56091e-05  3.91236e-05     -20.6879 
         600      0.43444  4.05149e-05  4.19656e-05     -20.6879 
         600     0.454872  2.58999e-05    4.489e-05     -20.6879 
         600     0.475791  1.18425e-05  4.78981e-05     -20.6879 
         600     0.497163 -1.54394e-06   5.0981e-05     -20.6879 
         600     0.519021 -1.42021e-05    5.414e-05     -20.6879 
         600      0.54135  -2.6056e-05  5.73695e-05     -20.6879 
         600     0.564131 -3.70428e-05  6.06636e-05     -20.6879 
         600       0.5874 -4.71377e-05  6.40249e-05     -20.6879 
         600     0.611121 -5.62953e-05  6.74461e-05     -20.6879 
         600      0.63533 -6.44997e-05  7.09278e-05     -20.6879 
         600      0.65999 -7.17367e-05  7.44611e-05     -20.6879 
         600     0.685139 -7.80121e-05  7.80501e-05     -20.6879 
         600     0.710759  -8.3321e-05  8.16909e-05     -20.6879 
         600     0.736828 -8.76679e-05   8.5379e-05     -20.6879 
         600     0.763387 -9.10743e-05  8.91182e-05     -20.6879 
         600     0.790396 -9.35567e-05  9.29011e-05     -20.6879 
         600     0.817896 -9.51476e-05  9.67312e-05     -20.6879 
         600     0.845843 -9.58804e-05    0.0001006     -20.6879 
         600     0.874283 -9.57993e-05  0.000104511     -20.6879 
         600      0.90317 -9.49539e-05  0.000108456     -20.6879 
         600     0.932551 -9.33992e-05  0.000112437     -20.6879 
         600     0.962401 -9.11979e-05  0.000116448     -20.6879 
         600     0.992697 -8.84204e-05  0.000120483     -20.6879 
         600      1.02349 -8.51353e-05  0.000124544     -20.6879 
         600      1.05472 -8.14248e-05  0.000128621     -20.6879 
         600      1.08645 -7.73634e-05  0.000132716     -20.6879 
         600      1.11863   -7.304e-05  0.000136818     -20.6879 
         600       1.1513 -6.85313e-05   0.00014093     -20.6879 
         600      1.18444 -6.39237e-05  0.000145044     -20.6879 
         600      1.21802 -5.93019e-05  0.000149151     -20.6879 
         600      1.25211 -5.47352e-05  0.000153253     -20.6879 
         600      1.28663 -5.03022e-05  0.000157338     -20.6879 
         600      1.32165 -4.60583e-05  0.000161407     -20.6879 
         600      1.35712 -4.20625e-05  0.000165448     -20.6879 
         600      1.39308 -3.83472e-05  0.000169461     -20.6879 
         600      1.42951 -3.49377e-05  0.000173436     -20.6879 
         600      1.46638 -3.18395e-05  0.000177364     -20.6879 
         600      1.50375  -2.9027e-05  0.000181243     -20.6879 
         600      1.54156 -2.65453e-05  0.000185091     -20.6879 
         600      1.57987 -2.43414e-05  0.000188896     -20.6879 
         600      1.61863 -2.23695e-05  0.000192647     -20.6879 
         600      1.65788 -2.05839e-05  0.000196346     -20.6879 
         600      1.69757 -1.89484e-05  0.000199984     -20.6879 
         600      1.73776 -1.74242e-05  0.000203564     -20.6879 
         600      1.77842   -1.598e-05  0.000207079     -20.6879 
         600      1.81952  -1.4588e-05  0.000210523     -20.6879 
         600      1.86113 -1.32205e-05  0.000213898     -20.6879 
         600      1.90316 -1.18578e-05  0.000217195     -20.6879 
         600      1.94571 -1.04797e-05  0.000220416     -20.6879 
         600      1.98869 -9.07354e-06  0.000223553     -20.6879 
         600      2.03217 -7.62593e-06  0.000226607     -20.6879 
         600      2.07612 -6.12997e-06  0.000229572     -20.6879 
         600      2.12051 -4.58199e-06  0.000232443     -20.6879 
         600       2.1654 -2.97752e-06  0.000235221     -20.6879 
         600      2.21073 -1.31966e-06  0.000237898     -20.6879 
         600      2.25656  3.91318e-07  0.000240475     -20.6879 
         600      2.30283  2.14787e-06  0.000242945     -20.6879 
         600       2.3496  3.94621e-06  0.000245308     -20.6879 
         600      2.39685  5.77724e-06  0.000247559     -20.6879 
         600      2.44452  7.63077e-06  0.000249693     -20.6879 
         600      2.49271  9.50057e-06  0.000251711     -20.6879 
         600      2.54132  1.13745e-05  0.000253605     -20.6879 
         600      2.59044  1.32467e-05  0.000255376     -20.6879 
         600         2.64  1.51059e-05  0.000257017     -20.6879 
         600      2.69006  1.69479e-05   0.00025853     -20.6879 
         600      2.74056  1.87639e-05  0.000259908     -20.6879 
         600      2.79156  2.05527e-05  0.000261152     -20.6879 
         600      2.84304  2.23105e-05  0.000262257     -20.6879 
         600      2.89494  2.40355e-05  0.000263221     -20.6879 
         600      2.94735  2.57319e-05  0.000264044     -20.6879 
         600       3.0002  2.74005e-05  0.000264723     -20.6879 
         600      3.05355  2.90488e-05  0.000265258     -20.6879 
         600      3.10733  3.06805e-05  0.000265649     -20.6879 
         600      3.16163   3.2305e-05  0.000265895     -20.6879 
         600      3.21639  3.39275e-05  0.000265998     -20.6879 
         600      3.27158  3.55521e-05   0.00026596     -20.6879 
         600      3.32729  3.71842e-05  0.000265782     -20.6879 
         600      3.38342  3.88196e-05   0.00026547     -20.6879 
         600      3.44007  4.04532e-05  0.000265028     -20.6879 
         600      3.49714  4.20662e-05  0.000264462     -20.6879 
         600      3.55472  4.36335e-05  0.000263781     -20.6879 
         600      3.61273  4.51104e-05  0.000262995     -20.6879 
         600      3.67125  4.64385e-05  0.000262114     -20.6879 
         600      3.73025  4.75329e-05  0.000261154     -20.6879 
         600      3.78967  4.87292e-05  0.000260028     -20.6879 
         600      3.84961  5.00871e-05   0.00025875     -20.6879 
         600      3.90996  5.14321e-05   0.00025737     -20.6879 
         600      3.97084   5.2749e-05   0.00025589     -20.6879 
         600      4.03214  5.40201e-05  0.000254317     -20.6879 
         600      4.09395   5.5233e-05  0.000252651     -20.6879 
         600      4.15624  5.63742e-05  0.000250898     -20.6879 
         600      4.21895  5.74318e-05  0.000249062     -20.6879 
         600      4.28217  5.83981e-05  0.000247146     -20.6879 
         600      4.34582  5.92639e-05  0.000245155     -20.6879 
         600      4.40998  6.00244e-05   0.00024309     -20.6879 
         600      4.47457  6.06742e-05  0.000240959     -20.6879 
         600      4.53968  6.12116e-05  0.000238761     -20.6879 
         600      4.60525  6.16347e-05  0.000236503     -20.6879 
         600      4.67125  6.19441e-05  0.000234191     -20.6879 
         600      4.73777  6.21422e-05  0.000231826     -20.6879 
         600       4.8047  6.22323e-05  0.000229417     -20.6879 
         600      4.87216  6.22197e-05  0.000226963     -20.6879 
         600      4.94003  6.21108e-05  0.000224476     -20.6879 
         600      5.00843  6.19169e-05  0.000221953     -20.6879 
         600      5.07724  6.17397e-05  0.000219338     -20.6879 
         600      5.14658  6.14885e-05    0.0002167     -20.6879 
         600      5.21639  6.11737e-05  0.000214044     -20.6879 
         600      5.28661  6.08057e-05  0.000211377     -20.6879 
         600      5.35736  6.03943e-05    0.0002087     -20.6879 
         600      5.42852  5.99502e-05  0.000206021     -20.6879 
         600      5.50021  5.94824e-05  0.000203341     -20.6879 
         600      5.57231   5.9001e-05  0.000200668     -20.6879 
         600      5.64493  5.85139e-05  0.000198002     -20.6879 
         600      5.71803  5.80297e-05   0.00019535     -20.6879 
         600      5.79154   5.7556e-05  0.000192718     -20.6879 
         600      5.86558  5.70984e-05  0.000190105     -20.6879 
         600      5.94003   5.6663e-05  0.000187518     -20.6879 
         600      6.01501  5.62536e-05  0.000184957     -20.6879 
         600       6.0904  5.58741e-05  0.000182427     -20.6879 
         600      6.16632  5.55262e-05  0.000179926     -20.6879 
         600      6.24271  5.52114e-05  0.000177455     -20.6879 
         600       6.3195  5.49302e-05  0.000175018     -20.6879 
         600      6.39683  5.46814e-05  0.000172608     -20.6879 
         600      6.47457  5.44641e-05  0.000170227     -20.6879 
         600      6.55284  5.42757e-05  0.000167867     -20.6879 
         600      6.63152  5.41142e-05  0.000165527     -20.6879 
         600      6.71073  5.39767e-05  0.000163196     -20.6879 
         600      6.79034   5.3861e-05  0.000160868     -20.6879 
         600      6.87049  5.37653e-05  0.000158531     -20.6879 
         600      6.95111  5.36889e-05  0.000156173     -20.6879 
         600      7.03214  5.35902e-05  0.000153869     -20.6879 
         600       7.1137  5.34016e-05  0.000151771     -20.6879 
         600      7.19566  5.32336e-05  0.000149666     -20.6879 
         600      7.27816  5.30819e-05  0.000147553     -20.6879 
         600      7.36106   5.2943e-05  0.000145439     -20.6879 
         600      7.44451   5.2813e-05  0.000143323     -20.6879 
         600      7.52842  5.26886e-05  0.000141212     -20.6879 
         600      7.61273  5.25669e-05   0.00013911     -20.6879 
         600      7.69758  5.24448e-05  0.000137018     -20.6879 
         600      7.78283  5.23201e-05  0.000134942     -20.6879 
         600      7.86862  5.21906e-05  0.000132884     -20.6879 
         600      7.95481  5.20548e-05  0.000130849     -20.6879 
         600      8.04155  5.19114e-05  0.000128837     -20.6879 
         600      8.12868  5.17598e-05  0.000126853     -20.6879 
         600      8.21635  5.15996e-05  0.000124896     -20.6879 
         600      8.30449   5.1431e-05  0.000122967     -20.6879 
         600      8.39303   5.1255e-05  0.000121068     -20.6879 
         600      8.48211  5.10723e-05  0.000119195     -20.6879 
         600      8.57159  5.08846e-05  0.000117348     -20.6879 
         600      8.66161  5.06934e-05   0.00011552     -20.6879 
         600      8.75203  5.05009e-05  0.000113709     -20.6879 
         600      8.84299  5.03092e-05  0.000111906     -20.6879 
         600      8.93443  5.01836e-05  0.000110134     -20.6879 
         600      9.02626  5.00845e-05  0.000108372     -20.6879 
         600      9.11863  4.99873e-05  0.000106612     -20.6879 
         600      9.21139  4.98894e-05  0.000104864     -20.6879 
         600      9.30471  4.97879e-05  0.000103131     -20.6879 
         600      9.39841  4.96807e-05  0.000101419     -20.6879 
         600      9.49267  4.95655e-05  9.97289e-05     -20.6879 
         600      9.58739   4.9441e-05  9.80633e-05     -20.6879 
         600      9.68251  4.93063e-05   9.6424e-05     -20.6879 
         600      9.77817  4.91607e-05  9.48076e-05     -20.6879 
         600      9.87422  4.90046e-05  9.32152e-05     -20.6879 
         600      9.97083  4.88387e-05  9.16424e-05     -20.6879 
         600      10.0678  4.86646e-05  9.00892e-05     -20.6879 
         600      10.1654  4.84841e-05  8.85508e-05     -20.6879 
         600      10.2633     4.83e-05  8.70277e-05     -20.6879 
         600      10.3618  4.81153e-05  8.55161e-05     -20.6879 
         600      10.4607  4.79334e-05  8.40171e-05     -20.6879 
         600      10.5601  4.77584e-05  8.25337e-05     -20.6879 
         600        10.66  4.75939e-05  8.10674e-05     -20.6879 
         600      10.7603  4.74441e-05  7.96277e-05     -20.6879 
         600      10.8611  4.73123e-05  7.82229e-05     -20.6879 
         600      10.9623   4.7202e-05  7.68705e-05     -20.6879 
         600      11.0641  4.70466e-05  7.54463e-05     -20.6879 
         600      11.1663  4.69209e-05   7.4063e-05     -20.6879 
         600       11.269  4.68227e-05  7.27326e-05     -20.6879 
         600      11.3721  4.67356e-05  7.14363e-05     -20.6879 
         600      11.4757  4.66482e-05   7.0164e-05     -20.6879 
         600      11.5798  4.65526e-05  6.89052e-05     -20.6879 
         600      11.6844  4.64446e-05   6.7657e-05     -20.6879 
         600      11.7894  4.63225e-05  6.64152e-05     -20.6879 
         600       11.895  4.61871e-05  6.51806e-05     -20.6879 
         600      12.0009  4.60409e-05  6.39563e-05     -20.6879 
         600      12.1073  4.58873e-05  6.27432e-05     -20.6879 
         600      12.2142  4.57309e-05  6.15472e-05     -20.6879 
         600      12.3216  4.55758e-05  6.03707e-05     -20.6879 
         600      12.4294  4.54268e-05  5.92196e-05     -20.6879 
         600      12.5378  4.52872e-05  5.80957e-05     -20.6879 
         600      12.6465  4.51602e-05  5.70034e-05     -20.6879 
         600      12.7558  4.50472e-05  5.59426e-05     -20.6879 
         600      12.8656  4.49482e-05  5.49139e-05     -20.6879 
         600      12.9757  4.48618e-05  5.39163e-05     -20.6879 
         600      13.0864  4.47846e-05  5.29444e-05     -20.6879 
         600      13.1975  4.47114e-05  5.19937e-05     -20.6879 
         600      13.3092  4.46353e-05  5.10543e-05     -20.6879 
         600      13.4212  4.45477e-05  5.01175e-05     -20.6879 
         600      13.5338  4.44386e-05  4.91691e-05     -20.6879 
         600      13.6468  4.42968e-05  4.81952e-05     -20.6879 
         600      13.7603  4.41109e-05  4.71801e-05     -20.6879 
         600      13.8743  4.38687e-05  4.61044e-05     -20.6879 
         600      13.9886  4.36798e-05  4.50716e-05     -20.6879 
         600      14.1036  4.36414e-05    4.417e-05     -20.6879 
         600      14.2189  4.36284e-05   4.3287e-05     -20.6879 
         600      14.3348  4.36337e-05  4.24319e-05     -20.6879 
         600       14.451  4.36475e-05  4.16165e-05     -20.6879 
         600      14.5678  4.36561e-05  4.08502e-05     -20.6879 
         600      14.6851  4.36422e-05  4.01449e-05     -20.6879 
         600      14.8028  4.35835e-05  3.95127e-05     -20.6879 
         600       14.921  4.34529e-05  3.89652e-05     -20.6879 
         600      15.0396  4.34601e-05   3.8038e-05     -20.6879 
         600      15.1588   4.3421e-05  3.71063e-05     -20.6879 
         600      15.2783  4.33348e-05  3.62188e-05     -20.6879 
         600      15.3984  4.32205e-05  3.53706e-05     -20.6879 
         600       15.519  4.30927e-05   3.4559e-05     -20.6879 
         600        15.64  4.29621e-05  3.37804e-05     -20.6879 
         600      15.7615  4.28357e-05  3.30299e-05     -20.6879 
         600      15.8834  4.27179e-05  3.23046e-05     -20.6879 
         600      16.0058  4.26105e-05  3.15996e-05     -20.6879 
         600      16.1286  4.25139e-05  3.09125e-05     -20.6879 
         600       16.252  4.24268e-05  3.02392e-05     -20.6879 
         600      16.3759  4.23473e-05  2.95773e-05     -20.6879 
         600      16.5002  4.22731e-05  2.89252e-05     -20.6879 
         600       16.625  4.22015e-05  2.82802e-05     -20.6879 
         600      16.7501  4.21304e-05  2.76422e-05     -20.6879 
         600      16.8759  4.20577e-05  2.70095e-05     -20.6879 
         600       17.002  4.19825e-05  2.63833e-05     -20.6879 
         600      17.1287  4.19042e-05   2.5763e-05     -20.6879 
         600      17.2557  4.18235e-05  2.51508e-05     -20.6879 
         600      17.3834  4.17415e-05   2.4547e-05     -20.6879 
         600      17.5115  4.16601e-05  2.39538e-05     -20.6879 
         600      17.6399  4.15819e-05  2.33737e-05     -20.6879 
         600       17.769  4.15094e-05  2.28073e-05     -20.6879 
         600      17.8984   4.1445e-05  2.22574e-05     -20.6879 
         600      18.0284  4.13904e-05  2.17241e-05     -20.6879 
         600      18.1587  4.13458e-05  2.12087e-05     -20.6879 
         600      18.2896  4.13092e-05  2.07097e-05     -20.6879 
         600       18.421  4.12757e-05  2.02255e-05     -20.6879 
         600      18.5528  4.12361e-05  1.97525e-05     -20.6879 
         600      18.6851  4.11759e-05  1.92837e-05     -20.6879 
         600      18.8178   4.1074e-05  1.88111e-05     -20.6879 
         600      18.9511  4.09009e-05  1.83215e-05     -20.6879 
         600      19.0847  4.06174e-05  1.77996e-05     -20.6879 
         600      19.2189  4.07048e-05  1.73149e-05     -20.6879 
         600      19.3535  4.07957e-05  1.68627e-05     -20.6879 
         600      19.4886  4.08729e-05  1.64406e-05     -20.6879 
         600      19.6242  4.09347e-05  1.60475e-05     -20.6879 
         600      19.7602  4.09798e-05  1.56809e-05     -20.6879 
         600      19.8968   4.1007e-05  1.53367e-05     -20.6879 
         600      20.0337  4.10158e-05  1.50111e-05     -20.6879 
         600      20.1712  4.10061e-05  1.46987e-05     -20.6879 
         600      20.3091  4.09784e-05  1.43947e-05     -20.6879 
         600      20.4475   4.0929e-05  1.40879e-05     -20.6879 
         600      20.5864   4.0696e-05  1.36139e-05     -20.6879 
         600      20.7257   4.0503e-05  1.31976e-05      -20.688 
         600      20.8655  4.03454e-05   1.2827e-05      -20.688 
         600      21.0058  4.02194e-05  1.24926e-05      -20.688 
         600      21.1465   4.0121e-05  1.21855e-05      -20.688 
         600      21.2877  4.00464e-05  1.18989e-05      -20.688 
         600      21.4294  3.99919e-05  1.16263e-05      -20.688 
         600      21.5716  3.99541e-05   1.1363e-05      -20.688 
         600      21.7142  3.99295e-05  1.11053e-05      -20.688 
         600      21.8573  3.99151e-05  1.08498e-05      -20.688 
         600      22.0008  3.99079e-05  1.05949e-05      -20.688 
         600      22.1449  3.99054e-05  1.03389e-05      -20.688 
         600      22.2893  3.99052e-05  1.00816e-05      -20.688 
         600      22.4344  3.99052e-05  9.82258e-06      -20.688 
         600      22.5797  3.99036e-05  9.56283e-06      -20.688 
         600      22.7257  3.98988e-05  9.30283e-06      -20.688 
         600      22.8721  3.98897e-05  9.04407e-06      -20.688 
         600      23.0189  3.98753e-05  8.78825e-06      -20.688 
         600      23.1663  3.98552e-05   8.5366e-06      -20.688 
         600       23.314   3.9829e-05  8.29122e-06      -20.688 
         600      23.4623  3.97969e-05  8.05334e-06      -20.688 
         600       23.611  3.97591e-05  7.82486e-06      -20.688 
         600      23.7602  3.97163e-05   7.6067e-06      -20.688 
         600        23.91  3.96695e-05  7.39998e-06      -20.688 
         600        24.06  3.96199e-05  7.20543e-06      -20.688 
         600      24.2107  3.95689e-05  7.02276e-06      -20.688 
         600      24.3617  3.95182e-05  6.85174e-06      -20.688 
         600      24.5133  3.94668e-05  6.68975e-06      -20.688 
         600      24.6653   3.9396e-05  6.51582e-06      -20.688 
         600      24.8178  3.93435e-05   6.3373e-06      -20.688 
         600      24.9708  3.93065e-05  6.15698e-06      -20.688 
         600      25.1242   3.9282e-05  5.97726e-06      -20.688 
         600      25.2781   3.9267e-05  5.79968e-06      -20.688 
         600      25.4324  3.92582e-05  5.62599e-06      -20.688 
         600      25.5873  3.92527e-05  5.45695e-06      -20.688 
         600      25.7426  3.92475e-05  5.29355e-06      -20.688 
         600      25.8984  3.92399e-05  5.13586e-06      -20.688 
         600      26.0546  3.92278e-05  4.98418e-06      -20.688 
         600      26.2114  3.92091e-05  4.83808e-06      -20.688 
         600      26.3686  3.91829e-05  4.69725e-06      -20.688 
         600      26.5262  3.91484e-05  4.56129e-06      -20.688 
         600      26.6844  3.91062e-05  4.42938e-06      -20.688 
         600      26.8429  3.90576e-05   4.3012e-06      -20.688 
         600       27.002  3.90051e-05  4.17615e-06      -20.688 
         600      27.1615  3.89526e-05   4.0543e-06      -20.688 
         600      27.3216  3.89053e-05  3.93573e-06      -20.688 
         600      27.4821  3.88703e-05  3.82134e-06      -20.688 
         600       27.643  3.88564e-05  3.71274e-06      -20.688 
         600      27.8044  3.88744e-05  3.61217e-06      -20.688 
         600      27.9663  3.89374e-05  3.52326e-06      -20.688 
         600      28.1287  3.89825e-05  3.41226e-06      -20.688 
         600      28.2914  3.89815e-05  3.25008e-06      -20.688 
         600      28.4548   3.8983e-05  3.07163e-06      -20.688 
         600      28.6185  3.89717e-05   2.8866e-06      -20.688 
         600      28.7828  3.89372e-05  2.70329e-06      -20.688 
         600      28.9475  3.88741e-05  2.52919e-06      -20.688 
         600      29.1126  3.87818e-05  2.37007e-06      -20.688 
         600      29.2784  3.86646e-05  2.22922e-06      -20.688 
         600      29.4444   3.8532e-05  2.10791e-06      -20.688 
         600       29.611  3.85858e-05  2.04762e-06      -20.688 
         600       29.778  3.86221e-05  1.96643e-06      -20.688 
         600      29.9456  3.86314e-05  1.86676e-06      -20.688 
         600      30.1137   3.8621e-05   1.7555e-06      -20.688 
         600      30.2821  3.85971e-05  1.63831e-06      -20.688 
         600      30.4511  3.85651e-05  1.51946e-06      -20.688 
         600      30.6204  3.85293e-05  1.40253e-06      -20.688 
         600      30.7903  3.84932e-05  1.28987e-06      -20.688 
         600      30.9606  3.84595e-05  1.18339e-06      -20.688 
         600      31.1315    3.843e-05  1.08401e-06      -20.688 
         600      31.3028  3.84061e-05  9.92328e-07      -20.688 
         600      31.4745  3.83885e-05  9.08486e-07      -20.688 
         600      31.6468  3.83773e-05  8.32061e-07      -20.688 
         600      31.8194  3.83722e-05  7.62625e-07      -20.688 
         600      31.9926  3.83726e-05  6.99337e-07      -20.688 
         600      32.1662  3.83774e-05  6.41466e-07      -20.688 
         600      32.3404  3.83855e-05  5.88061e-07      -20.688 
         600      32.5149  3.83955e-05  5.38375e-07      -20.688 
         600        32.69  3.84059e-05  4.91585e-07      -20.688 
         600      32.8655  3.84152e-05  4.47113e-07      -20.688 
         600      33.0414  3.84219e-05  4.04538e-07      -20.688 
         600       33.218  3.84249e-05  3.63524e-07      -20.688 
         600      33.3948   3.8423e-05  3.24064e-07      -20.688 
         600      33.5723  3.84155e-05  2.86224e-07      -20.688 
         600        33.75  3.84019e-05  2.50375e-07      -20.688 
         600      33.9284  3.83822e-05  2.16933e-07      -20.688 
         600      34.1073  3.83569e-05   1.8652e-07      -20.688 
         600      34.2865  3.83272e-05  1.59814e-07      -20.688 
         600      34.4663  3.82947e-05  1.37425e-07      -20.688 
         600      34.6465   3.8262e-05   1.1995e-07      -20.688 
         600      34.8272  3.82322e-05  1.07727e-07      -20.688 
         600      35.0083  3.82096e-05  1.00826e-07      -20.688 
         600        35.19  3.81992e-05  9.88318e-08      -20.688 
         600      35.3721   3.8207e-05  1.00728e-07      -20.688 
         600      35.5546  3.83424e-05  1.04936e-07      -20.688 
         600      35.7377   3.8429e-05  1.06946e-07      -20.688 
         600      35.9211  3.84634e-05  1.05476e-07      -20.688 
         600      36.1052   3.8452e-05  9.98356e-08      -20.688 
         600      36.2895  3.84043e-05  8.97331e-08      -20.688 
         600      36.4745  3.83316e-05  7.51177e-08      -20.688 
         600      36.6598  3.82469e-05  5.61595e-08      -20.688 
         600      36.8457  3.81632e-05  3.31003e-08      -20.688 
         600      37.0321  3.80928e-05  6.32867e-09      -20.688 
         600      37.2188  3.80462e-05 -2.36397e-08      -20.688 
         600      37.4062  3.80299e-05 -5.61973e-08      -20.688 
         600      37.5938  3.80451e-05 -9.03857e-08      -20.688 
         600      37.7821  3.80859e-05 -1.24969e-07      -20.688 
         600      37.9707  3.81364e-05 -1.58051e-07      -20.688 
         600      38.1599  3.81695e-05 -1.87069e-07      -20.688 
         600      38.3496   3.8141e-05 -1.48641e-07     -20.6881 
         600      38.5396  3.80991e-05 -7.56415e-08     -20.6881 
         600      38.7302   3.8071e-05 -4.50809e-08     -20.6881 
         600      38.9211  3.80534e-05 -4.41547e-08     -20.6881 
         600      39.1127  3.80435e-05 -6.20171e-08     -20.6881 
         600      39.3046  3.80391e-05 -8.97862e-08     -20.6881 
         600      39.4971  3.80381e-05 -1.20562e-07     -20.6881 
         600      39.6899  3.80391e-05 -1.49188e-07     -20.6881 
         600      39.8833  3.80407e-05 -1.72314e-07     -20.6881 
         600      40.0772  3.80418e-05 -1.88097e-07     -20.6881 
         600      40.2714  3.80416e-05 -1.96126e-07     -20.6881 
         600      40.4663  3.80394e-05 -1.97224e-07     -20.6881 
         600      40.6615  3.80346e-05 -1.93183e-07     -20.6881 
         600      40.8573   3.8027e-05 -1.86525e-07     -20.6881 
         600      41.0534  3.80164e-05 -1.80226e-07     -20.6881 
         600      41.2501  3.80031e-05 -1.77361e-07     -20.6881 
         600      41.4473  3.79873e-05 -1.80779e-07     -20.6881 
         600      41.6448  3.79699e-05 -1.92669e-07     -20.6881 
         600      41.8429  3.79521e-05 -2.14177e-07     -20.6881 
         600      42.0414  3.79358e-05 -2.44848e-07     -20.6881 
         600      42.2405  3.79234e-05 -2.82245e-07     -20.6881 
         600      42.4399  3.79183e-05 -3.21206e-07     -20.6881 
         600      42.6399  3.79246e-05 -3.53462e-07     -20.6881 
         600      42.8404   3.7948e-05 -3.66773e-07     -20.6881 
         600      43.0412  3.79951e-05 -3.44394e-07     -20.6881 
         600      43.2426  3.80746e-05 -2.64211e-07     -20.6881 
         600      43.4444  3.81937e-05 -1.02121e-07     -20.6881 
         600      43.6467  3.81359e-05 -1.68449e-07     -20.6881 
         600      43.8494  3.80936e-05 -2.25292e-07     -20.6881 
         600      44.0527  3.80632e-05 -2.72262e-07     -20.6881 
         600      44.2563  3.80419e-05 -3.09179e-07     -20.6881 
         600      44.4606  3.80269e-05 -3.36325e-07     -20.6881 
         600      44.6653  3.80161e-05 -3.54176e-07     -20.6881 
         600      44.8704  3.80077e-05 -3.63481e-07     -20.6881 
         600       45.076  3.80001e-05 -3.65207e-07     -20.6881 
         600       45.282  3.79923e-05 -3.60461e-07     -20.6881 
         600      45.4886  3.79835e-05 -3.50461e-07     -20.6881 
         600      45.6955  3.79731e-05 -3.36526e-07     -20.6881 
         600       45.903  3.79609e-05 -3.19974e-07     -20.6881 
         600      46.1111  3.79469e-05 -3.02155e-07     -20.6881 
         600      46.3194  3.79312e-05  -2.8438e-07     -20.6881 
         600      46.5283  3.79143e-05 -2.67843e-07     -20.6881 
         600      46.7376  3.78966e-05 -2.53678e-07     -20.6881 
         600      46.9475  3.78787e-05 -2.42825e-07     -20.6881 
         600      47.1577  3.78615e-05 -2.36083e-07     -20.6881 
         600      47.3685  3.78456e-05 -2.34012e-07     -20.6881 
         600      47.5798   3.7832e-05 -2.36951e-07     -20.6881 
         600      47.7914  3.78214e-05 -2.44953e-07     -20.6881 
         600      48.0037  3.78146e-05 -2.57795e-07     -20.6881 