Variables = x, y, u, v, p

Zone, I=800, F=POINT
         900            0           -0           -0     0.290331 
         900     0.000234 -7.92353e-06  6.59017e-12     0.290331 
         900     0.000939  -2.9996e-05  1.13289e-10     0.290331 
         900     0.002113 -6.12237e-05  5.81126e-10     0.290331 
         900     0.003759 -9.49028e-05  1.85024e-09     0.290331 
         900     0.005872 -0.000124115  4.53475e-09     0.290331 
         900     0.008457 -0.000143881  9.44371e-09     0.290331 
         900      0.01151 -0.000152214  1.75623e-08     0.290331 
         900     0.015036 -0.000150702  3.00924e-08     0.290331 
         900     0.019031 -0.000143766  4.84081e-08     0.290331 
         900     0.023493 -0.000136967  7.40792e-08     0.290331 
         900     0.028429  -0.00013472  1.08933e-07     0.290331 
         900     0.033831 -0.000138333  1.54895e-07     0.290331 
         900     0.039706 -0.000145267  2.14195e-07     0.290331 
         900     0.046047 -0.000150513  2.89107e-07     0.290331 
         900     0.052863 -0.000150271  3.82253e-07     0.290331 
         900      0.06015  -0.00014645  4.96245e-07     0.290331 
         900       0.0679 -0.000148002  6.33704e-07     0.290331 
         900     0.076126 -0.000160594  7.97696e-07     0.290331 
         900     0.084816 -0.000159041  9.90864e-07     0.290331 
         900     0.093982 -0.000166742  1.21636e-06     0.290331 
         900     0.103611 -0.000173837   1.4767e-06     0.290331 
         900     0.113718 -0.000181095  1.77502e-06     0.290331 
         900     0.124286 -0.000189038   2.1134e-06     0.290331 
         900     0.135333 -0.000197968  2.49481e-06     0.290331 
         900      0.14685 -0.000207936  2.92111e-06     0.290331 
         900     0.158827 -0.000218812  3.39373e-06     0.290331 
         900     0.171284 -0.000230409  3.91495e-06     0.290331 
         900     0.184201 -0.000242526  4.48503e-06     0.290331 
         900     0.197599 -0.000255114  5.10559e-06     0.290331 
         900     0.211455 -0.000268223  5.77579e-06     0.290331 
         900     0.225792 -0.000281969  6.49653e-06     0.290331 
         900       0.2406 -0.000296099  7.26666e-06     0.290331 
         900     0.255865 -0.000309947  8.08429e-06     0.290331 
         900     0.271613 -0.000324152  8.94913e-06     0.290331 
         900     0.287818  -0.00033823  9.85773e-06     0.290331 
         900     0.304506 -0.000352091  1.08091e-05     0.290331 
         900      0.32165 -0.000365602   1.1799e-05     0.290331 
         900     0.339278 -0.000378671   1.2826e-05     0.290331 
         900     0.357377  -0.00039118  1.38858e-05     0.290331 
         900      0.37593 -0.000403013   1.4974e-05     0.290331 
         900     0.394968 -0.000414091  1.60886e-05     0.290331 
         900     0.414461 -0.000424312   1.7224e-05     0.290331 
         900      0.43444 -0.000433613  1.83782e-05     0.290331 
         900     0.454872 -0.000441917  1.95456e-05     0.290331 
         900     0.475791  -0.00044919  2.07245e-05     0.290331 
         900     0.497163 -0.000455387  2.19093e-05     0.290331 
         900     0.519021 -0.000460498  2.30986e-05     0.290331 
         900      0.54135 -0.000464514  2.42884e-05     0.290331 
         900     0.564131 -0.000467437  2.54747e-05     0.290331 
         900       0.5874 -0.000469279  2.66562e-05     0.290331 
         900     0.611121 -0.000470046   2.7828e-05     0.290331 
         900      0.63533 -0.000469796  2.89896e-05     0.290331 
         900      0.65999 -0.000468582  3.01379e-05     0.290331 
         900     0.685139 -0.000466448  3.12725e-05     0.290331 
         900     0.710759  -0.00046345  3.23908e-05     0.290332 
         900     0.736828 -0.000459654  3.34897e-05     0.290332 
         900     0.763387 -0.000455124   3.4569e-05     0.290332 
         900     0.790396 -0.000449946  3.56252e-05     0.290332 
         900     0.817896 -0.000444197  3.66578e-05     0.290332 
         900     0.845843 -0.000437977  3.76631e-05     0.290332 
         900     0.874283 -0.000431371  3.86405e-05     0.290332 
         900      0.90317 -0.000424491  3.95861e-05     0.290332 
         900     0.932551 -0.000417427  4.04993e-05     0.290332 
         900     0.962401 -0.000410289  4.13765e-05     0.290332 
         900     0.992697 -0.000403188  4.22146e-05     0.290332 
         900      1.02349 -0.000396214  4.30121e-05     0.290332 
         900      1.05472 -0.000389476  4.37649e-05     0.290332 
         900      1.08645 -0.000383058  4.44713e-05     0.290332 
         900      1.11863 -0.000377056  4.51271e-05     0.290332 
         900       1.1513 -0.000371539  4.57304e-05     0.290332 
         900      1.18444 -0.000366577  4.62779e-05     0.290332 
         900      1.21802 -0.000362226  4.67666e-05     0.290332 
         900      1.25211 -0.000358517  4.71953e-05     0.290332 
         900      1.28663 -0.000355478  4.75615e-05     0.290332 
         900      1.32165 -0.000353105  4.78654e-05     0.290332 
         900      1.35712 -0.000351383   4.8107e-05     0.290332 
         900      1.39308 -0.000350269  4.82888e-05     0.290332 
         900      1.42951   -0.0003497  4.84149e-05     0.290332 
         900      1.46638 -0.000349589   4.8492e-05     0.290333 
         900      1.50375 -0.000349824  4.85302e-05     0.290333 
         900      1.54156 -0.000350772  4.84965e-05     0.290333 
         900      1.57987 -0.000351617  4.84248e-05     0.290333 
         900      1.61863 -0.000352272  4.83206e-05     0.290333 
         900      1.65788 -0.000352705  4.81858e-05     0.290333 
         900      1.69757 -0.000352887  4.80229e-05     0.290333 
         900      1.73776 -0.000352794  4.78336e-05     0.290333 
         900      1.77842 -0.000352405  4.76201e-05     0.290333 
         900      1.81952 -0.000351706  4.73845e-05     0.290333 
         900      1.86113 -0.000350685   4.7128e-05     0.290333 
         900      1.90316 -0.000349339  4.68529e-05     0.290333 
         900      1.94571 -0.000347662    4.656e-05     0.290333 
         900      1.98869 -0.000345659  4.62513e-05     0.290333 
         900      2.03217 -0.000343333  4.59273e-05     0.290334 
         900      2.07612 -0.000340696  4.55895e-05     0.290334 
         900      2.12051 -0.000337761  4.52389e-05     0.290334 
         900       2.1654  -0.00033454  4.48757e-05     0.290334 
         900      2.21073 -0.000331057   4.4501e-05     0.290334 
         900      2.25656 -0.000327325  4.41145e-05     0.290334 
         900      2.30283 -0.000323372  4.37171e-05     0.290334 
         900       2.3496 -0.000319214  4.33082e-05     0.290334 
         900      2.39685 -0.000314877   4.2888e-05     0.290334 
         900      2.44452 -0.000310389  4.24565e-05     0.290334 
         900      2.49271 -0.000305763  4.20129e-05     0.290335 
         900      2.54132  -0.00030103  4.15572e-05     0.290335 
         900      2.59044 -0.000296201  4.10883e-05     0.290335 
         900         2.64 -0.000291301  4.06061e-05     0.290335 
         900      2.69006 -0.000286339  4.01094e-05     0.290335 
         900      2.74056 -0.000281334  3.95981e-05     0.290335 
         900      2.79156 -0.000276289  3.90709e-05     0.290335 
         900      2.84304 -0.000271214  3.85274e-05     0.290335 
         900      2.89494 -0.000266115  3.79677e-05     0.290336 
         900      2.94735 -0.000260984  3.73904e-05     0.290336 
         900       3.0002 -0.000255827  3.67963e-05     0.290336 
         900      3.05355  -0.00025063  3.61846e-05     0.290336 
         900      3.10733 -0.000245395  3.55563e-05     0.290336 
         900      3.16163 -0.000240105  3.49114e-05     0.290336 
         900      3.21639 -0.000234758  3.42512e-05     0.290336 
         900      3.27158 -0.000229353   3.3578e-05     0.290337 
         900      3.32729 -0.000223881  3.28928e-05     0.290337 
         900      3.38342 -0.000218357  3.21994e-05     0.290337 
         900      3.44007 -0.000212788  3.15001e-05     0.290337 
         900      3.49714 -0.000207212  3.08003e-05     0.290337 
         900      3.55472 -0.000201665  3.01039e-05     0.290338 
         900      3.61273 -0.000196224  2.94182e-05     0.290338 
         900      3.67125 -0.000190974  2.87493e-05     0.290338 
         900      3.73025 -0.000186047  2.81059e-05     0.290338 
         900      3.78967 -0.000181053  2.73922e-05     0.290339 
         900      3.84961 -0.000175909   2.6629e-05     0.290339 
         900      3.90996 -0.000170834  2.58645e-05     0.290339 
         900      3.97084 -0.000165839  2.50988e-05     0.290339 
         900      4.03214 -0.000160951  2.43338e-05      0.29034 
         900      4.09395 -0.000156179  2.35691e-05      0.29034 
         900      4.15624 -0.000151544  2.28059e-05      0.29034 
         900      4.21895 -0.000147062  2.20452e-05      0.29034 
         900      4.28217 -0.000142739   2.1286e-05     0.290341 
         900      4.34582 -0.000138594  2.05296e-05     0.290341 
         900      4.40998  -0.00013463  1.97747e-05     0.290341 
         900      4.47457 -0.000130861  1.90224e-05     0.290342 
         900      4.53968 -0.000127288  1.82712e-05     0.290342 
         900      4.60525 -0.000123921  1.75212e-05     0.290342 
         900      4.67125 -0.000120764  1.67728e-05     0.290343 
         900      4.73777 -0.000117816  1.60241e-05     0.290343 
         900       4.8047 -0.000115082  1.52757e-05     0.290343 
         900      4.87216 -0.000112559  1.45259e-05     0.290344 
         900      4.94003 -0.000110248  1.37752e-05     0.290344 
         900      5.00843 -0.000108144  1.30219e-05     0.290344 
         900      5.07724 -0.000106247  1.22665e-05     0.290345 
         900      5.14658 -0.000104547  1.15073e-05     0.290345 
         900      5.21639 -0.000103043  1.07445e-05     0.290346 
         900      5.28661 -0.000101727  9.97807e-06     0.290346 
         900      5.35736  -0.00010059  9.20662e-06     0.290347 
         900      5.42852  -9.9627e-05  8.43109e-06     0.290347 
         900      5.50021 -9.88267e-05  7.65014e-06     0.290347 
         900      5.57231 -9.81747e-05  6.89298e-06     0.290348 
         900      5.64493 -9.76451e-05  6.21782e-06     0.290348 
         900      5.71803 -9.72487e-05  5.54123e-06     0.290349 
         900      5.79154 -9.69752e-05  4.86489e-06     0.290349 
         900      5.86558 -9.68133e-05  4.18895e-06      0.29035 
         900      5.94003 -9.67521e-05  3.51571e-06      0.29035 
         900      6.01501   -9.678e-05  2.84538e-06     0.290351 
         900       6.0904 -9.68854e-05  2.18031e-06     0.290351 
         900      6.16632  -9.7057e-05  1.52068e-06     0.290352 
         900      6.24271 -9.72834e-05  8.68269e-07     0.290352 
         900       6.3195 -9.75532e-05  2.24805e-07     0.290353 
         900      6.39683 -9.78561e-05 -4.09628e-07     0.290354 
         900      6.47457 -9.81815e-05 -1.03293e-06     0.290354 
         900      6.55284 -9.85203e-05 -1.64515e-06     0.290355 
         900      6.63152 -9.88631e-05 -2.24444e-06     0.290355 
         900      6.71073 -9.92027e-05 -2.83103e-06     0.290356 
         900      6.79034 -9.95317e-05  -3.4034e-06     0.290357 
         900      6.87049 -9.98447e-05 -3.96206e-06     0.290357 
         900      6.95111 -0.000100137  -4.5063e-06     0.290358 
         900      7.03214 -0.000100405 -5.03567e-06     0.290358 
         900       7.1137 -0.000100648 -5.55119e-06     0.290359 
         900      7.19566 -0.000100865 -6.05246e-06      0.29036 
         900      7.27816 -0.000101058 -6.54092e-06      0.29036 
         900      7.36106  -0.00010123 -7.01671e-06     0.290361 
         900      7.44451 -0.000101387  -7.4818e-06     0.290362 
         900      7.52842 -0.000101533 -7.93727e-06     0.290363 
         900      7.61273 -0.000101679 -8.38454e-06     0.290363 
         900      7.69758 -0.000101836 -8.82642e-06     0.290364 
         900      7.78283 -0.000102014 -9.26459e-06     0.290365 
         900      7.86862 -0.000102228 -9.70247e-06     0.290365 
         900      7.95481 -0.000102495 -1.01424e-05     0.290366 
         900      8.04155 -0.000102833 -1.05884e-05     0.290367 
         900      8.12868 -0.000103003 -1.09484e-05     0.290368 
         900      8.21635 -0.000103167 -1.12846e-05     0.290369 
         900      8.30449 -0.000103364 -1.16137e-05     0.290369 
         900      8.39303 -0.000103588 -1.19355e-05      0.29037 
         900      8.48211 -0.000103831 -1.22503e-05     0.290371 
         900      8.57159 -0.000104089 -1.25576e-05     0.290372 
         900      8.66161 -0.000104357 -1.28579e-05     0.290373 
         900      8.75203 -0.000104629 -1.31507e-05     0.290373 
         900      8.84299 -0.000104901 -1.34364e-05     0.290374 
         900      8.93443  -0.00010517 -1.37146e-05     0.290375 
         900      9.02626 -0.000105432  -1.3985e-05     0.290376 
         900      9.11863 -0.000105686 -1.42479e-05     0.290377 
         900      9.21139 -0.000105929 -1.45026e-05     0.290378 
         900      9.30471 -0.000106161 -1.47493e-05     0.290379 
         900      9.39841 -0.000106382 -1.49872e-05      0.29038 
         900      9.49267 -0.000106593 -1.52163e-05     0.290381 
         900      9.58739 -0.000106794 -1.54357e-05     0.290382 
         900      9.68251  -0.00010699 -1.56448e-05     0.290383 
         900      9.77817 -0.000107182 -1.58431e-05     0.290383 
         900      9.87422 -0.000107384 -1.60151e-05     0.290384 
         900      9.97083 -0.000107592 -1.61621e-05     0.290385 
         900      10.0678 -0.000107794 -1.63096e-05     0.290386 
         900      10.1654 -0.000107991 -1.64553e-05     0.290387 
         900      10.2633 -0.000108188 -1.65966e-05     0.290388 
         900      10.3618 -0.000108386  -1.6732e-05      0.29039 
         900      10.4607 -0.000108587 -1.68599e-05     0.290391 
         900      10.5601 -0.000108795 -1.69794e-05     0.290392 
         900        10.66  -0.00010901 -1.70898e-05     0.290393 
         900      10.7603 -0.000109234 -1.71908e-05     0.290394 
         900      10.8611 -0.000109467 -1.72825e-05     0.290395 
         900      10.9623 -0.000109711  -1.7365e-05     0.290396 
         900      11.0641 -0.000109966 -1.74389e-05     0.290397 
         900      11.1663 -0.000110232 -1.75048e-05     0.290398 
         900       11.269 -0.000110507 -1.75634e-05     0.290399 
         900      11.3721 -0.000110793 -1.76159e-05     0.290401 
         900      11.4757 -0.000111086 -1.76631e-05     0.290402 
         900      11.5798 -0.000111387 -1.77062e-05     0.290403 
         900      11.6844 -0.000111693 -1.77461e-05     0.290404 
         900      11.7894 -0.000112003 -1.77837e-05     0.290405 
         900       11.895 -0.000112315   -1.782e-05     0.290406 
         900      12.0009 -0.000112626 -1.78555e-05     0.290408 
         900      12.1073 -0.000112935 -1.78908e-05     0.290409 
         900      12.2142 -0.000113239 -1.79261e-05      0.29041 
         900      12.3216 -0.000113537 -1.79612e-05     0.290411 
         900      12.4294 -0.000113828 -1.79956e-05     0.290413 
         900      12.5378 -0.000114109 -1.80284e-05     0.290414 
         900      12.6465 -0.000114381 -1.80582e-05     0.290415 
         900      12.7558 -0.000114643 -1.80832e-05     0.290417 
         900      12.8656 -0.000114896 -1.81006e-05     0.290418 
         900      12.9757 -0.000115141 -1.81073e-05     0.290419 
         900      13.0864 -0.000115383 -1.80995e-05     0.290421 
         900      13.1975 -0.000115625 -1.80723e-05     0.290422 
         900      13.3092 -0.000115873 -1.80203e-05     0.290423 
         900      13.4212 -0.000116135  -1.7937e-05     0.290425 
         900      13.5338 -0.000116422 -1.78149e-05     0.290426 
         900      13.6468 -0.000116745 -1.76458e-05     0.290428 
         900      13.7603  -0.00011709 -1.76753e-05     0.290429 
         900      13.8743 -0.000117404 -1.77041e-05     0.290431 
         900      13.9886 -0.000117693 -1.77042e-05     0.290432 
         900      14.1036 -0.000117966 -1.76801e-05     0.290433 
         900      14.2189 -0.000118227  -1.7636e-05     0.290435 
         900      14.3348 -0.000118482 -1.75755e-05     0.290436 
         900       14.451 -0.000118735 -1.75019e-05     0.290438 
         900      14.5678  -0.00011899 -1.74179e-05      0.29044 
         900      14.6851 -0.000119249  -1.7326e-05     0.290441 
         900      14.8028 -0.000119514 -1.72282e-05     0.290443 
         900       14.921 -0.000119787  -1.7126e-05     0.290444 
         900      15.0396 -0.000120067 -1.70211e-05     0.290446 
         900      15.1588 -0.000120355 -1.69143e-05     0.290447 
         900      15.2783 -0.000120651 -1.68067e-05     0.290449 
         900      15.3984 -0.000120954 -1.66988e-05     0.290451 
         900       15.519 -0.000121263 -1.65912e-05     0.290452 
         900        15.64 -0.000121577 -1.64842e-05     0.290454 
         900      15.7615 -0.000121894 -1.63777e-05     0.290456 
         900      15.8834 -0.000122212 -1.62722e-05     0.290457 
         900      16.0058 -0.000122531 -1.61672e-05     0.290459 
         900      16.1286 -0.000122848 -1.60629e-05     0.290461 
         900       16.252 -0.000123162 -1.59589e-05     0.290463 
         900      16.3759 -0.000123471 -1.58552e-05     0.290464 
         900      16.5002 -0.000123773 -1.57516e-05     0.290466 
         900       16.625 -0.000124069 -1.56476e-05     0.290468 
         900      16.7501 -0.000124356 -1.55433e-05      0.29047 
         900      16.8759 -0.000124634 -1.54382e-05     0.290472 
         900       17.002 -0.000124902 -1.53322e-05     0.290473 
         900      17.1287 -0.000125161 -1.52249e-05     0.290475 
         900      17.2557  -0.00012541 -1.51163e-05     0.290477 
         900      17.3834 -0.000125651 -1.50059e-05     0.290479 
         900      17.5115 -0.000125884 -1.48935e-05     0.290481 
         900      17.6399  -0.00012611 -1.47787e-05     0.290483 
         900       17.769 -0.000126332 -1.46611e-05     0.290485 
         900      17.8984  -0.00012655 -1.45401e-05     0.290487 
         900      18.0284 -0.000126768 -1.44148e-05     0.290489 
         900      18.1587 -0.000126987 -1.42845e-05     0.290491 
         900      18.2896  -0.00012721 -1.41477e-05     0.290493 
         900       18.421  -0.00012744  -1.4003e-05     0.290495 
         900      18.5528 -0.000127679 -1.38486e-05     0.290497 
         900      18.6851  -0.00012793 -1.36818e-05     0.290499 
         900      18.8178 -0.000128195 -1.34999e-05     0.290501 
         900      18.9511 -0.000128477 -1.32989e-05     0.290503 
         900      19.0847 -0.000128778 -1.30748e-05     0.290505 
         900      19.2189 -0.000129097  -1.2822e-05     0.290507 
         900      19.3535 -0.000129436 -1.25344e-05      0.29051 
         900      19.4886 -0.000129794 -1.22043e-05     0.290512 
         900      19.6242 -0.000130029 -1.19726e-05     0.290514 
         900      19.7602 -0.000130147 -1.19224e-05     0.290516 
         900      19.8968 -0.000130279  -1.1967e-05     0.290518 
         900      20.0337 -0.000130437 -1.21236e-05     0.290521 
         900      20.1712 -0.000130638 -1.24116e-05     0.290523 
         900      20.3091 -0.000130661 -1.20507e-05     0.290525 
         900      20.4475 -0.000130697 -1.17099e-05     0.290528 
         900      20.5864 -0.000130762 -1.14453e-05      0.29053 
         900      20.7257 -0.000130855 -1.12481e-05     0.290532 
         900      20.8655 -0.000131011 -1.11347e-05     0.290535 
         900      21.0058 -0.000131306 -1.11054e-05     0.290537 
         900      21.1465 -0.000131612  -1.1049e-05     0.290539 
         900      21.2877 -0.000131923 -1.09696e-05     0.290542 
         900      21.4294 -0.000132232 -1.08711e-05     0.290544 
         900      21.5716 -0.000132536 -1.07571e-05     0.290547 
         900      21.7142 -0.000132831 -1.06309e-05     0.290549 
         900      21.8573 -0.000133115 -1.04951e-05     0.290552 
         900      22.0008 -0.000133385 -1.03527e-05     0.290554 
         900      22.1449 -0.000133641 -1.02055e-05     0.290557 
         900      22.2893  -0.00013388 -1.00559e-05      0.29056 
         900      22.4344 -0.000134105 -9.90524e-06     0.290562 
         900      22.5797 -0.000134314 -9.75523e-06     0.290565 
         900      22.7257 -0.000134508 -9.60677e-06     0.290567 
         900      22.8721 -0.000134689  -9.4609e-06      0.29057 
         900      23.0189 -0.000134857 -9.31838e-06     0.290573 
         900      23.1663 -0.000135015 -9.17944e-06     0.290576 
         900       23.314 -0.000135163 -9.04455e-06     0.290578 
         900      23.4623 -0.000135304 -8.91354e-06     0.290581 
         900       23.611  -0.00013544  -8.7865e-06     0.290584 
         900      23.7602 -0.000135571 -8.66295e-06     0.290587 
         900        23.91   -0.0001357 -8.54258e-06      0.29059 
         900        24.06 -0.000135828 -8.42494e-06     0.290593 
         900      24.2107 -0.000135957 -8.30922e-06     0.290595 
         900      24.3617 -0.000136088 -8.19488e-06     0.290598 
         900      24.5133 -0.000136221 -8.08099e-06     0.290601 
         900      24.6653 -0.000136357 -7.96691e-06     0.290604 
         900      24.8178 -0.000136498 -7.85165e-06     0.290607 
         900      24.9708 -0.000136642 -7.73451e-06      0.29061 
         900      25.1242  -0.00013679 -7.61482e-06     0.290613 
         900      25.2781 -0.000136942 -7.49169e-06     0.290616 
         900      25.4324 -0.000137097 -7.36472e-06      0.29062 
         900      25.5873 -0.000137253 -7.23321e-06     0.290623 
         900      25.7426  -0.00013741 -7.09704e-06     0.290626 
         900      25.8984 -0.000137567 -6.95583e-06     0.290629 
         900      26.0546 -0.000137722 -6.80985e-06     0.290632 
         900      26.2114 -0.000137874 -6.65915e-06     0.290635 
         900      26.3686  -0.00013802 -6.50441e-06     0.290639 
         900      26.5262  -0.00013816 -6.34662e-06     0.290642 
         900      26.6844 -0.000138292 -6.18673e-06     0.290645 
         900      26.8429 -0.000138415 -6.02657e-06     0.290649 
         900       27.002 -0.000138529 -5.86787e-06     0.290652 
         900      27.1615 -0.000138633 -5.71332e-06     0.290655 
         900      27.3216 -0.000138728 -5.56559e-06     0.290659 
         900      27.4821 -0.000138815 -5.42828e-06     0.290662 
         900       27.643 -0.000138896 -5.30547e-06     0.290666 
         900      27.8044 -0.000138975 -5.20161e-06     0.290669 
         900      27.9663 -0.000139057 -5.12212e-06     0.290673 
         900      28.1287 -0.000139148 -5.07285e-06     0.290677 
         900      28.2914 -0.000139257 -5.06056e-06      0.29068 
         900      28.4548 -0.000139394 -5.09272e-06     0.290684 
         900      28.6185 -0.000139583 -4.95657e-06     0.290687 
         900      28.7828 -0.000139768 -4.72893e-06     0.290691 
         900      28.9475 -0.000139931 -4.53625e-06     0.290695 
         900      29.1126 -0.000140076 -4.37341e-06     0.290699 
         900      29.2784 -0.000140208 -4.23541e-06     0.290702 
         900      29.4444 -0.000140328 -4.11811e-06     0.290706 
         900       29.611 -0.000140439 -4.01744e-06      0.29071 
         900       29.778 -0.000140544 -3.93003e-06     0.290714 
         900      29.9456 -0.000140644 -3.85264e-06     0.290718 
         900      30.1137 -0.000140741 -3.78258e-06     0.290722 
         900      30.2821 -0.000140835 -3.71752e-06     0.290726 
         900      30.4511 -0.000140928 -3.65529e-06      0.29073 
         900      30.6204 -0.000141019 -3.59426e-06     0.290734 
         900      30.7903  -0.00014111  -3.5329e-06     0.290738 
         900      30.9606 -0.000141201 -3.47015e-06     0.290742 
         900      31.1315  -0.00014129 -3.40504e-06     0.290746 
         900      31.3028  -0.00014138 -3.33697e-06      0.29075 
         900      31.4745 -0.000141468  -3.2656e-06     0.290755 
         900      31.6468 -0.000141555 -3.19062e-06     0.290759 
         900      31.8194  -0.00014164 -3.11212e-06     0.290763 
         900      31.9926 -0.000141723 -3.03016e-06     0.290767 
         900      32.1662 -0.000141804 -2.94517e-06     0.290772 
         900      32.3404 -0.000141882 -2.85746e-06     0.290776 
         900      32.5149 -0.000141958 -2.76773e-06     0.290781 
         900        32.69 -0.000142029 -2.67649e-06     0.290785 
         900      32.8655 -0.000142098 -2.58453e-06      0.29079 
         900      33.0414 -0.000142162 -2.49269e-06     0.290794 
         900       33.218 -0.000142223 -2.40165e-06     0.290799 
         900      33.3948  -0.00014228 -2.31236e-06     0.290803 
         900      33.5723 -0.000142333 -2.22551e-06     0.290808 
         900        33.75 -0.000142383 -2.14203e-06     0.290813 
         900      33.9284  -0.00014243 -2.06253e-06     0.290817 
         900      34.1073 -0.000142474 -1.98778e-06     0.290822 
         900      34.2865 -0.000142515 -1.91844e-06     0.290827 
         900      34.4663 -0.000142556 -1.85491e-06     0.290832 
         900      34.6465 -0.000142594  -1.7977e-06     0.290837 
         900      34.8272 -0.000142633 -1.74696e-06     0.290842 
         900      35.0083 -0.000142671 -1.70292e-06     0.290847 
         900        35.19 -0.000142711 -1.66544e-06     0.290852 
         900      35.3721 -0.000142751 -1.63433e-06     0.290857 
         900      35.5546 -0.000142793  -1.6092e-06     0.290862 
         900      35.7377 -0.000142837 -1.58936e-06     0.290867 
         900      35.9211 -0.000142883   -1.574e-06     0.290872 
         900      36.1052  -0.00014293   -1.562e-06     0.290877 
         900      36.2895 -0.000142979 -1.55203e-06     0.290882 
         900      36.4745 -0.000143028 -1.54249e-06     0.290887 
         900      36.6598 -0.000143076 -1.53154e-06     0.290893 
         900      36.8457 -0.000143149 -1.41268e-06     0.290898 
         900      37.0321 -0.000143219 -1.26995e-06     0.290904 
         900      37.2188  -0.00014328 -1.12916e-06     0.290909 
         900      37.4062  -0.00014333 -9.97578e-07     0.290914 
         900      37.5938 -0.000143371 -8.83808e-07      0.29092 
         900      37.7821 -0.000143401 -7.96946e-07     0.290926 
         900      37.9707 -0.000143421 -7.47309e-07     0.290931 
         900      38.1599  -0.00014343 -7.45926e-07     0.290937 
         900      38.3496 -0.000143427 -8.04894e-07     0.290943 
         900      38.5396 -0.000143417 -7.94011e-07     0.290948 
         900      38.7302 -0.000143434  -6.5954e-07     0.290954 
         900      38.9211 -0.000143475 -5.44229e-07      0.29096 
         900      39.1127 -0.000143535 -4.47544e-07     0.290966 
         900      39.3046 -0.000143606 -3.69177e-07     0.290972 
         900      39.4971 -0.000143684 -3.08446e-07     0.290978 
         900      39.6899 -0.000143764 -2.64819e-07     0.290984 
         900      39.8833 -0.000143842 -2.37548e-07      0.29099 
         900      40.0772 -0.000143915 -2.25964e-07     0.290996 
         900      40.2714 -0.000143981 -2.29338e-07     0.291002 
         900      40.4663 -0.000144026 -2.23734e-07     0.291008 
         900      40.6615 -0.000144039 -1.85835e-07     0.291014 
         900      40.8573  -0.00014404 -1.49329e-07     0.291021 
         900      41.0534 -0.000144034 -1.13476e-07     0.291027 
         900      41.2501 -0.000144023 -7.76196e-08     0.291033 
         900      41.4473 -0.000144008 -4.13689e-08      0.29104 
         900      41.6448 -0.000143993 -4.49345e-09     0.291046 
         900      41.8429 -0.000143979  3.31853e-08     0.291053 
         900      42.0414 -0.000143968  7.16058e-08     0.291059 
         900      42.2405 -0.000143962  1.10724e-07     0.291066 
         900      42.4399 -0.000143962  1.50288e-07     0.291073 
         900      42.6399 -0.000143968  1.90102e-07     0.291079 
         900      42.8404 -0.000143981  2.29827e-07     0.291086 
         900      43.0412 -0.000144002  2.69087e-07     0.291093 
         900      43.2426  -0.00014403  3.07581e-07       0.2911 
         900      43.4444 -0.000144066  3.44881e-07     0.291107 
         900      43.6467 -0.000144108  3.80687e-07     0.291114 
         900      43.8494 -0.000144156  4.14606e-07     0.291121 
         900      44.0527 -0.000144209  4.46388e-07     0.291128 
         900      44.2563 -0.000144266  4.75727e-07     0.291135 
         900      44.4606 -0.000144325  5.02466e-07     0.291142 
         900      44.6653 -0.000144385  5.26443e-07     0.291149 
         900      44.8704 -0.000144444  5.47576e-07     0.291157 
         900       45.076 -0.000144501   5.6591e-07     0.291164 
         900       45.282 -0.000144553  5.81513e-07     0.291171 
         900      45.4886   -0.0001446  5.94592e-07     0.291179 
         900      45.6955 -0.000144639  6.05399e-07     0.291186 
         900       45.903 -0.000144669  6.14314e-07     0.291194 
         900      46.1111 -0.000144689  6.21783e-07     0.291202 
         900      46.3194 -0.000144698  6.28339e-07     0.291209 
         900      46.5283 -0.000144695  6.34619e-07     0.291217 
         900      46.7376  -0.00014468  6.41312e-07     0.291225 
         900      46.9475 -0.000144653  6.49199e-07     0.291233 
         900      47.1577 -0.000144617  6.59097e-07      0.29124 
         900      47.3685 -0.000144571  6.71898e-07     0.291248 
         900      47.5798  -0.00014452  6.88505e-07     0.291256 
         900      47.7914 -0.000144466  7.09829e-07     0.291264 
         900      48.0037 -0.000144415  7.36827e-07     0.291273 