Variables = x, y, u, v, p

Zone, I=800, F=POINT
         350            0           -0           -0      51.9423 
         350     0.000234  6.90032e-06 -3.27384e-11      51.9423 
         350     0.000939  2.60825e-05 -5.27583e-10      51.9423 
         350     0.002113  5.31042e-05 -2.66695e-09      51.9423 
         350     0.003759  8.20479e-05 -8.41672e-09      51.9423 
         350     0.005872  0.000106914 -2.04623e-08      51.9423 
         350     0.008457  0.000123562  -4.2248e-08      51.9423 
         350      0.01151  0.000130656 -7.78267e-08      51.9423 
         350     0.015036  0.000130117 -1.31962e-07      51.9423 
         350     0.019031  0.000126344 -2.09852e-07      51.9423 
         350     0.023493  0.000124569  -3.1715e-07      51.9423 
         350     0.028429  0.000128709 -4.60134e-07      51.9423 
         350     0.033831  0.000139564 -6.44967e-07      51.9423 
         350     0.039706  0.000154309 -8.78466e-07      51.9423 
         350     0.046047   0.00016798 -1.16701e-06      51.9423 
         350     0.052863   0.00017719 -1.51764e-06      51.9423 
         350      0.06015  0.000184365 -1.93669e-06      51.9423 
         350       0.0679  0.000198543 -2.42986e-06      51.9423 
         350     0.076126  0.000224189 -3.00378e-06      51.9423 
         350     0.084816  0.000233803 -3.66292e-06      51.9423 
         350     0.093982  0.000256615 -4.41294e-06      51.9423 
         350     0.103611  0.000278531 -5.25677e-06      51.9423 
         350     0.113718  0.000300716 -6.19893e-06      51.9423 
         350     0.124286  0.000323885 -7.24021e-06      51.9423 
         350     0.135333  0.000348415 -8.38382e-06      51.9423 
         350      0.14685  0.000374241 -9.62943e-06      51.9423 
         350     0.158827  0.000401011 -1.09755e-05      51.9423 
         350     0.171284  0.000428311 -1.24227e-05      51.9423 
         350     0.184201  0.000455693 -1.39666e-05      51.9423 
         350     0.197599  0.000483008 -1.56065e-05      51.9423 
         350     0.211455  0.000510262 -1.73354e-05      51.9423 
         350     0.225792   0.00053761 -1.91516e-05      51.9423 
         350       0.2406  0.000564577 -2.10485e-05      51.9423 
         350     0.255865  0.000590035 -2.30186e-05      51.9423 
         350     0.271613  0.000615135 -2.50586e-05      51.9423 
         350     0.287818  0.000639062 -2.71588e-05      51.9423 
         350     0.304506  0.000661741 -2.93159e-05      51.9423 
         350      0.32165  0.000683033   -3.152e-05      51.9423 
         350     0.339278  0.000702887 -3.37681e-05      51.9423 
         350     0.357377  0.000721213 -3.60522e-05      51.9423 
         350      0.37593  0.000737942 -3.83639e-05      51.9423 
         350     0.394968  0.000753066 -4.07016e-05      51.9423 
         350     0.414461  0.000766544 -4.30563e-05      51.9423 
         350      0.43444  0.000778397 -4.54273e-05      51.9423 
         350     0.454872  0.000788626 -4.78066e-05      51.9423 
         350     0.475791  0.000797284  -5.0195e-05      51.9423 
         350     0.497163  0.000804405 -5.25858e-05      51.9423 
         350     0.519021   0.00081006 -5.49807e-05      51.9423 
         350      0.54135  0.000814311 -5.73764e-05      51.9423 
         350     0.564131  0.000817219 -5.97695e-05      51.9423 
         350       0.5874  0.000818846 -6.21628e-05      51.9423 
         350     0.611121  0.000819224 -6.45512e-05      51.9423 
         350      0.63533  0.000818457  -6.6942e-05      51.9423 
         350      0.65999  0.000816636 -6.93303e-05      51.9423 
         350     0.685139  0.000813797 -7.17203e-05      51.9423 
         350     0.710759  0.000809983 -7.41109e-05      51.9423 
         350     0.736828  0.000805244 -7.65005e-05      51.9423 
         350     0.763387   0.00079962 -7.88932e-05      51.9423 
         350     0.790396  0.000793167 -8.12857e-05      51.9423 
         350     0.817896  0.000785926 -8.36818e-05      51.9423 
         350     0.845843  0.000777959 -8.60773e-05      51.9423 
         350     0.874283  0.000769307  -8.8476e-05      51.9423 
         350      0.90317  0.000760036 -9.08732e-05      51.9423 
         350     0.932551  0.000750182 -9.32719e-05      51.9423 
         350     0.962401  0.000739807 -9.56685e-05      51.9423 
         350     0.992697  0.000728972 -9.80595e-05      51.9423 
         350      1.02349  0.000717709 -0.000100447      51.9423 
         350      1.05472  0.000706088 -0.000102823      51.9423 
         350      1.08645  0.000694138 -0.000105191      51.9423 
         350      1.11863  0.000681926 -0.000107541      51.9423 
         350       1.1513  0.000669476 -0.000109875      51.9423 
         350      1.18444  0.000656841 -0.000112187      51.9423 
         350      1.21802  0.000644069 -0.000114471      51.9423 
         350      1.25211  0.000631172 -0.000116727      51.9423 
         350      1.28663  0.000618201 -0.000118947      51.9423 
         350      1.32165  0.000605156 -0.000121132      51.9423 
         350      1.35712  0.000592074 -0.000123275      51.9423 
         350      1.39308  0.000578939 -0.000125378      51.9423 
         350      1.42951  0.000565753 -0.000127439      51.9423 
         350      1.46638  0.000552508 -0.000129459      51.9423 
         350      1.50375  0.000539145 -0.000131445      51.9423 
         350      1.54156  0.000525778 -0.000133354      51.9423 
         350      1.57987   0.00051224 -0.000135208      51.9423 
         350      1.61863  0.000498538 -0.000137004      51.9423 
         350      1.65788  0.000484647 -0.000138743      51.9423 
         350      1.69757  0.000470592 -0.000140419      51.9423 
         350      1.73776  0.000456353 -0.000142034      51.9423 
         350      1.77842  0.000441946 -0.000143583      51.9423 
         350      1.81952  0.000427391 -0.000145063      51.9423 
         350      1.86113  0.000412673 -0.000146473      51.9423 
         350      1.90316  0.000397828 -0.000147809      51.9423 
         350      1.94571  0.000382847 -0.000149071      51.9423 
         350      1.98869  0.000367769 -0.000150254      51.9423 
         350      2.03217   0.00035259 -0.000151358      51.9423 
         350      2.07612  0.000337341  -0.00015238      51.9423 
         350      2.12051  0.000322057 -0.000153316      51.9423 
         350       2.1654  0.000306738 -0.000154165      51.9423 
         350      2.21073  0.000291434 -0.000154926      51.9423 
         350      2.25656  0.000276148 -0.000155597      51.9422 
         350      2.30283  0.000260932 -0.000156175      51.9422 
         350       2.3496  0.000245794 -0.000156661      51.9422 
         350      2.39685  0.000230774 -0.000157052      51.9422 
         350      2.44452  0.000215916 -0.000157348      51.9422 
         350      2.49271  0.000201228 -0.000157548      51.9422 
         350      2.54132  0.000186765 -0.000157653      51.9422 
         350      2.59044  0.000172536 -0.000157662      51.9422 
         350         2.64  0.000158595 -0.000157575      51.9422 
         350      2.69006  0.000144949 -0.000157394      51.9422 
         350      2.74056  0.000131649  -0.00015712      51.9422 
         350      2.79156  0.000118704 -0.000156754      51.9422 
         350      2.84304  0.000106149 -0.000156298      51.9422 
         350      2.89494  9.40191e-05 -0.000155755      51.9422 
         350      2.94735  8.23172e-05 -0.000155126      51.9422 
         350       3.0002  7.10821e-05 -0.000154416      51.9422 
         350      3.05355  6.03134e-05 -0.000153626      51.9422 
         350      3.10733  5.00424e-05  -0.00015276      51.9422 
         350      3.16163  4.02646e-05 -0.000151822      51.9422 
         350      3.21639  3.09969e-05 -0.000150814      51.9422 
         350      3.27158  2.22515e-05 -0.000149742      51.9422 
         350      3.32729  1.40166e-05 -0.000148606      51.9422 
         350      3.38342  6.30456e-06 -0.000147411      51.9422 
         350      3.44007 -9.00364e-07 -0.000146157      51.9422 
         350      3.49714 -7.59306e-06 -0.000144849      51.9422 
         350      3.55472 -1.37925e-05 -0.000143484      51.9422 
         350      3.61273 -1.94992e-05 -0.000142064      51.9422 
         350      3.67125 -2.47332e-05 -0.000140586      51.9422 
         350      3.73025 -2.95016e-05 -0.000139047      51.9422 
         350      3.78967 -3.38653e-05 -0.000137521      51.9422 
         350      3.84961 -3.77459e-05 -0.000135963      51.9422 
         350      3.90996 -4.11184e-05 -0.000134343      51.9422 
         350      3.97084 -4.40117e-05 -0.000132666      51.9422 
         350      4.03214 -4.64447e-05 -0.000130943      51.9422 
         350      4.09395 -4.84448e-05 -0.000129178      51.9422 
         350      4.15624 -5.00338e-05 -0.000127376      51.9422 
         350      4.21895  -5.1235e-05 -0.000125545      51.9422 
         350      4.28217 -5.20745e-05 -0.000123685      51.9422 
         350      4.34582 -5.25753e-05 -0.000121803      51.9422 
         350      4.40998 -5.27627e-05 -0.000119898      51.9422 
         350      4.47457 -5.26608e-05 -0.000117978      51.9422 
         350      4.53968 -5.22942e-05 -0.000116042      51.9422 
         350      4.60525 -5.16873e-05 -0.000114095      51.9422 
         350      4.67125 -5.08653e-05 -0.000112142      51.9422 
         350      4.73777 -4.98512e-05 -0.000110182      51.9422 
         350       4.8047 -4.86701e-05 -0.000108223      51.9422 
         350      4.87216 -4.73433e-05 -0.000106265      51.9422 
         350      4.94003 -4.58954e-05 -0.000104316      51.9422 
         350      5.00843 -4.43454e-05 -0.000102377      51.9422 
         350      5.07724 -4.27158e-05 -0.000100456      51.9422 
         350      5.14658 -4.10223e-05 -9.85545e-05      51.9422 
         350      5.21639 -3.92827e-05  -9.6678e-05      51.9422 
         350      5.28661 -3.75123e-05  -9.4832e-05      51.9422 
         350      5.35736 -3.57194e-05 -9.30169e-05      51.9422 
         350      5.42852 -3.39143e-05 -9.12376e-05      51.9422 
         350      5.50021 -3.20978e-05 -8.94917e-05      51.9422 
         350      5.57231 -3.02714e-05 -8.77801e-05      51.9422 
         350      5.64493 -2.84254e-05 -8.60955e-05      51.9422 
         350      5.71803  -2.6574e-05 -8.44203e-05      51.9422 
         350      5.79154 -2.47625e-05 -8.27392e-05      51.9422 
         350      5.86558 -2.29223e-05 -8.10765e-05      51.9422 
         350      5.94003  -2.1038e-05 -7.94283e-05      51.9422 
         350      6.01501 -1.92399e-05 -7.77915e-05      51.9422 
         350       6.0904 -1.74815e-05 -7.61958e-05      51.9422 
         350      6.16632 -1.56971e-05 -7.46462e-05      51.9422 
         350      6.24271 -1.38983e-05 -7.31511e-05      51.9422 
         350       6.3195 -1.21025e-05 -7.16894e-05      51.9422 
         350      6.39683 -1.02924e-05 -7.02215e-05      51.9422 
         350      6.47457 -8.48404e-06 -6.87599e-05      51.9422 
         350      6.55284 -6.68433e-06 -6.73099e-05      51.9422 
         350      6.63152 -4.90299e-06 -6.58799e-05      51.9422 
         350      6.71073 -3.14159e-06 -6.44717e-05      51.9422 
         350      6.79034 -1.40522e-06   -6.309e-05      51.9422 
         350      6.87049  3.08329e-07  -6.1734e-05      51.9422 
         350      6.95111  1.99839e-06 -6.04051e-05      51.9422 
         350      7.03214  3.66534e-06 -5.91038e-05      51.9422 
         350       7.1137  5.31418e-06 -5.78268e-05      51.9421 
         350      7.19566  6.94485e-06 -5.65747e-05      51.9421 
         350      7.27816   8.5625e-06 -5.53439e-05      51.9421 
         350      7.36106  1.01668e-05 -5.41345e-05      51.9421 
         350      7.44451  1.17622e-05 -5.29431e-05      51.9421 
         350      7.52842  1.33482e-05 -5.17695e-05      51.9421 
         350      7.61273   1.4924e-05 -5.06136e-05      51.9421 
         350      7.69758  1.64913e-05 -4.94731e-05      51.9421 
         350      7.78283  1.80461e-05 -4.83499e-05      51.9421 
         350      7.86862  1.95884e-05 -4.72426e-05      51.9421 
         350      7.95481  2.11129e-05 -4.61538e-05      51.9421 
         350      8.04155  2.26185e-05 -4.50828e-05      51.9421 
         350      8.12868  2.40995e-05 -4.40325e-05      51.9421 
         350      8.21635  2.55553e-05 -4.30022e-05      51.9421 
         350      8.30449  2.69829e-05  -4.1993e-05      51.9421 
         350      8.39303  2.83814e-05 -4.10054e-05      51.9421 
         350      8.48211  2.97556e-05 -4.00357e-05      51.9421 
         350      8.57159    3.111e-05 -3.90816e-05      51.9421 
         350      8.66161  3.24586e-05 -3.81351e-05      51.9421 
         350      8.75203  3.39083e-05 -3.72009e-05      51.9421 
         350      8.84299  3.52949e-05 -3.62873e-05      51.9421 
         350      8.93443  3.66241e-05 -3.53898e-05      51.9421 
         350      9.02626   3.7911e-05 -3.45057e-05      51.9421 
         350      9.11863  3.91703e-05 -3.36316e-05      51.9421 
         350      9.21139  4.04094e-05 -3.27682e-05      51.9421 
         350      9.30471   4.1637e-05 -3.19144e-05      51.9421 
         350      9.39841  4.28554e-05 -3.10726e-05      51.9421 
         350      9.49267  4.40686e-05  -3.0243e-05      51.9421 
         350      9.58739   4.5276e-05 -2.94281e-05      51.9421 
         350      9.68251  4.64755e-05 -2.86303e-05      51.9421 
         350      9.77817   4.7667e-05 -2.78501e-05      51.9421 
         350      9.87422  4.88457e-05   -2.709e-05      51.9421 
         350      9.97083  5.00103e-05 -2.63499e-05      51.9421 
         350      10.0678  5.11558e-05 -2.56313e-05      51.9421 
         350      10.1654  5.22809e-05 -2.49327e-05      51.9421 
         350      10.2633  5.33815e-05 -2.42543e-05      51.9421 
         350      10.3618  5.44579e-05 -2.35934e-05      51.9421 
         350      10.4607  5.55089e-05 -2.29481e-05      51.9421 
         350      10.5601  5.65348e-05 -2.23163e-05      51.9421 
         350        10.66  5.75402e-05 -2.16937e-05      51.9421 
         350      10.7603   5.8528e-05 -2.10779e-05      51.9421 
         350      10.8611  5.95064e-05 -2.04647e-05      51.9421 
         350      10.9623  6.04829e-05 -1.98523e-05      51.9421 
         350      11.0641  6.14698e-05 -1.92379e-05      51.9421 
         350      11.1663    6.248e-05 -1.86215e-05      51.9421 
         350       11.269  6.35281e-05 -1.80053e-05      51.9421 
         350      11.3721  6.44958e-05 -1.73726e-05      51.9421 
         350      11.4757  6.53176e-05 -1.67086e-05      51.9421 
         350      11.5798  6.61678e-05 -1.60844e-05      51.9421 
         350      11.6844  6.70584e-05 -1.55891e-05      51.9421 
         350      11.7894  6.80038e-05 -1.53422e-05      51.9421 
         350       11.895  6.88529e-05 -1.47795e-05      51.9421 
         350      12.0009  6.95899e-05  -1.4163e-05      51.9421 
         350      12.1073   7.0315e-05 -1.37524e-05      51.9421 
         350      12.2142  7.10484e-05 -1.34219e-05      51.9421 
         350      12.3216  7.18534e-05 -1.30433e-05      51.9421 
         350      12.4294  7.27355e-05 -1.25776e-05      51.9421 
         350      12.5378  7.35891e-05 -1.21166e-05      51.9421 
         350      12.6465  7.44084e-05 -1.16636e-05      51.9421 
         350      12.7558  7.51933e-05 -1.12213e-05      51.9421 
         350      12.8656  7.59442e-05 -1.07938e-05      51.9421 
         350      12.9757  7.66635e-05 -1.03849e-05      51.9421 
         350      13.0864  7.73565e-05 -9.99672e-06      51.9421 
         350      13.1975  7.80271e-05 -9.63175e-06      51.9421 
         350      13.3092  7.86816e-05 -9.28986e-06      51.9421 
         350      13.4212  7.93239e-05 -8.97066e-06      51.9421 
         350      13.5338  7.99593e-05 -8.67125e-06      51.9421 
         350      13.6468  8.05908e-05 -8.38809e-06      51.9421 
         350      13.7603  8.12203e-05 -8.11646e-06      51.9421 
         350      13.8743  8.18497e-05 -7.85022e-06      51.9421 
         350      13.9886  8.24778e-05 -7.58385e-06      51.9421 
         350      14.1036  8.31038e-05 -7.31148e-06      51.9421 
         350      14.2189  8.37238e-05 -7.02946e-06      51.9421 
         350      14.3348  8.43348e-05 -6.73575e-06      51.9421 
         350       14.451  8.49315e-05 -6.43303e-06      51.9421 
         350      14.5678  8.55103e-05 -6.12838e-06      51.9421 
         350      14.6851  8.60665e-05 -5.83676e-06      51.9421 
         350      14.8028  8.65973e-05 -5.58228e-06      51.9421 
         350       14.921  8.71032e-05 -5.39997e-06      51.9421 
         350      15.0396  8.75867e-05 -5.33967e-06      51.9421 
         350      15.1588  8.80702e-05 -5.36586e-06      51.9421 
         350      15.2783   8.8572e-05 -4.79848e-06      51.9421 
         350      15.3984   8.8961e-05 -4.43505e-06      51.9421 
         350       15.519  8.93079e-05 -4.21437e-06      51.9421 
         350        15.64  8.96775e-05 -4.06477e-06      51.9421 
         350      15.7615  9.01195e-05 -3.91734e-06      51.9421 
         350      15.8834  9.06542e-05 -3.72167e-06      51.9421 
         350      16.0058  9.12616e-05 -3.46143e-06      51.9421 
         350      16.1286  9.18635e-05 -3.17451e-06      51.9421 
         350       16.252  9.23097e-05 -2.97238e-06      51.9421 
         350      16.3759   9.2607e-05 -2.86814e-06      51.9421 
         350      16.5002  9.30793e-05 -2.63723e-06      51.9421 
         350       16.625  9.35194e-05 -2.44236e-06      51.9421 
         350      16.7501  9.39322e-05 -2.27623e-06      51.9421 
         350      16.8759  9.43231e-05 -2.13203e-06      51.9421 
         350       17.002  9.46957e-05 -2.00445e-06      51.9421 
         350      17.1287  9.50539e-05 -1.88871e-06      51.9421 
         350      17.2557     9.54e-05 -1.78121e-06      51.9421 
         350      17.3834  9.57368e-05 -1.67878e-06      51.9421 
         350      17.5115  9.60659e-05 -1.57917e-06      51.9421 
         350      17.6399  9.63885e-05 -1.48072e-06      51.9421 
         350       17.769  9.67062e-05 -1.38199e-06      51.9421 
         350      17.8984  9.70191e-05 -1.28231e-06      51.9421 
         350      18.0284  9.73283e-05 -1.18094e-06      51.9421 
         350      18.1587  9.76335e-05 -1.07775e-06      51.9421 
         350      18.2896  9.79354e-05  -9.7234e-07      51.9421 
         350       18.421  9.82336e-05 -8.64637e-07      51.9421 
         350      18.5528  9.85278e-05 -7.54493e-07      51.9421 
         350      18.6851  9.88182e-05 -6.41344e-07      51.9421 
         350      18.8178  9.91041e-05 -5.24741e-07      51.9421 
         350      18.9511  9.93856e-05 -4.03526e-07      51.9421 
         350      19.0847  9.96643e-05 -2.81325e-07      51.9421 
         350      19.2189  9.99609e-05 -2.10613e-07      51.9421 
         350      19.3535  0.000100237  -1.3592e-07      51.9421 
         350      19.4886  0.000100495 -5.94788e-08      51.9421 
         350      19.6242  0.000100737  1.70885e-08      51.9421 
         350      19.7602  0.000100964  9.28936e-08      51.9421 
         350      19.8968  0.000101181  1.67916e-07      51.9421 
         350      20.0337   0.00010139   2.4255e-07      51.9421 
         350      20.1712  0.000101594  3.18071e-07       51.942 
         350      20.3091  0.000101798  3.96159e-07       51.942 
         350      20.4475  0.000102003  4.79404e-07       51.942 
         350      20.5864  0.000102211  5.70924e-07       51.942 
         350      20.7257  0.000102422  6.74576e-07       51.942 
         350      20.8655  0.000102637  7.95331e-07       51.942 
         350      21.0058   0.00010285  9.38763e-07       51.942 
         350      21.1465  0.000103058  1.11198e-06       51.942 
         350      21.2877  0.000103258  1.22264e-06       51.942 
         350      21.4294  0.000103464  1.28185e-06       51.942 
         350      21.5716  0.000103667  1.34985e-06       51.942 
         350      21.7142  0.000103861  1.41926e-06       51.942 
         350      21.8573   0.00010404  1.48562e-06       51.942 
         350      22.0008  0.000104204  1.54642e-06       51.942 
         350      22.1449  0.000104353  1.60106e-06       51.942 
         350      22.2893  0.000104487  1.64994e-06       51.942 
         350      22.4344   0.00010461  1.69437e-06       51.942 
         350      22.5797  0.000104725  1.73588e-06       51.942 
         350      22.7257  0.000104838  1.77616e-06       51.942 
         350      22.8721  0.000104952  1.81644e-06       51.942 
         350      23.0189  0.000105074   1.8574e-06       51.942 
         350      23.1663  0.000105209  1.89906e-06       51.942 
         350       23.314  0.000105361  1.94033e-06       51.942 
         350      23.4623  0.000105535  1.97931e-06       51.942 
         350       23.611  0.000105723  1.99553e-06       51.942 
         350      23.7602  0.000105873  1.98992e-06       51.942 
         350        23.91   0.00010599  2.00103e-06       51.942 
         350        24.06  0.000106081  2.02708e-06       51.942 
         350      24.2107  0.000106155   2.0642e-06       51.942 
         350      24.3617   0.00010622  2.10674e-06       51.942 
         350      24.5133  0.000106281   2.1481e-06       51.942 
         350      24.6653  0.000106344   2.1812e-06       51.942 
         350      24.8178  0.000106413   2.1996e-06       51.942 
         350      24.9708  0.000106493  2.19834e-06       51.942 
         350      25.1242  0.000106584  2.17528e-06       51.942 
         350      25.2781  0.000106686  2.13235e-06       51.942 
         350      25.4324  0.000106795  2.07725e-06       51.942 
         350      25.5873  0.000106905  2.02492e-06       51.942 
         350      25.7426  0.000107007  1.99977e-06       51.942 
         350      25.8984  0.000107085  2.03757e-06       51.942 
         350      26.0546   0.00010712  2.18781e-06       51.942 
         350      26.2114  0.000107089  2.16142e-06       51.942 
         350      26.3686  0.000107085  1.97941e-06       51.942 
         350      26.5262  0.000107124   1.8816e-06       51.942 
         350      26.6844  0.000107193  1.84746e-06       51.942 
         350      26.8429   0.00010728   1.8591e-06       51.942 
         350       27.002  0.000107378  1.90089e-06       51.942 
         350      27.1615  0.000107479  1.95944e-06       51.942 
         350      27.3216  0.000107578  2.02365e-06       51.942 
         350      27.4821   0.00010767   2.0844e-06       51.942 
         350       27.643  0.000107755  2.13458e-06       51.942 
         350      27.8044   0.00010783  2.16907e-06       51.942 
         350      27.9663  0.000107898  2.18441e-06       51.942 
         350      28.1287  0.000107959  2.17886e-06       51.942 
         350      28.2914  0.000108018  2.15219e-06       51.942 
         350      28.4548   0.00010808  2.10547e-06       51.942 
         350      28.6185  0.000108152  2.05423e-06       51.942 
         350      28.7828  0.000108274  2.13358e-06       51.942 
         350      28.9475   0.00010838  2.18175e-06       51.942 
         350      29.1126  0.000108467  2.20452e-06       51.942 
         350      29.2784  0.000108534  2.20829e-06       51.942 
         350      29.4444   0.00010858  2.19955e-06       51.942 
         350       29.611  0.000108607   2.1846e-06       51.942 
         350       29.778   0.00010862  2.16925e-06       51.942 
         350      29.9456  0.000108622  2.15843e-06       51.942 
         350      30.1137  0.000108619  2.15605e-06       51.942 
         350      30.2821  0.000108616   2.1647e-06       51.942 
         350      30.4511  0.000108619  2.18559e-06       51.942 
         350      30.6204  0.000108633  2.21833e-06       51.942 
         350      30.7903  0.000108662  2.26103e-06       51.942 
         350      30.9606  0.000108709   2.3101e-06       51.942 
         350      31.1315  0.000108774  2.36061e-06       51.942 
         350      31.3028  0.000108851  2.40609e-06       51.942 
         350      31.4745  0.000108932  2.43893e-06       51.942 
         350      31.6468  0.000109003  2.45071e-06       51.942 
         350      31.8194  0.000109043  2.43235e-06       51.942 
         350      31.9926  0.000109021  2.37465e-06       51.942 
         350      32.1662    0.0001089  2.26892e-06       51.942 
         350      32.3404  0.000108977  2.41692e-06       51.942 
         350      32.5149  0.000109078  2.56264e-06       51.942 
         350        32.69  0.000109141  2.64354e-06       51.942 
         350      32.8655  0.000109177   2.6719e-06       51.942 
         350      33.0414  0.000109196  2.65981e-06       51.942 
         350       33.218  0.000109208  2.61944e-06       51.942 
         350      33.3948   0.00010922  2.56367e-06       51.942 
         350      33.5723  0.000109242  2.50648e-06       51.942 
         350        33.75  0.000109277  2.46379e-06       51.942 
         350      33.9284  0.000109331  2.45383e-06       51.942 
         350      34.1073  0.000109404  2.49803e-06       51.942 
         350      34.2865  0.000109495  2.62148e-06       51.942 
         350      34.4663  0.000109469  2.62111e-06       51.942 
         350      34.6465  0.000109411   2.5579e-06       51.942 
         350      34.8272  0.000109378  2.51712e-06       51.942 
         350      35.0083  0.000109365   2.4932e-06       51.942 
         350        35.19   0.00010937  2.48129e-06       51.942 
         350      35.3721  0.000109387  2.47732e-06       51.942 
         350      35.5546  0.000109413  2.47789e-06       51.942 
         350      35.7377  0.000109445  2.48024e-06       51.942 
         350      35.9211   0.00010948  2.48215e-06       51.942 
         350      36.1052  0.000109516  2.48195e-06       51.942 
         350      36.2895   0.00010955   2.4784e-06       51.942 
         350      36.4745  0.000109581  2.47068e-06       51.942 
         350      36.6598  0.000109607  2.45833e-06       51.942 
         350      36.8457  0.000109629  2.44117e-06       51.942 
         350      37.0321  0.000109644  2.41928e-06       51.942 
         350      37.2188  0.000109653    2.393e-06       51.942 
         350      37.4062  0.000109656  2.36275e-06      51.9419 
         350      37.5938  0.000109653  2.32917e-06      51.9419 
         350      37.7821  0.000109646   2.2929e-06      51.9419 
         350      37.9707  0.000109633  2.25473e-06      51.9419 
         350      38.1599  0.000109618  2.21537e-06      51.9419 
         350      38.3496  0.000109601   2.1756e-06      51.9419 
         350      38.5396  0.000109583  2.13619e-06      51.9419 
         350      38.7302  0.000109565  2.09776e-06      51.9419 
         350      38.9211   0.00010955  2.06097e-06      51.9419 
         350      39.1127  0.000109538  2.02631e-06      51.9419 
         350      39.3046   0.00010953  1.99429e-06      51.9419 
         350      39.4971  0.000109528  1.96522e-06      51.9419 
         350      39.6899  0.000109532  1.93941e-06      51.9419 
         350      39.8833  0.000109542  1.91704e-06      51.9419 
         350      40.0772  0.000109559  1.89826e-06      51.9419 
         350      40.2714  0.000109581  1.88318e-06      51.9419 
         350      40.4663  0.000109608  1.87183e-06      51.9419 
         350      40.6615  0.000109636  1.86434e-06      51.9419 
         350      40.8573  0.000109665  1.86082e-06      51.9419 
         350      41.0534  0.000109688  1.86151e-06      51.9419 
         350      41.2501  0.000109701  1.86681e-06      51.9419 
         350      41.4473  0.000109698  1.87733e-06      51.9419 
         350      41.6448  0.000109671  1.89392e-06      51.9419 
         350      41.8429  0.000109611  1.91785e-06      51.9419 
         350      42.0414  0.000109505  1.95079e-06      51.9419 
         350      42.2405  0.000109341    1.995e-06      51.9419 
         350      42.4399  0.000109389  1.93933e-06      51.9419 
         350      42.6399  0.000109544  1.83953e-06      51.9419 
         350      42.8404  0.000109669  1.75151e-06      51.9419 
         350      43.0412  0.000109753  1.67878e-06      51.9419 
         350      43.2426  0.000109793   1.6243e-06      51.9419 
         350      43.4444  0.000109787  1.59038e-06      51.9419 
         350      43.6467  0.000109738  1.57773e-06      51.9419 
         350      43.8494  0.000109657  1.58501e-06      51.9419 
         350      44.0527  0.000109562  1.60803e-06      51.9419 
         350      44.2563  0.000109478  1.63888e-06      51.9419 
         350      44.4606  0.000109439  1.66524e-06      51.9419 
         350      44.6653  0.000109482  1.63785e-06      51.9419 
         350      44.8704  0.000109529  1.59613e-06      51.9419 
         350       45.076  0.000109561  1.56969e-06      51.9419 
         350       45.282  0.000109578  1.55566e-06      51.9419 
         350      45.4886  0.000109586  1.55121e-06      51.9419 
         350      45.6955  0.000109586  1.55358e-06      51.9419 
         350       45.903  0.000109583  1.56009e-06      51.9419 
         350      46.1111  0.000109582  1.56804e-06      51.9419 
         350      46.3194  0.000109587  1.57478e-06      51.9419 
         350      46.5283  0.000109603  1.57765e-06      51.9419 
         350      46.7376  0.000109634  1.57394e-06      51.9419 
         350      46.9475  0.000109685  1.56092e-06      51.9419 
         350      47.1577   0.00010976   1.5358e-06      51.9419 
         350      47.3685  0.000109863  1.49567e-06      51.9419 
         350      47.5798  0.000109964  1.44997e-06      51.9419 
         350      47.7914  0.000109982  1.42316e-06      51.9419 
         350      48.0037  0.000109978  1.39026e-06      51.9419 