Variables = x, y, u, v, p

Zone, I=800, F=POINT
        1000            0           -0           -0   -0.0939517 
        1000     0.000234 -2.37463e-06  1.57202e-11   -0.0939517 
        1000     0.000939 -9.26299e-06  2.29036e-10   -0.0939517 
        1000     0.002113 -1.99156e-05  1.13302e-09   -0.0939517 
        1000     0.003759 -3.33511e-05  3.54032e-09   -0.0939517 
        1000     0.005872 -4.85054e-05  8.54597e-09   -0.0939517 
        1000     0.008457 -6.46355e-05  1.75299e-08   -0.0939517 
        1000      0.01151 -8.13707e-05  3.20775e-08   -0.0939517 
        1000     0.015036 -9.88869e-05  5.40022e-08   -0.0939517 
        1000     0.019031 -0.000117703  8.52107e-08   -0.0939517 
        1000     0.023493 -0.000138495  1.27691e-07   -0.0939517 
        1000     0.028429 -0.000161803  1.83557e-07   -0.0939517 
        1000     0.033831 -0.000187651  2.54732e-07   -0.0939517 
        1000     0.039706  -0.00021561  3.43227e-07   -0.0939517 
        1000     0.046047 -0.000244896  4.50705e-07   -0.0939517 
        1000     0.052863 -0.000275056  5.78877e-07   -0.0939517 
        1000      0.06015  -0.00030646  7.28966e-07   -0.0939517 
        1000       0.0679 -0.000340381  9.01749e-07   -0.0939517 
        1000     0.076126 -0.000377228   1.0981e-06   -0.0939517 
        1000     0.084816 -0.000412176   1.3179e-06   -0.0939517 
        1000     0.093982 -0.000450756  1.56112e-06   -0.0939517 
        1000     0.103611 -0.000489732  1.82665e-06   -0.0939517 
        1000     0.113718 -0.000529258   2.1136e-06   -0.0939517 
        1000     0.124286 -0.000569273  2.41971e-06   -0.0939517 
        1000     0.135333 -0.000609749  2.74313e-06   -0.0939517 
        1000      0.14685 -0.000650469  3.08073e-06   -0.0939517 
        1000     0.158827 -0.000691149  3.42885e-06   -0.0939517 
        1000     0.171284 -0.000731582  3.78423e-06   -0.0939517 
        1000     0.184201 -0.000771444  4.14204e-06   -0.0939517 
        1000     0.197599 -0.000810594  4.49822e-06   -0.0939517 
        1000     0.211455 -0.000848823  4.84718e-06   -0.0939517 
        1000     0.225792 -0.000886067  5.18421e-06   -0.0939517 
        1000       0.2406 -0.000922041  5.50341e-06   -0.0939517 
        1000     0.255865 -0.000956321   5.7987e-06   -0.0939517 
        1000     0.271613 -0.000989121  6.06537e-06   -0.0939517 
        1000     0.287818  -0.00102009  6.29711e-06   -0.0939518 
        1000     0.304506  -0.00104914  6.48834e-06   -0.0939518 
        1000      0.32165  -0.00107614  6.63305e-06   -0.0939518 
        1000     0.339278  -0.00110105  6.72609e-06   -0.0939518 
        1000     0.357377  -0.00112377  6.76223e-06   -0.0939518 
        1000      0.37593  -0.00114425  6.73683e-06   -0.0939518 
        1000     0.394968   -0.0011625   6.6455e-06   -0.0939519 
        1000     0.414461  -0.00117847  6.48445e-06   -0.0939519 
        1000      0.43444  -0.00119222  6.24982e-06   -0.0939519 
        1000     0.454872  -0.00120376  5.93883e-06   -0.0939519 
        1000     0.475791  -0.00121317  5.54812e-06    -0.093952 
        1000     0.497163  -0.00122049  5.07594e-06    -0.093952 
        1000     0.519021  -0.00122584  4.51965e-06    -0.093952 
        1000      0.54135   -0.0012293  3.87828e-06    -0.093952 
        1000     0.564131  -0.00123099  3.15202e-06   -0.0939521 
        1000       0.5874  -0.00123103  2.34051e-06   -0.0939521 
        1000     0.611121  -0.00122953  1.44727e-06   -0.0939521 
        1000      0.63533  -0.00122664   4.6645e-07   -0.0939522 
        1000      0.65999  -0.00122249 -6.01175e-07   -0.0939522 
        1000     0.685139  -0.00121721 -1.75435e-06   -0.0939522 
        1000     0.710759  -0.00121093 -2.98957e-06   -0.0939523 
        1000     0.736828   -0.0012038 -4.30311e-06   -0.0939523 
        1000     0.763387  -0.00119591 -5.69461e-06   -0.0939523 
        1000     0.790396   -0.0011874 -7.15969e-06   -0.0939524 
        1000     0.817896  -0.00117836 -8.69843e-06   -0.0939524 
        1000     0.845843  -0.00116891 -1.03063e-05   -0.0939524 
        1000     0.874283  -0.00115913 -1.19839e-05   -0.0939524 
        1000      0.90317  -0.00114912 -1.37266e-05   -0.0939524 
        1000     0.932551  -0.00113893  -1.5535e-05   -0.0939525 
        1000     0.962401  -0.00112862 -1.74055e-05   -0.0939525 
        1000     0.992697  -0.00111825 -1.93343e-05   -0.0939525 
        1000      1.02349  -0.00110784 -2.13217e-05   -0.0939525 
        1000      1.05472  -0.00109743 -2.33615e-05   -0.0939525 
        1000      1.08645  -0.00108701 -2.54539e-05   -0.0939524 
        1000      1.11863   -0.0010766 -2.75917e-05   -0.0939524 
        1000       1.1513  -0.00106616 -2.97744e-05   -0.0939524 
        1000      1.18444  -0.00105568 -3.19959e-05   -0.0939524 
        1000      1.21802  -0.00104514 -3.42499e-05   -0.0939523 
        1000      1.25211  -0.00103449 -3.65355e-05   -0.0939523 
        1000      1.28663  -0.00102368 -3.88444e-05   -0.0939522 
        1000      1.32165  -0.00101266 -4.11767e-05   -0.0939521 
        1000      1.35712  -0.00100137 -4.35254e-05    -0.093952 
        1000      1.39308 -0.000989751 -4.58928e-05   -0.0939519 
        1000      1.42951 -0.000977741 -4.82779e-05   -0.0939518 
        1000      1.46638 -0.000965286 -5.06823e-05   -0.0939517 
        1000      1.50375 -0.000952302 -5.31179e-05   -0.0939515 
        1000      1.54156 -0.000939197 -5.55215e-05   -0.0939513 
        1000      1.57987 -0.000925255 -5.79117e-05   -0.0939511 
        1000      1.61863 -0.000910515 -6.02886e-05   -0.0939509 
        1000      1.65788 -0.000895015 -6.26563e-05   -0.0939507 
        1000      1.69757 -0.000878837  -6.5011e-05   -0.0939505 
        1000      1.73776 -0.000862013 -6.73566e-05   -0.0939502 
        1000      1.77842 -0.000844604 -6.96909e-05   -0.0939499 
        1000      1.81952 -0.000826676 -7.20117e-05   -0.0939496 
        1000      1.86113 -0.000808243 -7.43222e-05   -0.0939492 
        1000      1.90316 -0.000789377  -7.6618e-05   -0.0939488 
        1000      1.94571 -0.000770083  -7.8902e-05   -0.0939484 
        1000      1.98869 -0.000750427 -8.11695e-05    -0.093948 
        1000      2.03217 -0.000730407 -8.34232e-05   -0.0939475 
        1000      2.07612 -0.000710063   -8.566e-05    -0.093947 
        1000      2.12051 -0.000689436  -8.7877e-05   -0.0939464 
        1000       2.1654 -0.000668512 -9.00762e-05   -0.0939459 
        1000      2.21073  -0.00064734 -9.22528e-05   -0.0939452 
        1000      2.25656   -0.0006259 -9.44089e-05   -0.0939446 
        1000      2.30283 -0.000604236 -9.65396e-05   -0.0939439 
        1000       2.3496 -0.000582325 -9.86468e-05   -0.0939432 
        1000      2.39685 -0.000560189 -0.000100727   -0.0939424 
        1000      2.44452 -0.000537854 -0.000102778   -0.0939416 
        1000      2.49271  -0.00051529 -0.000104802   -0.0939407 
        1000      2.54132 -0.000492536 -0.000106793   -0.0939398 
        1000      2.59044 -0.000469563 -0.000108754   -0.0939389 
        1000         2.64 -0.000446413 -0.000110681   -0.0939379 
        1000      2.69006 -0.000423058 -0.000112575   -0.0939368 
        1000      2.74056 -0.000399544 -0.000114433   -0.0939357 
        1000      2.79156 -0.000375847 -0.000116258   -0.0939346 
        1000      2.84304 -0.000351999 -0.000118046   -0.0939334 
        1000      2.89494 -0.000328038 -0.000119796   -0.0939322 
        1000      2.94735 -0.000303948  -0.00012151   -0.0939309 
        1000       3.0002 -0.000279792 -0.000123184   -0.0939295 
        1000      3.05355 -0.000255563 -0.000124821   -0.0939281 
        1000      3.10733 -0.000231333 -0.000126417   -0.0939267 
        1000      3.16163 -0.000207101 -0.000127973   -0.0939252 
        1000      3.21639 -0.000182929 -0.000129487   -0.0939237 
        1000      3.27158 -0.000158881 -0.000130954   -0.0939221 
        1000      3.32729 -0.000134967 -0.000132376   -0.0939204 
        1000      3.38342 -0.000111275 -0.000133745   -0.0939187 
        1000      3.44007 -8.78186e-05 -0.000135061    -0.093917 
        1000      3.49714  -6.4684e-05 -0.000136314   -0.0939152 
        1000      3.55472 -4.18821e-05   -0.0001375   -0.0939133 
        1000      3.61273 -1.94903e-05 -0.000138607   -0.0939114 
        1000      3.67125  2.49161e-06 -0.000139626   -0.0939095 
        1000      3.73025   2.4023e-05 -0.000140543   -0.0939075 
        1000      3.78967  4.58539e-05 -0.000141529   -0.0939055 
        1000      3.84961  6.74375e-05 -0.000142527   -0.0939034 
        1000      3.90996  8.83011e-05 -0.000143451   -0.0939013 
        1000      3.97084  0.000108467 -0.000144304   -0.0938991 
        1000      4.03214  0.000127893 -0.000145087   -0.0938969 
        1000      4.09395  0.000146602 -0.000145805   -0.0938946 
        1000      4.15624  0.000164569  -0.00014646   -0.0938924 
        1000      4.21895  0.000181777 -0.000147053     -0.09389 
        1000      4.28217  0.000198248 -0.000147587   -0.0938877 
        1000      4.34582  0.000213954 -0.000148066   -0.0938853 
        1000      4.40998  0.000228919 -0.000148491   -0.0938828 
        1000      4.47457  0.000243119 -0.000148865   -0.0938804 
        1000      4.53968  0.000256579  -0.00014919   -0.0938779 
        1000      4.60525  0.000269291 -0.000149469   -0.0938754 
        1000      4.67125   0.00028125 -0.000149704   -0.0938728 
        1000      4.73777  0.000292483 -0.000149896   -0.0938703 
        1000       4.8047  0.000302978  -0.00015005   -0.0938677 
        1000      4.87216  0.000312763 -0.000150165   -0.0938651 
        1000      4.94003  0.000321831 -0.000150245   -0.0938624 
        1000      5.00843  0.000330209 -0.000150292   -0.0938598 
        1000      5.07724  0.000337898 -0.000150307   -0.0938571 
        1000      5.14658  0.000344923 -0.000150292   -0.0938544 
        1000      5.21639  0.000351293  -0.00015025   -0.0938517 
        1000      5.28661  0.000357022 -0.000150181    -0.093849 
        1000      5.35736  0.000362134 -0.000150088   -0.0938463 
        1000      5.42852  0.000366642 -0.000149972   -0.0938436 
        1000      5.50021  0.000370571 -0.000149835   -0.0938408 
        1000      5.57231  0.000373935 -0.000149678   -0.0938381 
        1000      5.64493  0.000376761 -0.000149502   -0.0938353 
        1000      5.71803  0.000379066 -0.000149309   -0.0938325 
        1000      5.79154  0.000380873   -0.0001491   -0.0938298 
        1000      5.86558  0.000382206 -0.000148876    -0.093827 
        1000      5.94003  0.000383085 -0.000148638   -0.0938242 
        1000      6.01501  0.000383537 -0.000148387   -0.0938214 
        1000       6.0904  0.000383582 -0.000148124   -0.0938187 
        1000      6.16632  0.000383244 -0.000147849   -0.0938159 
        1000      6.24271  0.000382547 -0.000147564   -0.0938131 
        1000       6.3195  0.000381515  -0.00014727   -0.0938103 
        1000      6.39683  0.000380169 -0.000146965   -0.0938075 
        1000      6.47457  0.000378534 -0.000146652   -0.0938047 
        1000      6.55284   0.00037663  -0.00014633   -0.0938019 
        1000      6.63152  0.000374483    -0.000146   -0.0937992 
        1000      6.71073  0.000372109 -0.000145662   -0.0937964 
        1000      6.79034  0.000369535 -0.000145316   -0.0937936 
        1000      6.87049  0.000366775 -0.000144963   -0.0937908 
        1000      6.95111  0.000363853 -0.000144601   -0.0937881 
        1000      7.03214  0.000360788 -0.000144232   -0.0937853 
        1000       7.1137  0.000357595 -0.000143855   -0.0937826 
        1000      7.19566  0.000354295  -0.00014347   -0.0937798 
        1000      7.27816  0.000350901 -0.000143075   -0.0937771 
        1000      7.36106  0.000347434 -0.000142672   -0.0937743 
        1000      7.44451  0.000343856  -0.00014234   -0.0937716 
        1000      7.52842  0.000340226 -0.000142017   -0.0937689 
        1000      7.61273  0.000336569  -0.00014169   -0.0937662 
        1000      7.69758  0.000332892 -0.000141358   -0.0937636 
        1000      7.78283  0.000329214  -0.00014102   -0.0937609 
        1000      7.86862   0.00032554 -0.000140676   -0.0937582 
        1000      7.95481  0.000321887 -0.000140326   -0.0937555 
        1000      8.04155   0.00031826 -0.000139968   -0.0937529 
        1000      8.12868  0.000314672 -0.000139603   -0.0937502 
        1000      8.21635  0.000311126 -0.000139228   -0.0937476 
        1000      8.30449  0.000307634 -0.000138841   -0.0937449 
        1000      8.39303  0.000304204 -0.000138442   -0.0937423 
        1000      8.48211  0.000300838 -0.000138027   -0.0937397 
        1000      8.57159  0.000297547 -0.000137594   -0.0937371 
        1000      8.66161  0.000294331 -0.000137139   -0.0937344 
        1000      8.75203  0.000291202 -0.000136657   -0.0937318 
        1000      8.84299  0.000288159 -0.000136143   -0.0937292 
        1000      8.93443  0.000284615 -0.000135787   -0.0937267 
        1000      9.02626  0.000281078 -0.000135416   -0.0937241 
        1000      9.11863  0.000277582 -0.000135019   -0.0937215 
        1000      9.21139  0.000274129 -0.000134603    -0.093719 
        1000      9.30471  0.000270709 -0.000134171   -0.0937165 
        1000      9.39841  0.000267327 -0.000133728   -0.0937139 
        1000      9.49267  0.000263972 -0.000133276   -0.0937114 
        1000      9.58739  0.000260647 -0.000132818   -0.0937089 
        1000      9.68251  0.000257349 -0.000132358   -0.0937064 
        1000      9.77817  0.000254074 -0.000131897   -0.0937039 
        1000      9.87422  0.000250822 -0.000131438   -0.0937015 
        1000      9.97083  0.000247589 -0.000130982    -0.093699 
        1000      10.0678  0.000244378 -0.000130531   -0.0936965 
        1000      10.1654  0.000241182 -0.000130085   -0.0936941 
        1000      10.2633  0.000238007 -0.000129646   -0.0936917 
        1000      10.3618  0.000234847 -0.000129214   -0.0936893 
        1000      10.4607  0.000231676  -0.00012879   -0.0936869 
        1000      10.5601  0.000228494  -0.00012837   -0.0936845 
        1000        10.66  0.000225321 -0.000127953   -0.0936821 
        1000      10.7603  0.000222164 -0.000127539   -0.0936797 
        1000      10.8611  0.000219019 -0.000127127   -0.0936773 
        1000      10.9623  0.000215895 -0.000126715    -0.093675 
        1000      11.0641  0.000212786 -0.000126303   -0.0936726 
        1000      11.1663  0.000209697 -0.000125891   -0.0936703 
        1000       11.269  0.000206632 -0.000125477    -0.093668 
        1000      11.3721  0.000203588 -0.000125061   -0.0936656 
        1000      11.4757  0.000200571 -0.000124644   -0.0936633 
        1000      11.5798  0.000197578 -0.000124224   -0.0936611 
        1000      11.6844  0.000194614 -0.000123801   -0.0936588 
        1000      11.7894  0.000191676 -0.000123376   -0.0936565 
        1000       11.895  0.000188768 -0.000122948   -0.0936543 
        1000      12.0009  0.000185891 -0.000122517    -0.093652 
        1000      12.1073  0.000183042 -0.000122084   -0.0936498 
        1000      12.2142  0.000180225 -0.000121649   -0.0936476 
        1000      12.3216  0.000177437 -0.000121211   -0.0936454 
        1000      12.4294   0.00017468 -0.000120772   -0.0936432 
        1000      12.5378  0.000171951 -0.000120331   -0.0936411 
        1000      12.6465  0.000169252  -0.00011989   -0.0936389 
        1000      12.7558  0.000166578 -0.000119448   -0.0936367 
        1000      12.8656  0.000163931 -0.000119005   -0.0936346 
        1000      12.9757   0.00016131 -0.000118563   -0.0936325 
        1000      13.0864   0.00015871  -0.00011812   -0.0936304 
        1000      13.1975  0.000156133 -0.000117678   -0.0936283 
        1000      13.3092  0.000153573 -0.000117237   -0.0936262 
        1000      13.4212  0.000151032 -0.000116795   -0.0936241 
        1000      13.5338  0.000148504 -0.000116354    -0.093622 
        1000      13.6468  0.000145989 -0.000115912     -0.09362 
        1000      13.7603  0.000143488 -0.000115469   -0.0936179 
        1000      13.8743  0.000140993 -0.000115023   -0.0936159 
        1000      13.9886  0.000138508 -0.000114574   -0.0936139 
        1000      14.1036  0.000136028  -0.00011412   -0.0936119 
        1000      14.2189  0.000133556 -0.000113657   -0.0936099 
        1000      14.3348  0.000131088 -0.000113184   -0.0936079 
        1000       14.451  0.000128629 -0.000112698   -0.0936059 
        1000      14.5678  0.000126176 -0.000112194   -0.0936039 
        1000      14.6851  0.000123734 -0.000111667   -0.0936019 
        1000      14.8028  0.000121368 -0.000111184      -0.0936 
        1000       14.921  0.000119154 -0.000110851    -0.093598 
        1000      15.0396  0.000116925 -0.000110473   -0.0935961 
        1000      15.1588   0.00011469 -0.000110059   -0.0935942 
        1000      15.2783  0.000112462 -0.000109619   -0.0935923 
        1000      15.3984  0.000110245 -0.000109159   -0.0935905 
        1000       15.519  0.000108046 -0.000108685   -0.0935886 
        1000        15.64   0.00010587 -0.000108203   -0.0935867 
        1000      15.7615  0.000103717 -0.000107717   -0.0935849 
        1000      15.8834  0.000101591 -0.000107229    -0.093583 
        1000      16.0058  9.94881e-05 -0.000106742   -0.0935812 
        1000      16.1286  9.74116e-05 -0.000106259   -0.0935794 
        1000       16.252  9.53566e-05 -0.000105778   -0.0935775 
        1000      16.3759  9.33231e-05 -0.000105302   -0.0935757 
        1000      16.5002  9.13105e-05 -0.000104831   -0.0935739 
        1000       16.625  8.93137e-05 -0.000104363   -0.0935722 
        1000      16.7501  8.73338e-05 -0.000103899   -0.0935704 
        1000      16.8759  8.53656e-05 -0.000103436   -0.0935686 
        1000       17.002   8.3411e-05 -0.000102976   -0.0935669 
        1000      17.1287  8.14655e-05 -0.000102515   -0.0935651 
        1000      17.2557  7.95318e-05 -0.000102053   -0.0935634 
        1000      17.3834  7.76067e-05 -0.000101588   -0.0935617 
        1000      17.5115  7.56923e-05 -0.000101121   -0.0935599 
        1000      17.6399  7.37912e-05 -0.000100649   -0.0935582 
        1000       17.769   7.1902e-05 -0.000100173   -0.0935565 
        1000      17.8984    7.003e-05 -9.96919e-05   -0.0935549 
        1000      18.0284  6.81749e-05 -9.92052e-05   -0.0935532 
        1000      18.1587  6.63424e-05 -9.87139e-05   -0.0935515 
        1000      18.2896  6.45327e-05  -9.8218e-05   -0.0935499 
        1000       18.421  6.27503e-05 -9.77189e-05   -0.0935482 
        1000      18.5528  6.09991e-05 -9.72183e-05   -0.0935466 
        1000      18.6851  5.92784e-05 -9.67172e-05   -0.0935449 
        1000      18.8178   5.7592e-05 -9.62187e-05   -0.0935433 
        1000      18.9511   5.5937e-05 -9.57244e-05   -0.0935417 
        1000      19.0847  5.43138e-05 -9.52379e-05   -0.0935401 
        1000      19.2189  5.27155e-05 -9.47617e-05   -0.0935385 
        1000      19.3535  5.11375e-05 -9.42998e-05    -0.093537 
        1000      19.4886  4.95663e-05 -9.38549e-05   -0.0935354 
        1000      19.6242  4.80052e-05   -9.346e-05   -0.0935339 
        1000      19.7602   4.6485e-05 -9.31153e-05   -0.0935324 
        1000      19.8968  4.49981e-05 -9.27892e-05   -0.0935309 
        1000      20.0337  4.35485e-05 -9.24872e-05   -0.0935295 
        1000      20.1712  4.19235e-05 -9.19527e-05   -0.0935279 
        1000      20.3091  4.03293e-05 -9.14245e-05   -0.0935263 
        1000      20.4475  3.87767e-05 -9.09148e-05   -0.0935247 
        1000      20.5864  3.72657e-05 -9.04204e-05   -0.0935232 
        1000      20.7257  3.57954e-05 -8.99389e-05   -0.0935217 
        1000      20.8655  3.43613e-05 -8.94668e-05   -0.0935202 
        1000      21.0058  3.29627e-05 -8.90028e-05   -0.0935187 
        1000      21.1465  3.15946e-05 -8.85444e-05   -0.0935172 
        1000      21.2877  3.02561e-05 -8.80907e-05   -0.0935158 
        1000      21.4294  2.89419e-05 -8.76397e-05   -0.0935143 
        1000      21.5716  2.76498e-05 -8.71908e-05   -0.0935129 
        1000      21.7142   2.6378e-05 -8.67436e-05   -0.0935115 
        1000      21.8573  2.51215e-05 -8.62966e-05     -0.09351 
        1000      22.0008  2.38797e-05   -8.585e-05   -0.0935086 
        1000      22.1449  2.26484e-05 -8.54028e-05   -0.0935072 
        1000      22.2893  2.14276e-05 -8.49552e-05   -0.0935058 
        1000      22.4344  2.02139e-05 -8.45062e-05   -0.0935044 
        1000      22.5797  1.90081e-05 -8.40565e-05    -0.093503 
        1000      22.7257  1.78076e-05 -8.36049e-05   -0.0935016 
        1000      22.8721  1.66132e-05 -8.31516e-05   -0.0935002 
        1000      23.0189  1.54261e-05 -8.26969e-05   -0.0934988 
        1000      23.1663  1.42452e-05 -8.22397e-05   -0.0934974 
        1000       23.314  1.30735e-05 -8.17807e-05    -0.093496 
        1000      23.4623  1.19107e-05 -8.13188e-05   -0.0934946 
        1000       23.611  1.07603e-05 -8.08546e-05   -0.0934933 
        1000      23.7602  9.62285e-06 -8.03873e-05   -0.0934919 
        1000        23.91  8.50135e-06 -7.99171e-05   -0.0934906 
        1000        24.06  7.39902e-06 -7.94444e-05   -0.0934892 
        1000      24.2107  6.31632e-06 -7.89686e-05   -0.0934879 
        1000      24.3617  5.25697e-06 -7.84908e-05   -0.0934865 
        1000      24.5133   4.2209e-06 -7.80106e-05   -0.0934852 
        1000      24.6653  3.21075e-06 -7.75297e-05   -0.0934839 
        1000      24.8178  2.22513e-06 -7.70483e-05   -0.0934825 
        1000      24.9708  1.26401e-06 -7.65686e-05   -0.0934812 
        1000      25.1242  3.26024e-07 -7.60928e-05   -0.0934799 
        1000      25.2781 -5.94098e-07 -7.56229e-05   -0.0934786 
        1000      25.4324 -1.50052e-06 -7.51629e-05   -0.0934773 
        1000      25.5873 -2.40264e-06 -7.47164e-05    -0.093476 
        1000      25.7426 -3.30956e-06 -7.42892e-05   -0.0934747 
        1000      25.8984 -4.23638e-06 -7.38867e-05   -0.0934734 
        1000      26.0546 -5.19877e-06 -7.35171e-05   -0.0934721 
        1000      26.2114 -6.08059e-06 -7.30799e-05   -0.0934708 
        1000      26.3686 -6.87029e-06 -7.25865e-05   -0.0934696 
        1000      26.5262 -7.66526e-06 -7.21178e-05   -0.0934684 
        1000      26.6844 -8.46563e-06 -7.16682e-05   -0.0934671 
        1000      26.8429 -9.26873e-06 -7.12339e-05   -0.0934659 
        1000       27.002 -1.00742e-05 -7.08093e-05   -0.0934646 
        1000      27.1615 -1.08789e-05 -7.03899e-05   -0.0934634 
        1000      27.3216 -1.16817e-05 -6.99701e-05   -0.0934621 
        1000      27.4821 -1.24793e-05 -6.95447e-05   -0.0934608 
        1000       27.643 -1.32682e-05 -6.91088e-05   -0.0934596 
        1000      27.8044  -1.4046e-05  -6.8656e-05   -0.0934583 
        1000      27.9663 -1.48075e-05 -6.81813e-05    -0.093457 
        1000      28.1287 -1.55495e-05  -6.7678e-05   -0.0934557 
        1000      28.2914 -1.62703e-05 -6.71575e-05   -0.0934544 
        1000      28.4548 -1.70232e-05 -6.68016e-05   -0.0934532 
        1000      28.6185 -1.77632e-05 -6.64295e-05   -0.0934519 
        1000      28.7828 -1.84901e-05 -6.60428e-05   -0.0934507 
        1000      28.9475 -1.92026e-05 -6.56435e-05   -0.0934495 
        1000      29.1126 -1.98994e-05 -6.52341e-05   -0.0934483 
        1000      29.2784 -2.05812e-05 -6.48154e-05    -0.093447 
        1000      29.4444 -2.12466e-05 -6.43898e-05   -0.0934458 
        1000       29.611 -2.18966e-05  -6.3958e-05   -0.0934446 
        1000       29.778 -2.25304e-05 -6.35222e-05   -0.0934433 
        1000      29.9456 -2.31492e-05 -6.30827e-05   -0.0934421 
        1000      30.1137 -2.37529e-05 -6.26412e-05   -0.0934409 
        1000      30.2821 -2.43417e-05 -6.21989e-05   -0.0934397 
        1000      30.4511 -2.49171e-05 -6.17562e-05   -0.0934384 
        1000      30.6204 -2.54789e-05 -6.13145e-05   -0.0934372 
        1000      30.7903 -2.60287e-05 -6.08738e-05    -0.093436 
        1000      30.9606 -2.65666e-05 -6.04355e-05   -0.0934347 
        1000      31.1315 -2.70943e-05 -5.99994e-05   -0.0934335 
        1000      31.3028 -2.76122e-05 -5.95662e-05   -0.0934323 
        1000      31.4745 -2.81209e-05 -5.91368e-05    -0.093431 
        1000      31.6468 -2.86218e-05 -5.87106e-05   -0.0934298 
        1000      31.8194 -2.91152e-05 -5.82887e-05   -0.0934286 
        1000      31.9926 -2.96026e-05 -5.78703e-05   -0.0934274 
        1000      32.1662 -3.00838e-05 -5.74563e-05   -0.0934261 
        1000      32.3404 -3.05603e-05 -5.70459e-05   -0.0934249 
        1000      32.5149 -3.10319e-05 -5.66398e-05   -0.0934237 
        1000        32.69 -3.14997e-05 -5.62371e-05   -0.0934224 
        1000      32.8655 -3.19636e-05  -5.5838e-05   -0.0934212 
        1000      33.0414 -3.24236e-05 -5.54426e-05     -0.09342 
        1000       33.218 -3.28803e-05 -5.50498e-05   -0.0934187 
        1000      33.3948 -3.33328e-05   -5.466e-05   -0.0934175 
        1000      33.5723 -3.37817e-05 -5.42721e-05   -0.0934163 
        1000        33.75 -3.42258e-05 -5.38863e-05    -0.093415 
        1000      33.9284 -3.46651e-05 -5.35015e-05   -0.0934138 
        1000      34.1073 -3.50985e-05 -5.31174e-05   -0.0934126 
        1000      34.2865 -3.55246e-05 -5.27338e-05   -0.0934113 
        1000      34.4663 -3.59429e-05 -5.23495e-05   -0.0934101 
        1000      34.6465 -3.63514e-05 -5.19644e-05   -0.0934088 
        1000      34.8272 -3.67491e-05 -5.15772e-05   -0.0934076 
        1000      35.0083 -3.71337e-05 -5.11878e-05   -0.0934063 
        1000        35.19 -3.75038e-05  -5.0795e-05   -0.0934051 
        1000      35.3721 -3.78569e-05 -5.03981e-05   -0.0934038 
        1000      35.5546 -3.81905e-05 -4.99968e-05   -0.0934026 
        1000      35.7377 -3.85026e-05 -4.95895e-05   -0.0934013 
        1000      35.9211 -3.87899e-05 -4.91762e-05      -0.0934 
        1000      36.1052 -3.90503e-05 -4.87551e-05   -0.0933988 
        1000      36.2895 -3.93013e-05 -4.83873e-05   -0.0933975 
        1000      36.4745  -3.9575e-05 -4.80043e-05   -0.0933962 
        1000      36.6598 -3.98675e-05 -4.76078e-05   -0.0933949 
        1000      36.8457 -4.01744e-05 -4.72046e-05   -0.0933936 
        1000      37.0321 -4.04891e-05 -4.68023e-05   -0.0933923 
        1000      37.2188 -4.08032e-05 -4.64086e-05    -0.093391 
        1000      37.4062 -4.11078e-05 -4.60305e-05   -0.0933897 
        1000      37.5938 -4.13907e-05 -4.56764e-05   -0.0933884 
        1000      37.7821 -4.16391e-05 -4.53542e-05   -0.0933871 
        1000      37.9707 -4.18371e-05 -4.50732e-05   -0.0933858 
        1000      38.1599 -4.22648e-05 -4.46358e-05   -0.0933845 
        1000      38.3496 -4.26408e-05 -4.42155e-05   -0.0933832 
        1000      38.5396 -4.29412e-05 -4.38296e-05   -0.0933819 
        1000      38.7302 -4.31876e-05 -4.34671e-05   -0.0933806 
        1000      38.9211 -4.33996e-05 -4.31196e-05   -0.0933792 
        1000      39.1127 -4.35963e-05 -4.27797e-05   -0.0933779 
        1000      39.3046 -4.37953e-05 -4.24422e-05   -0.0933766 
        1000      39.4971 -4.40133e-05 -4.21029e-05   -0.0933753 
        1000      39.6899 -4.42649e-05 -4.17598e-05   -0.0933739 
        1000      39.8833 -4.45638e-05 -4.14112e-05   -0.0933726 
        1000      40.0772 -4.46405e-05 -4.10482e-05   -0.0933712 
        1000      40.2714 -4.47034e-05  -4.0682e-05   -0.0933699 
        1000      40.4663 -4.47924e-05 -4.03147e-05   -0.0933685 
        1000      40.6615 -4.49059e-05  -3.9948e-05   -0.0933671 
        1000      40.8573 -4.50417e-05 -3.95822e-05   -0.0933657 
        1000      41.0534 -4.51969e-05 -3.92186e-05   -0.0933644 
        1000      41.2501 -4.53686e-05 -3.88574e-05    -0.093363 
        1000      41.4473 -4.55534e-05 -3.84994e-05   -0.0933616 
        1000      41.6448 -4.57475e-05 -3.81454e-05   -0.0933602 
        1000      41.8429 -4.59478e-05 -3.77952e-05   -0.0933587 
        1000      42.0414 -4.61505e-05 -3.74496e-05   -0.0933573 
        1000      42.2405 -4.63523e-05 -3.71082e-05   -0.0933559 
        1000      42.4399   -4.655e-05 -3.67716e-05   -0.0933545 
        1000      42.6399 -4.67409e-05 -3.64393e-05    -0.093353 
        1000      42.8404 -4.69224e-05 -3.61114e-05   -0.0933516 
        1000      43.0412 -4.70922e-05 -3.57881e-05   -0.0933501 
        1000      43.2426 -4.72489e-05 -3.54687e-05   -0.0933487 
        1000      43.4444  -4.7391e-05 -3.51532e-05   -0.0933472 
        1000      43.6467 -4.75182e-05  -3.4841e-05   -0.0933457 
        1000      43.8494   -4.763e-05 -3.45322e-05   -0.0933443 
        1000      44.0527 -4.77269e-05 -3.42257e-05   -0.0933428 
        1000      44.2563 -4.78098e-05 -3.39218e-05   -0.0933413 
        1000      44.4606 -4.78801e-05 -3.36196e-05   -0.0933398 
        1000      44.6653 -4.79395e-05 -3.33187e-05   -0.0933383 
        1000      44.8704 -4.79902e-05 -3.30192e-05   -0.0933368 
        1000       45.076 -4.80349e-05 -3.27201e-05   -0.0933353 
        1000       45.282 -4.80762e-05 -3.24217e-05   -0.0933337 
        1000      45.4886 -4.81172e-05 -3.21231e-05   -0.0933322 
        1000      45.6955 -4.81608e-05 -3.18247e-05   -0.0933307 
        1000       45.903 -4.82101e-05 -3.15259e-05   -0.0933291 
        1000      46.1111 -4.82677e-05 -3.12271e-05   -0.0933276 
        1000      46.3194 -4.83357e-05 -3.09286e-05    -0.093326 
        1000      46.5283 -4.84162e-05 -3.06303e-05   -0.0933244 
        1000      46.7376 -4.85097e-05 -3.03332e-05   -0.0933229 
        1000      46.9475 -4.86164e-05 -3.00375e-05   -0.0933213 
        1000      47.1577 -4.87346e-05 -2.97445e-05   -0.0933197 
        1000      47.3685 -4.88618e-05 -2.94551e-05   -0.0933181 
        1000      47.5798 -4.89931e-05  -2.9171e-05   -0.0933164 
        1000      47.7914 -4.91213e-05 -2.88939e-05   -0.0933148 
        1000      48.0037 -4.92374e-05 -2.86257e-05   -0.0933132 