Variables = x, y, u, v, p

Zone, I=800, F=POINT
         150            0           -0           -0      5.16012 
         150     0.000234  -4.2912e-06  -2.1701e-11      5.16012 
         150     0.000939 -1.62182e-05 -3.36453e-10      5.16012 
         150     0.002113 -3.30086e-05  -1.6891e-09      5.16012 
         150     0.003759 -5.09552e-05 -5.32025e-09      5.16012 
         150     0.005872 -6.62702e-05  -1.2929e-08      5.16012 
         150     0.008457 -7.62825e-05  -2.6702e-08      5.16012 
         150      0.01151 -8.00188e-05 -4.92235e-08      5.16012 
         150     0.015036 -7.84918e-05 -8.35457e-08      5.16012 
         150     0.019031 -7.42332e-05 -1.33019e-07      5.16012 
         150     0.023493 -7.02908e-05  -2.0131e-07      5.16012 
         150     0.028429 -6.89117e-05 -2.92518e-07      5.16012 
         150     0.033831 -7.04507e-05 -4.10704e-07      5.16012 
         150     0.039706 -7.30288e-05 -5.60387e-07      5.16012 
         150     0.046047 -7.34586e-05 -7.45845e-07      5.16012 
         150     0.052863 -6.94776e-05 -9.71833e-07      5.16012 
         150      0.06015 -6.24017e-05 -1.24268e-06      5.16012 
         150       0.0679  -5.7689e-05 -1.56236e-06      5.16012 
         150     0.076126 -5.82511e-05 -1.93546e-06      5.16012 
         150     0.084816 -4.78112e-05 -2.36523e-06      5.16012 
         150     0.093982 -4.28499e-05 -2.85569e-06      5.16012 
         150     0.103611 -3.58138e-05 -3.40914e-06      5.16012 
         150     0.113718 -2.73519e-05 -4.02889e-06      5.16012 
         150     0.124286 -1.79774e-05 -4.71583e-06      5.16012 
         150     0.135333 -7.99329e-06 -5.47248e-06      5.16012 
         150      0.14685  2.44234e-06 -6.29902e-06      5.16012 
         150     0.158827  1.32924e-05 -7.19483e-06      5.16012 
         150     0.171284  2.45946e-05 -8.16087e-06      5.16012 
         150     0.184201  3.63104e-05 -9.19448e-06      5.16012 
         150     0.197599   4.8325e-05 -1.02956e-05      5.16012 
         150     0.211455  6.03554e-05 -1.14601e-05      5.16012 
         150     0.225792  7.21353e-05 -1.26872e-05      5.16012 
         150       0.2406  8.36603e-05 -1.39731e-05      5.16012 
         150     0.255865   9.5271e-05 -1.53133e-05      5.16012 
         150     0.271613   0.00010623 -1.67058e-05      5.16012 
         150     0.287818   0.00011673 -1.81444e-05      5.16012 
         150     0.304506  0.000126694 -1.96278e-05      5.16012 
         150      0.32165  0.000136025 -2.11498e-05      5.16012 
         150     0.339278  0.000144676  -2.2709e-05      5.16012 
         150     0.357377  0.000152587 -2.43004e-05      5.16012 
         150      0.37593  0.000159719 -2.59189e-05      5.16012 
         150     0.394968  0.000166063 -2.75635e-05      5.16012 
         150     0.414461    0.0001716 -2.92285e-05      5.16012 
         150      0.43444  0.000176343 -3.09137e-05      5.16012 
         150     0.454872  0.000180293 -3.26141e-05      5.16012 
         150     0.475791  0.000183473 -3.43303e-05      5.16012 
         150     0.497163  0.000185898 -3.60581e-05      5.16012 
         150     0.519021  0.000187592 -3.77987e-05      5.16012 
         150      0.54135  0.000188578 -3.95496e-05      5.16012 
         150     0.564131  0.000188882 -4.13079e-05      5.16012 
         150       0.5874  0.000188543 -4.30741e-05      5.16012 
         150     0.611121  0.000187614 -4.48421e-05      5.16012 
         150      0.63533  0.000186091 -4.66196e-05      5.16012 
         150      0.65999   0.00018404 -4.84047e-05      5.16012 
         150     0.685139  0.000181483 -5.01978e-05      5.16012 
         150     0.710759   0.00017845 -5.19952e-05      5.16012 
         150     0.736828  0.000174977 -5.37936e-05      5.16012 
         150     0.763387  0.000171091 -5.55939e-05      5.16012 
         150     0.790396  0.000166836 -5.73917e-05      5.16012 
         150     0.817896  0.000162241 -5.91884e-05      5.16012 
         150     0.845843  0.000157353 -6.09794e-05      5.16012 
         150     0.874283  0.000152203 -6.27664e-05      5.16012 
         150      0.90317  0.000146838  -6.4545e-05      5.16012 
         150     0.932551  0.000141288 -6.63163e-05      5.16012 
         150     0.962401  0.000135593 -6.80771e-05      5.16012 
         150     0.992697  0.000129793 -6.98238e-05      5.16012 
         150      1.02349  0.000123911  -7.1557e-05      5.16012 
         150      1.05472  0.000117985  -7.3271e-05      5.16012 
         150      1.08645  0.000112031 -7.49655e-05      5.16012 
         150      1.11863  0.000106079 -7.66343e-05      5.16012 
         150       1.1513  0.000100135 -7.82763e-05      5.16012 
         150      1.18444  9.42173e-05 -7.98861e-05      5.16012 
         150      1.21802  8.83358e-05 -8.14585e-05      5.16012 
         150      1.25211  8.24829e-05 -8.29922e-05      5.16012 
         150      1.28663  7.66658e-05 -8.44812e-05      5.16012 
         150      1.32165  7.08681e-05 -8.59255e-05      5.16011 
         150      1.35712    6.509e-05 -8.73219e-05      5.16011 
         150      1.39308  5.93113e-05 -8.86735e-05      5.16011 
         150      1.42951  5.35258e-05 -8.99833e-05      5.16011 
         150      1.46638  4.77302e-05 -9.12585e-05      5.16011 
         150      1.50375  4.19126e-05 -9.25143e-05      5.16011 
         150      1.54156  3.62928e-05  -9.3637e-05      5.16011 
         150      1.57987  3.05333e-05 -9.47086e-05      5.16011 
         150      1.61863  2.46485e-05 -9.57307e-05      5.16011 
         150      1.65788  1.86554e-05 -9.67004e-05      5.16011 
         150      1.69757  1.25897e-05 -9.76117e-05      5.16011 
         150      1.73776  6.46626e-06 -9.84623e-05      5.16011 
         150      1.77842  3.13968e-07 -9.92479e-05      5.16011 
         150      1.81952 -5.83899e-06 -9.99647e-05      5.16011 
         150      1.86113 -1.19809e-05 -0.000100611      5.16011 
         150      1.90316 -1.80812e-05 -0.000101184      5.16011 
         150      1.94571 -2.41301e-05 -0.000101683      5.16011 
         150      1.98869 -3.01001e-05 -0.000102105      5.16011 
         150      2.03217  -3.5984e-05  -0.00010245      5.16011 
         150      2.07612 -4.17618e-05 -0.000102717      5.16011 
         150      2.12051 -4.74154e-05 -0.000102906      5.16011 
         150       2.1654 -5.29415e-05 -0.000103018      5.16011 
         150      2.21073 -5.83206e-05 -0.000103053      5.16011 
         150      2.25656  -6.3552e-05 -0.000103012      5.16011 
         150      2.30283 -6.86197e-05 -0.000102896      5.16011 
         150       2.3496 -7.35253e-05 -0.000102709      5.16011 
         150      2.39685 -7.82599e-05  -0.00010245       5.1601 
         150      2.44452  -8.2816e-05 -0.000102125       5.1601 
         150      2.49271 -8.71983e-05 -0.000101733       5.1601 
         150      2.54132 -9.13987e-05 -0.000101279       5.1601 
         150      2.59044 -9.54233e-05 -0.000100766       5.1601 
         150         2.64 -9.92662e-05 -0.000100196       5.1601 
         150      2.69006 -0.000102934 -9.95731e-05       5.1601 
         150      2.74056 -0.000106424 -9.89002e-05       5.1601 
         150      2.79156 -0.000109742 -9.81797e-05       5.1601 
         150      2.84304 -0.000112888 -9.74152e-05       5.1601 
         150      2.89494 -0.000115862 -9.66101e-05       5.1601 
         150      2.94735 -0.000118671 -9.57659e-05       5.1601 
         150       3.0002  -0.00012131 -9.48862e-05       5.1601 
         150      3.05355 -0.000123786 -9.39717e-05       5.1601 
         150      3.10733 -0.000126093 -9.30256e-05      5.16009 
         150      3.16163 -0.000128234 -9.20476e-05      5.16009 
         150      3.21639 -0.000130203 -9.10394e-05      5.16009 
         150      3.27158 -0.000131996 -9.00021e-05      5.16009 
         150      3.32729 -0.000133608 -8.89339e-05      5.16009 
         150      3.38342 -0.000135027 -8.78358e-05      5.16009 
         150      3.44007 -0.000136246 -8.67049e-05      5.16009 
         150      3.49714 -0.000137249 -8.55411e-05      5.16009 
         150      3.55472  -0.00013802 -8.43404e-05      5.16009 
         150      3.61273  -0.00013854 -8.31019e-05      5.16009 
         150      3.67125 -0.000138788 -8.18204e-05      5.16009 
         150      3.73025 -0.000138738 -8.04933e-05      5.16009 
         150      3.78967 -0.000138516  -7.9134e-05      5.16008 
         150      3.84961 -0.000138125 -7.77407e-05      5.16008 
         150      3.90996 -0.000137543  -7.6312e-05      5.16008 
         150      3.97084 -0.000136806 -7.48491e-05      5.16008 
         150      4.03214 -0.000135941 -7.33584e-05      5.16008 
         150      4.09395 -0.000134971 -7.18421e-05      5.16008 
         150      4.15624 -0.000133913 -7.03065e-05      5.16008 
         150      4.21895 -0.000132783 -6.87579e-05      5.16008 
         150      4.28217 -0.000131591 -6.71989e-05      5.16008 
         150      4.34582 -0.000130351 -6.56367e-05      5.16008 
         150      4.40998 -0.000129072 -6.40732e-05      5.16008 
         150      4.47457 -0.000127768 -6.25141e-05      5.16007 
         150      4.53968 -0.000126447 -6.09593e-05      5.16007 
         150      4.60525 -0.000125125 -5.94104e-05      5.16007 
         150      4.67125 -0.000123815 -5.78677e-05      5.16007 
         150      4.73777 -0.000122529  -5.6325e-05      5.16007 
         150       4.8047  -0.00012125 -5.48219e-05      5.16007 
         150      4.87216 -0.000119997 -5.33446e-05      5.16007 
         150      4.94003 -0.000118775 -5.18855e-05      5.16007 
         150      5.00843 -0.000117561 -5.04437e-05      5.16007 
         150      5.07724 -0.000116331 -4.90202e-05      5.16007 
         150      5.14658 -0.000115156 -4.75784e-05      5.16006 
         150      5.21639 -0.000113989 -4.61731e-05      5.16006 
         150      5.28661 -0.000112848 -4.47966e-05      5.16006 
         150      5.35736 -0.000111738 -4.34409e-05      5.16006 
         150      5.42852 -0.000110661  -4.2105e-05      5.16006 
         150      5.50021 -0.000109589  -4.0803e-05      5.16006 
         150      5.57231 -0.000108522 -3.95325e-05      5.16006 
         150      5.64493 -0.000107479 -3.82739e-05      5.16006 
         150      5.71803  -0.00010646 -3.70303e-05      5.16006 
         150      5.79154 -0.000105462 -3.58047e-05      5.16006 
         150      5.86558 -0.000104484 -3.45973e-05      5.16005 
         150      5.94003 -0.000103526 -3.34123e-05      5.16005 
         150      6.01501 -0.000102586 -3.22496e-05      5.16005 
         150       6.0904 -0.000101664 -3.11109e-05      5.16005 
         150      6.16632 -0.000100758 -2.99909e-05      5.16005 
         150      6.24271  -9.9864e-05 -2.88808e-05      5.16005 
         150       6.3195 -9.89806e-05 -2.77643e-05      5.16005 
         150      6.39683 -9.81213e-05 -2.66928e-05      5.16005 
         150      6.47457 -9.72834e-05 -2.56614e-05      5.16005 
         150      6.55284 -9.64635e-05 -2.46414e-05      5.16004 
         150      6.63152 -9.56619e-05 -2.36236e-05      5.16004 
         150      6.71073 -9.48767e-05  -2.2607e-05      5.16004 
         150      6.79034 -9.41089e-05 -2.16004e-05      5.16004 
         150      6.87049 -9.33572e-05 -2.06123e-05      5.16004 
         150      6.95111 -9.26223e-05 -1.96537e-05      5.16004 
         150      7.03214 -9.19047e-05 -1.87322e-05      5.16004 
         150       7.1137 -9.12033e-05 -1.78496e-05      5.16004 
         150      7.19566 -9.05191e-05 -1.70054e-05      5.16003 
         150      7.27816 -8.98511e-05 -1.61928e-05      5.16003 
         150      7.36106 -8.92006e-05 -1.54053e-05      5.16003 
         150      7.44451 -8.85668e-05 -1.46339e-05      5.16003 
         150      7.52842 -8.79039e-05 -1.37746e-05      5.16003 
         150      7.61273 -8.72507e-05 -1.28997e-05      5.16003 
         150      7.69758 -8.66194e-05 -1.20352e-05      5.16003 
         150      7.78283 -8.60227e-05 -1.12368e-05      5.16003 
         150      7.86862 -8.54643e-05 -1.05912e-05      5.16002 
         150      7.95481 -8.49235e-05 -1.01677e-05      5.16002 
         150      8.04155 -8.42818e-05 -9.31451e-06      5.16002 
         150      8.12868 -8.37045e-05 -8.56388e-06      5.16002 
         150      8.21635 -8.31835e-05  -7.8723e-06      5.16002 
         150      8.30449 -8.26301e-05 -7.16549e-06      5.16002 
         150      8.39303 -8.21016e-05 -6.56724e-06      5.16002 
         150      8.48211 -8.15889e-05 -6.01951e-06      5.16002 
         150      8.57159 -8.10877e-05  -5.4867e-06      5.16001 
         150      8.66161 -8.05947e-05 -4.94793e-06      5.16001 
         150      8.75203 -8.01098e-05 -4.39665e-06      5.16001 
         150      8.84299 -7.96329e-05 -3.83349e-06      5.16001 
         150      8.93443 -7.91652e-05 -3.26604e-06      5.16001 
         150      9.02626 -7.87087e-05 -2.70454e-06      5.16001 
         150      9.11863 -7.82638e-05 -2.15802e-06      5.16001 
         150      9.21139  -7.7832e-05 -1.63529e-06         5.16 
         150      9.30471 -7.74127e-05 -1.14007e-06         5.16 
         150      9.39841 -7.70063e-05 -6.73357e-07         5.16 
         150      9.49267 -7.66111e-05 -2.30159e-07         5.16 
         150      9.58739 -7.62264e-05  1.97264e-07         5.16 
         150      9.68251 -7.58514e-05  6.19078e-07         5.16 
         150      9.77817 -7.54855e-05  1.04642e-06      5.15999 
         150      9.87422 -7.51308e-05  1.48556e-06      5.15999 
         150      9.97083 -7.47909e-05  1.93607e-06      5.15999 
         150      10.0678 -7.44747e-05  2.38217e-06      5.15999 
         150      10.1654 -7.41956e-05  2.78837e-06      5.15999 
         150      10.2633 -7.39753e-05  3.08818e-06      5.15999 
         150      10.3618 -7.38443e-05  3.17623e-06      5.15999 
         150      10.4607 -7.34619e-05  3.64091e-06      5.15998 
         150      10.5601 -7.31262e-05  4.04556e-06      5.15998 
         150        10.66 -7.28492e-05  4.34373e-06      5.15998 
         150      10.7603 -7.25951e-05  4.59413e-06      5.15998 
         150      10.8611 -7.23461e-05  4.83915e-06      5.15998 
         150      10.9623 -7.20981e-05  5.10491e-06      5.15997 
         150      11.0641 -7.18539e-05   5.4043e-06      5.15997 
         150      11.1663 -7.16091e-05  5.66494e-06      5.15997 
         150       11.269 -7.13543e-05  5.88182e-06      5.15997 
         150      11.3721 -7.10958e-05  6.08885e-06      5.15997 
         150      11.4757  -7.0844e-05  6.30339e-06      5.15997 
         150      11.5798 -7.06091e-05  6.53141e-06      5.15996 
         150      11.6844 -7.03996e-05  6.76693e-06      5.15996 
         150      11.7894 -7.02194e-05  6.99617e-06      5.15996 
         150       11.895  -7.0066e-05    7.201e-06      5.15996 
         150      12.0009 -6.99297e-05  7.36665e-06      5.15996 
         150      12.1073 -6.97911e-05  7.49146e-06      5.15995 
         150      12.2142 -6.96224e-05  7.59818e-06      5.15995 
         150      12.3216 -6.93859e-05  7.74976e-06      5.15995 
         150      12.4294  -6.9126e-05  7.97283e-06      5.15995 
         150      12.5378 -6.90321e-05  8.02349e-06      5.15995 
         150      12.6465 -6.88058e-05   8.1657e-06      5.15994 
         150      12.7558 -6.85448e-05  8.33224e-06      5.15994 
         150      12.8656 -6.83063e-05  8.48586e-06      5.15994 
         150      12.9757 -6.81156e-05  8.61178e-06      5.15994 
         150      13.0864  -6.7975e-05  8.71045e-06      5.15994 
         150      13.1975 -6.78731e-05  8.78996e-06      5.15993 
         150      13.3092 -6.77922e-05  8.86027e-06      5.15993 
         150      13.4212 -6.77159e-05  8.92685e-06      5.15993 
         150      13.5338 -6.76351e-05  8.98612e-06      5.15993 
         150      13.6468 -6.75542e-05  9.02071e-06      5.15992 
         150      13.7603 -6.74645e-05  9.06666e-06      5.15992 
         150      13.8743 -6.73462e-05  9.21812e-06      5.15992 
         150      13.9886 -6.72708e-05  9.30979e-06      5.15992 
         150      14.1036 -6.72197e-05  9.35423e-06      5.15991 
         150      14.2189 -6.71743e-05  9.36032e-06      5.15991 
         150      14.3348 -6.71175e-05   9.3382e-06      5.15991 
         150       14.451 -6.70378e-05  9.30427e-06      5.15991 
         150      14.5678 -6.69334e-05  9.28666e-06       5.1599 
         150      14.6851  -6.6818e-05  9.33151e-06       5.1599 
         150      14.8028 -6.67282e-05  9.50935e-06       5.1599 
         150       14.921 -6.66922e-05  9.59867e-06       5.1599 
         150      15.0396 -6.66402e-05  9.30142e-06      5.15989 
         150      15.1588 -6.65852e-05  9.18933e-06      5.15989 
         150      15.2783 -6.65109e-05  9.19703e-06      5.15989 
         150      15.3984 -6.64157e-05  9.26993e-06      5.15989 
         150       15.519 -6.63073e-05  9.36476e-06      5.15988 
         150        15.64 -6.61982e-05  9.44955e-06      5.15988 
         150      15.7615 -6.61011e-05   9.5036e-06      5.15988 
         150      15.8834 -6.60268e-05  9.51649e-06      5.15988 
         150      16.0058 -6.59806e-05  9.48741e-06      5.15987 
         150      16.1286 -6.59618e-05  9.42374e-06      5.15987 
         150       16.252 -6.59628e-05  9.33913e-06      5.15987 
         150      16.3759 -6.59699e-05  9.25165e-06      5.15986 
         150      16.5002 -6.59649e-05  9.18097e-06      5.15986 
         150       16.625 -6.59285e-05  9.14504e-06      5.15986 
         150      16.7501 -6.58446e-05  9.15679e-06      5.15986 
         150      16.8759 -6.57062e-05   9.2197e-06      5.15985 
         150       17.002 -6.55228e-05  9.32289e-06      5.15985 
         150      17.1287 -6.53298e-05  9.43611e-06      5.15985 
         150      17.2557 -6.51991e-05  9.50305e-06      5.15984 
         150      17.3834 -6.52523e-05  9.43508e-06      5.15984 
         150      17.5115 -6.56753e-05  9.10326e-06      5.15984 
         150      17.6399 -6.62309e-05  8.69291e-06      5.15983 
         150       17.769 -6.57739e-05  8.84774e-06      5.15983 
         150      17.8984 -6.52685e-05  8.86804e-06      5.15983 
         150      18.0284 -6.49834e-05  9.04172e-06      5.15982 
         150      18.1587 -6.48612e-05  9.07946e-06      5.15982 
         150      18.2896 -6.48522e-05   9.0326e-06      5.15982 
         150       18.421 -6.49161e-05   8.9412e-06      5.15981 
         150      18.5528 -6.50206e-05  8.83557e-06      5.15981 
         150      18.6851  -6.5141e-05  8.73709e-06      5.15981 
         150      18.8178 -6.52588e-05  8.66004e-06       5.1598 
         150      18.9511 -6.53617e-05  8.61214e-06       5.1598 
         150      19.0847  -6.5442e-05   8.5962e-06       5.1598 
         150      19.2189 -6.54963e-05  8.61088e-06      5.15979 
         150      19.3535 -6.55245e-05  8.65181e-06      5.15979 
         150      19.4886 -6.55293e-05  8.71265e-06      5.15978 
         150      19.6242 -6.55153e-05  8.78575e-06      5.15978 
         150      19.7602 -6.54886e-05  8.86303e-06      5.15978 
         150      19.8968 -6.54558e-05  8.93692e-06      5.15977 
         150      20.0337  -6.5424e-05  9.00051e-06      5.15977 
         150      20.1712 -6.53995e-05  9.04853e-06      5.15977 
         150      20.3091 -6.53881e-05  9.07733e-06      5.15976 
         150      20.4475 -6.53944e-05  9.08541e-06      5.15976 
         150      20.5864 -6.54213e-05  9.07335e-06      5.15975 
         150      20.7257 -6.54699e-05  9.04395e-06      5.15975 
         150      20.8655 -6.55397e-05  9.00182e-06      5.15975 
         150      21.0058 -6.56276e-05  8.95327e-06      5.15974 
         150      21.1465 -6.57288e-05  8.90551e-06      5.15974 
         150      21.2877 -6.58364e-05  8.86616e-06      5.15973 
         150      21.4294 -6.59418e-05  8.84207e-06      5.15973 
         150      21.5716  -6.6035e-05  8.83836e-06      5.15972 
         150      21.7142 -6.61048e-05   8.8569e-06      5.15972 
         150      21.8573 -6.61397e-05  8.89474e-06      5.15972 
         150      22.0008 -6.61285e-05  8.94214e-06      5.15971 
         150      22.1449 -6.60609e-05  8.98053e-06      5.15971 
         150      22.2893 -6.59027e-05  8.97132e-06       5.1597 
         150      22.4344 -6.56981e-05  8.87971e-06       5.1597 
         150      22.5797 -6.54672e-05  8.63024e-06      5.15969 
         150      22.7257 -6.52424e-05  8.11934e-06      5.15969 
         150      22.8721 -6.51965e-05  8.30282e-06      5.15968 
         150      23.0189  -6.5198e-05  8.51303e-06      5.15968 
         150      23.1663 -6.51934e-05  8.62112e-06      5.15967 
         150       23.314  -6.5189e-05  8.66403e-06      5.15967 
         150      23.4623 -6.51979e-05   8.6829e-06      5.15966 
         150       23.611 -6.52144e-05  8.67986e-06      5.15966 
         150      23.7602 -6.52373e-05  8.66978e-06      5.15965 
         150        23.91 -6.52663e-05  8.66542e-06      5.15965 
         150        24.06 -6.53001e-05  8.67466e-06      5.15964 
         150      24.2107 -6.53369e-05  8.70128e-06      5.15964 
         150      24.3617 -6.53744e-05   8.7457e-06      5.15963 
         150      24.5133 -6.54098e-05  8.80579e-06      5.15963 
         150      24.6653 -6.54407e-05  8.87734e-06      5.15962 
         150      24.8178 -6.54646e-05  8.95501e-06      5.15962 
         150      24.9708 -6.54794e-05  9.03256e-06      5.15961 
         150      25.1242 -6.54835e-05  9.10359e-06      5.15961 
         150      25.2781 -6.54757e-05  9.16216e-06       5.1596 
         150      25.4324 -6.54557e-05  9.20283e-06       5.1596 
         150      25.5873 -6.54238e-05  9.22141e-06      5.15959 
         150      25.7426 -6.53812e-05  9.21498e-06      5.15959 
         150      25.8984 -6.53297e-05  9.18221e-06      5.15958 
         150      26.0546  -6.5272e-05  9.12355e-06      5.15958 
         150      26.2114 -6.52114e-05  9.04105e-06      5.15957 
         150      26.3686 -6.51516e-05  8.93861e-06      5.15956 
         150      26.5262 -6.50971e-05  8.82175e-06      5.15956 
         150      26.6844 -6.50523e-05  8.69703e-06      5.15955 
         150      26.8429 -6.50218e-05  8.57234e-06      5.15955 
         150       27.002 -6.50097e-05  8.45567e-06      5.15954 
         150      27.1615 -6.50197e-05  8.35529e-06      5.15954 
         150      27.3216 -6.50545e-05  8.27828e-06      5.15953 
         150      27.4821 -6.51151e-05   8.2303e-06      5.15952 
         150       27.643 -6.52009e-05  8.21421e-06      5.15952 
         150      27.8044 -6.53087e-05  8.22899e-06      5.15951 
         150      27.9663  -6.5432e-05  8.26848e-06      5.15951 
         150      28.1287 -6.55609e-05  8.31992e-06       5.1595 
         150      28.2914 -6.56804e-05  8.36215e-06      5.15949 
         150      28.4548 -6.57706e-05  8.36401e-06      5.15949 
         150      28.6185 -6.58052e-05  8.28214e-06      5.15948 
         150      28.7828 -6.57504e-05  8.05861e-06      5.15947 
         150      28.9475 -6.55643e-05  7.61881e-06      5.15947 
         150      29.1126 -6.51956e-05  6.86933e-06      5.15946 
         150      29.2784 -6.49624e-05   6.7345e-06      5.15945 
         150      29.4444 -6.51406e-05   7.4605e-06      5.15945 
         150       29.611 -6.54711e-05  8.20961e-06      5.15944 
         150       29.778 -6.57635e-05   8.4566e-06      5.15943 
         150      29.9456 -6.57672e-05  7.91118e-06      5.15943 
         150      30.1137  -6.5775e-05  7.59585e-06      5.15942 
         150      30.2821 -6.57846e-05  7.44985e-06      5.15941 
         150      30.4511 -6.57944e-05  7.42184e-06      5.15941 
         150      30.6204 -6.58029e-05  7.46966e-06       5.1594 
         150      30.7903 -6.58089e-05  7.55922e-06      5.15939 
         150      30.9606 -6.58114e-05  7.66355e-06      5.15939 
         150      31.1315 -6.58098e-05  7.76247e-06      5.15938 
         150      31.3028 -6.58038e-05  7.84133e-06      5.15937 
         150      31.4745 -6.57932e-05  7.89058e-06      5.15936 
         150      31.6468 -6.57781e-05  7.90511e-06      5.15936 
         150      31.8194 -6.57588e-05  7.88336e-06      5.15935 
         150      31.9926 -6.57358e-05  7.82676e-06      5.15934 
         150      32.1662   -6.571e-05  7.73921e-06      5.15934 
         150      32.3404  -6.5682e-05  7.62612e-06      5.15933 
         150      32.5149 -6.56531e-05  7.49447e-06      5.15932 
         150        32.69 -6.56244e-05  7.35147e-06      5.15931 
         150      32.8655  -6.5597e-05  7.20488e-06       5.1593 
         150      33.0414 -6.55724e-05  7.06222e-06       5.1593 
         150       33.218 -6.55518e-05  6.93001e-06      5.15929 
         150      33.3948 -6.55366e-05  6.81426e-06      5.15928 
         150      33.5723 -6.55282e-05  6.71932e-06      5.15927 
         150        33.75 -6.55277e-05  6.64838e-06      5.15927 
         150      33.9284 -6.55363e-05  6.60275e-06      5.15926 
         150      34.1073 -6.55548e-05  6.58215e-06      5.15925 
         150      34.2865  -6.5584e-05  6.58445e-06      5.15924 
         150      34.4663 -6.56242e-05  6.60582e-06      5.15923 
         150      34.6465 -6.56757e-05  6.64076e-06      5.15923 
         150      34.8272  -6.5738e-05   6.6825e-06      5.15922 
         150      35.0083 -6.58104e-05  6.72298e-06      5.15921 
         150        35.19 -6.58916e-05  6.75357e-06       5.1592 
         150      35.3721 -6.59798e-05  6.76526e-06      5.15919 
         150      35.5546 -6.60723e-05   6.7494e-06      5.15918 
         150      35.7377 -6.61659e-05  6.69831e-06      5.15918 
         150      35.9211 -6.62563e-05  6.60617e-06      5.15917 
         150      36.1052 -6.63385e-05  6.46961e-06      5.15916 
         150      36.2895 -6.64063e-05  6.28934e-06      5.15915 
         150      36.4745 -6.64526e-05  6.07037e-06      5.15914 
         150      36.6598 -6.64688e-05  5.82447e-06      5.15913 
         150      36.8457 -6.64452e-05  5.57019e-06      5.15912 
         150      37.0321 -6.63703e-05  5.33574e-06      5.15911 
         150      37.2188 -6.62316e-05  5.16004e-06       5.1591 
         150      37.4062 -6.60142e-05  5.09419e-06       5.1591 
         150      37.5938 -6.57022e-05  5.20421e-06      5.15909 
         150      37.7821 -6.52768e-05  5.57308e-06      5.15908 
         150      37.9707 -6.54067e-05  4.32463e-06      5.15907 
         150      38.1599 -6.55987e-05  4.08506e-06      5.15906 
         150      38.3496 -6.56808e-05  4.72036e-06      5.15905 
         150      38.5396 -6.57625e-05  5.18848e-06      5.15904 
         150      38.7302 -6.58404e-05   5.5131e-06      5.15903 
         150      38.9211 -6.59117e-05  5.71523e-06      5.15902 
         150      39.1127 -6.59745e-05  5.81525e-06      5.15901 
         150      39.3046 -6.60275e-05  5.83158e-06        5.159 
         150      39.4971 -6.60699e-05  5.78137e-06      5.15899 
         150      39.6899 -6.61016e-05  5.68027e-06      5.15898 
         150      39.8833 -6.61228e-05  5.54223e-06      5.15897 
         150      40.0772  -6.6134e-05  5.37991e-06      5.15896 
         150      40.2714 -6.61362e-05  5.20454e-06      5.15895 
         150      40.4663 -6.61305e-05  5.02545e-06      5.15894 
         150      40.6615  -6.6118e-05  4.85107e-06      5.15893 
         150      40.8573 -6.61003e-05  4.68783e-06      5.15892 
         150      41.0534 -6.60787e-05  4.54133e-06      5.15891 
         150      41.2501 -6.60546e-05  4.41533e-06       5.1589 
         150      41.4473 -6.60294e-05  4.31266e-06      5.15889 
         150      41.6448 -6.60042e-05  4.23488e-06      5.15888 
         150      41.8429 -6.59803e-05  4.18223e-06      5.15887 
         150      42.0414 -6.59587e-05  4.15411e-06      5.15886 
         150      42.2405 -6.59399e-05  4.14884e-06      5.15885 
         150      42.4399 -6.59247e-05  4.16396e-06      5.15884 
         150      42.6399 -6.59133e-05   4.1963e-06      5.15883 
         150      42.8404 -6.59058e-05  4.24206e-06      5.15882 
         150      43.0412 -6.59021e-05  4.29697e-06      5.15881 
         150      43.2426 -6.59019e-05  4.35662e-06       5.1588 
         150      43.4444 -6.59046e-05  4.41627e-06      5.15879 
         150      43.6467 -6.59095e-05  4.47149e-06      5.15878 
         150      43.8494 -6.59156e-05  4.51789e-06      5.15876 
         150      44.0527 -6.59219e-05  4.55175e-06      5.15875 
         150      44.2563 -6.59275e-05  4.56993e-06      5.15874 
         150      44.4606 -6.59313e-05  4.57033e-06      5.15873 
         150      44.6653 -6.59323e-05    4.552e-06      5.15872 
         150      44.8704 -6.59297e-05  4.51557e-06      5.15871 
         150       45.076 -6.59229e-05  4.46333e-06       5.1587 
         150       45.282 -6.59117e-05  4.39983e-06      5.15869 
         150      45.4886 -6.58964e-05  4.33187e-06      5.15867 
         150      45.6955 -6.58779e-05  4.26921e-06      5.15866 
         150       45.903 -6.58577e-05  4.22458e-06      5.15865 
         150      46.1111 -6.58383e-05  4.21441e-06      5.15864 
         150      46.3194 -6.58234e-05  4.25894e-06      5.15863 
         150      46.5283 -6.58177e-05  4.38295e-06      5.15862 
         150      46.7376 -6.58276e-05   4.6157e-06       5.1586 
         150      46.9475 -6.59475e-05  4.64522e-06      5.15859 
         150      47.1577 -6.61234e-05  4.36887e-06      5.15858 
         150      47.3685 -6.62475e-05  4.15876e-06      5.15857 
         150      47.5798 -6.62201e-05  4.09525e-06      5.15856 
         150      47.7914 -6.61122e-05  4.07724e-06      5.15854 
         150      48.0037  -6.6017e-05  4.04231e-06      5.15853 