Variables = x, y, u, v, p

Zone, I=800, F=POINT
         700            0           -0           -0      6.74262 
         700     0.000234 -2.96728e-06 -1.37064e-11      6.74262 
         700     0.000939 -1.17825e-05 -2.20499e-10      6.74262 
         700     0.002113 -2.60667e-05 -1.12173e-09      6.74262 
         700     0.003759 -4.53295e-05  -3.5757e-09      6.74262 
         700     0.005872 -6.88985e-05 -8.80659e-09      6.74262 
         700     0.008457 -9.62201e-05 -1.84707e-08      6.74262 
         700      0.01151 -0.000126731 -3.46508e-08      6.74262 
         700     0.015036 -0.000160104 -5.99733e-08      6.74262 
         700     0.019031 -0.000196088 -9.75585e-08      6.74262 
         700     0.023493 -0.000234578 -1.51108e-07      6.74262 
         700     0.028429 -0.000275599 -2.25083e-07      6.74262 
         700     0.033831 -0.000318991 -3.24406e-07      6.74262 
         700     0.039706 -0.000364554 -4.54947e-07      6.74262 
         700     0.046047 -0.000411752 -6.23009e-07      6.74262 
         700     0.052863 -0.000459953 -8.36027e-07      6.74262 
         700      0.06015 -0.000508342 -1.10182e-06      6.74262 
         700       0.0679 -0.000556256 -1.42862e-06      6.74262 
         700     0.076126 -0.000603664 -1.82619e-06      6.74262 
         700     0.084816 -0.000650817 -2.30369e-06      6.74262 
         700     0.093982 -0.000695766 -2.87208e-06      6.74262 
         700     0.103611 -0.000738964 -3.54118e-06      6.74262 
         700     0.113718 -0.000779989 -4.32292e-06      6.74262 
         700     0.124286 -0.000818341 -5.22702e-06      6.74262 
         700     0.135333 -0.000853724 -6.26606e-06      6.74262 
         700      0.14685 -0.000885811 -7.45023e-06      6.74262 
         700     0.158827 -0.000914358 -8.78899e-06      6.74262 
         700     0.171284  -0.00093925 -1.02948e-05      6.74262 
         700     0.184201 -0.000960336 -1.19747e-05      6.74262 
         700     0.197599 -0.000977578 -1.38404e-05      6.74262 
         700     0.211455 -0.000990912 -1.58967e-05      6.74262 
         700     0.225792  -0.00100037 -1.81541e-05      6.74262 
         700       0.2406  -0.00100605 -2.06174e-05      6.74262 
         700     0.255865  -0.00100813  -2.3289e-05      6.74262 
         700     0.271613  -0.00100672 -2.61771e-05      6.74262 
         700     0.287818  -0.00100206 -2.92796e-05      6.74261 
         700     0.304506   -0.0009944 -3.26031e-05      6.74261 
         700      0.32165 -0.000984021 -3.61427e-05      6.74261 
         700     0.339278 -0.000971201 -3.99033e-05      6.74261 
         700     0.357377 -0.000956259 -4.38806e-05      6.74261 
         700      0.37593 -0.000939529 -4.80678e-05      6.74261 
         700     0.394968  -0.00092131 -5.24681e-05      6.74261 
         700     0.414461 -0.000901951 -5.70701e-05      6.74261 
         700      0.43444 -0.000881741 -6.18759e-05      6.74261 
         700     0.454872 -0.000861016 -6.68718e-05      6.74261 
         700     0.475791 -0.000840034 -7.20601e-05      6.74261 
         700     0.497163 -0.000819098 -7.74259e-05      6.74261 
         700     0.519021 -0.000798428 -8.29708e-05      6.74261 
         700      0.54135 -0.000778264 -8.86842e-05      6.74261 
         700     0.564131 -0.000758824  -9.4554e-05      6.74261 
         700       0.5874 -0.000740255 -0.000100582      6.74261 
         700     0.611121 -0.000722741 -0.000106749      6.74261 
         700      0.63533 -0.000706369 -0.000113061      6.74261 
         700      0.65999 -0.000691275 -0.000119501      6.74261 
         700     0.685139 -0.000677497 -0.000126071      6.74261 
         700     0.710759 -0.000665089  -0.00013276      6.74261 
         700     0.736828 -0.000654078 -0.000139554      6.74261 
         700     0.763387 -0.000644443 -0.000146456      6.74261 
         700     0.790396  -0.00063617 -0.000153449      6.74261 
         700     0.817896 -0.000629198 -0.000160535      6.74261 
         700     0.845843 -0.000623462 -0.000167696      6.74261 
         700     0.874283  -0.00061886 -0.000174935      6.74261 
         700      0.90317 -0.000615284 -0.000182232      6.74261 
         700     0.932551 -0.000612595 -0.000189591      6.74261 
         700     0.962401 -0.000610646 -0.000196997      6.74261 
         700     0.992697 -0.000609277 -0.000204434      6.74261 
         700      1.02349 -0.000608313 -0.000211906      6.74261 
         700      1.05472 -0.000607577 -0.000219391      6.74261 
         700      1.08645 -0.000606888 -0.000226892      6.74261 
         700      1.11863 -0.000606067 -0.000234386      6.74261 
         700       1.1513 -0.000604939 -0.000241874      6.74261 
         700      1.18444 -0.000603343  -0.00024934      6.74261 
         700      1.21802 -0.000601131 -0.000256769      6.74261 
         700      1.25211 -0.000598168 -0.000264162      6.74261 
         700      1.28663 -0.000594352 -0.000271496      6.74261 
         700      1.32165  -0.00058959 -0.000278777      6.74261 
         700      1.35712 -0.000583833 -0.000285984      6.74261 
         700      1.39308  -0.00057704 -0.000293124      6.74261 
         700      1.42951 -0.000569209 -0.000300188      6.74261 
         700      1.46638 -0.000560367 -0.000307172      6.74261 
         700      1.50375 -0.000550534 -0.000314093      6.74261 
         700      1.54156 -0.000539682 -0.000320874      6.74262 
         700      1.57987 -0.000528147 -0.000327568      6.74262 
         700      1.61863 -0.000516046 -0.000334164      6.74262 
         700      1.65788  -0.00050344 -0.000340672      6.74262 
         700      1.69757 -0.000490425 -0.000347077      6.74262 
         700      1.73776 -0.000477048 -0.000353385      6.74262 
         700      1.77842 -0.000463381 -0.000359588      6.74262 
         700      1.81952 -0.000449491 -0.000365677      6.74262 
         700      1.86113 -0.000435402 -0.000371658      6.74262 
         700      1.90316 -0.000421181 -0.000377516      6.74262 
         700      1.94571 -0.000406839 -0.000383255      6.74262 
         700      1.98869 -0.000392429 -0.000388863      6.74262 
         700      2.03217  -0.00037795 -0.000394342      6.74262 
         700      2.07612 -0.000363433 -0.000399683      6.74262 
         700      2.12051 -0.000348901 -0.000404876      6.74262 
         700       2.1654  -0.00033434 -0.000409923      6.74262 
         700      2.21073 -0.000319778 -0.000414811      6.74262 
         700      2.25656 -0.000305191 -0.000419542      6.74262 
         700      2.30283 -0.000290601 -0.000424102      6.74262 
         700       2.3496 -0.000275984 -0.000428492      6.74262 
         700      2.39685 -0.000261345 -0.000432702      6.74262 
         700      2.44452 -0.000246693 -0.000436724      6.74263 
         700      2.49271    -0.000232 -0.000440557      6.74263 
         700      2.54132 -0.000217289  -0.00044419      6.74263 
         700      2.59044 -0.000202536 -0.000447622      6.74263 
         700         2.64 -0.000187768 -0.000450843      6.74263 
         700      2.69006  -0.00017297 -0.000453853      6.74263 
         700      2.74056 -0.000158177 -0.000456642      6.74263 
         700      2.79156 -0.000143381  -0.00045921      6.74263 
         700      2.84304 -0.000128617  -0.00046155      6.74263 
         700      2.89494 -0.000113923 -0.000463658      6.74263 
         700      2.94735 -9.93078e-05 -0.000465533      6.74264 
         700       3.0002 -8.48315e-05  -0.00046717      6.74264 
         700      3.05355 -7.05121e-05 -0.000468569      6.74264 
         700      3.10733 -5.64153e-05 -0.000469727      6.74264 
         700      3.16163 -4.25638e-05 -0.000470645      6.74264 
         700      3.21639 -2.90129e-05 -0.000471323      6.74264 
         700      3.27158 -1.58138e-05  -0.00047176      6.74264 
         700      3.32729 -2.97951e-06 -0.000471959      6.74264 
         700      3.38342    9.446e-06 -0.000471923      6.74265 
         700      3.44007  2.14736e-05 -0.000471653      6.74265 
         700      3.49714  3.30965e-05 -0.000471156      6.74265 
         700      3.55472  4.43721e-05 -0.000470433      6.74265 
         700      3.61273  5.53563e-05 -0.000469492      6.74265 
         700      3.67125  6.61833e-05 -0.000468337      6.74265 
         700      3.73025  7.70146e-05 -0.000466975      6.74266 
         700      3.78967  8.69713e-05 -0.000465421      6.74266 
         700      3.84961  9.61507e-05 -0.000463656      6.74266 
         700      3.90996  0.000104951 -0.000461684      6.74266 
         700      3.97084  0.000113367  -0.00045951      6.74266 
         700      4.03214  0.000121367 -0.000457147      6.74266 
         700      4.09395  0.000128949   -0.0004546      6.74267 
         700      4.15624  0.000136093 -0.000451879      6.74267 
         700      4.21895  0.000142785 -0.000448996      6.74267 
         700      4.28217  0.000149029 -0.000445957      6.74267 
         700      4.34582  0.000154809 -0.000442775      6.74267 
         700      4.40998  0.000160134 -0.000439455      6.74267 
         700      4.47457  0.000164994 -0.000436013      6.74268 
         700      4.53968  0.000169401 -0.000432451      6.74268 
         700      4.60525  0.000173356 -0.000428782      6.74268 
         700      4.67125  0.000176807 -0.000425071      6.74268 
         700      4.73777  0.000179808 -0.000421291      6.74268 
         700       4.8047  0.000182376 -0.000417446      6.74269 
         700      4.87216  0.000184526  -0.00041354      6.74269 
         700      4.94003  0.000186271 -0.000409584      6.74269 
         700      5.00843  0.000187627  -0.00040558      6.74269 
         700      5.07724  0.000188608  -0.00040154      6.74269 
         700      5.14658  0.000189235 -0.000397463      6.74269 
         700      5.21639  0.000189523 -0.000393358       6.7427 
         700      5.28661  0.000189492 -0.000389235       6.7427 
         700      5.35736   0.00018916 -0.000385091       6.7427 
         700      5.42852  0.000188549 -0.000380938       6.7427 
         700      5.50021  0.000187678 -0.000376773       6.7427 
         700      5.57231  0.000186568 -0.000372609       6.7427 
         700      5.64493  0.000185238 -0.000368442      6.74271 
         700      5.71803  0.000183711 -0.000364279      6.74271 
         700      5.79154  0.000182009 -0.000360128      6.74271 
         700      5.86558  0.000180148 -0.000355985      6.74271 
         700      5.94003  0.000178152  -0.00035186      6.74271 
         700      6.01501  0.000176038  -0.00034775      6.74272 
         700       6.0904  0.000173828 -0.000343664      6.74272 
         700      6.16632  0.000171536 -0.000339598      6.74272 
         700      6.24271  0.000169181 -0.000335557      6.74272 
         700       6.3195  0.000166783 -0.000331547      6.74272 
         700      6.39683  0.000164351 -0.000327562      6.74272 
         700      6.47457  0.000161904  -0.00032361      6.74272 
         700      6.55284  0.000159451 -0.000319686      6.74273 
         700      6.63152  0.000157005 -0.000315795      6.74273 
         700      6.71073  0.000154572 -0.000311931      6.74273 
         700      6.79034  0.000152164 -0.000308099      6.74273 
         700      6.87049  0.000149781 -0.000304289      6.74273 
         700      6.95111  0.000147431 -0.000300502      6.74273 
         700      7.03214  0.000145116 -0.000296735      6.74274 
         700       7.1137  0.000142832 -0.000292978      6.74274 
         700      7.19566  0.000140581 -0.000289228      6.74274 
         700      7.27816  0.000138354 -0.000285469      6.74274 
         700      7.36106  0.000136149 -0.000281696      6.74274 
         700      7.44451  0.000133953 -0.000277889      6.74274 
         700      7.52842  0.000131736 -0.000274139      6.74274 
         700      7.61273   0.00012953 -0.000270577      6.74275 
         700      7.69758  0.000127392 -0.000266979      6.74275 
         700      7.78283  0.000125307 -0.000263369      6.74275 
         700      7.86862  0.000123255 -0.000259759      6.74275 
         700      7.95481  0.000121228 -0.000256168      6.74275 
         700      8.04155  0.000119214   -0.0002526      6.74275 
         700      8.12868  0.000117209 -0.000249068      6.74275 
         700      8.21635  0.000115208 -0.000245572      6.74276 
         700      8.30449  0.000113211 -0.000242118      6.74276 
         700      8.39303  0.000111218 -0.000238708      6.74276 
         700      8.48211   0.00010923 -0.000235337      6.74276 
         700      8.57159  0.000107252 -0.000232009      6.74276 
         700      8.66161  0.000105284 -0.000228716      6.74276 
         700      8.75203  0.000103333  -0.00022546      6.74276 
         700      8.84299  0.000101402 -0.000222234      6.74276 
         700      8.93443  9.94943e-05 -0.000219037      6.74277 
         700      9.02626  9.76163e-05 -0.000215869      6.74277 
         700      9.11863   9.5768e-05 -0.000212722      6.74277 
         700      9.21139   9.3955e-05 -0.000209602      6.74277 
         700      9.30471   9.2176e-05 -0.000206503      6.74277 
         700      9.39841  9.04349e-05 -0.000203431      6.74277 
         700      9.49267  8.87292e-05 -0.000200384      6.74277 
         700      9.58739  8.70597e-05 -0.000197367      6.74277 
         700      9.68251  8.54268e-05 -0.000194387      6.74278 
         700      9.77817  8.38265e-05 -0.000191447      6.74278 
         700      9.87422  8.22602e-05 -0.000188558      6.74278 
         700      9.97083  8.07245e-05 -0.000185724      6.74278 
         700      10.0678  7.92221e-05 -0.000182958      6.74278 
         700      10.1654  7.77525e-05 -0.000180265      6.74278 
         700      10.2633  7.61705e-05 -0.000177359      6.74278 
         700      10.3618   7.4567e-05 -0.000174374      6.74278 
         700      10.4607  7.29998e-05 -0.000171442      6.74278 
         700      10.5601  7.14622e-05 -0.000168586      6.74278 
         700        10.66  6.99407e-05 -0.000165825      6.74279 
         700      10.7603  6.84223e-05 -0.000163193      6.74279 
         700      10.8611  6.68839e-05 -0.000160719      6.74279 
         700      10.9623  6.53006e-05 -0.000158449      6.74279 
         700      11.0641  6.38589e-05 -0.000156017      6.74279 
         700      11.1663  6.26246e-05 -0.000153279      6.74279 
         700       11.269  6.13583e-05 -0.000150667      6.74279 
         700      11.3721  6.00706e-05 -0.000148153      6.74279 
         700      11.4757  5.87746e-05 -0.000145722      6.74279 
         700      11.5798  5.74773e-05 -0.000143354      6.74279 
         700      11.6844  5.61883e-05  -0.00014104      6.74279 
         700      11.7894  5.49114e-05 -0.000138763       6.7428 
         700       11.895  5.36524e-05 -0.000136519       6.7428 
         700      12.0009  5.24154e-05 -0.000134301       6.7428 
         700      12.1073  5.12008e-05 -0.000132101       6.7428 
         700      12.2142  5.00117e-05 -0.000129921       6.7428 
         700      12.3216  4.88467e-05 -0.000127755       6.7428 
         700      12.4294  4.77074e-05 -0.000125606       6.7428 
         700      12.5378   4.6591e-05 -0.000123471       6.7428 
         700      12.6465   4.5498e-05 -0.000121357       6.7428 
         700      12.7558  4.44251e-05 -0.000119261       6.7428 
         700      12.8656  4.33712e-05 -0.000117189       6.7428 
         700      12.9757  4.23353e-05 -0.000115144       6.7428 
         700      13.0864  4.13136e-05 -0.000113127       6.7428 
         700      13.1975  4.03061e-05 -0.000111144       6.7428 
         700      13.3092  3.93094e-05 -0.000109194      6.74281 
         700      13.4212  3.83237e-05 -0.000107283      6.74281 
         700      13.5338  3.73462e-05 -0.000105411      6.74281 
         700      13.6468   3.6377e-05  -0.00010358      6.74281 
         700      13.7603  3.53718e-05 -0.000101766      6.74281 
         700      13.8743  3.43597e-05 -9.99727e-05      6.74281 
         700      13.9886  3.33691e-05 -9.82138e-05      6.74281 
         700      14.1036     3.24e-05 -9.64851e-05      6.74281 
         700      14.2189  3.14548e-05 -9.47866e-05      6.74281 
         700      14.3348  3.05331e-05 -9.31124e-05      6.74281 
         700       14.451   2.9637e-05 -9.14617e-05      6.74281 
         700      14.5678  2.87658e-05 -8.98282e-05      6.74281 
         700      14.6851  2.79206e-05 -8.82106e-05      6.74281 
         700      14.8028  2.71026e-05 -8.66087e-05      6.74281 
         700       14.921  2.63109e-05 -8.50208e-05      6.74281 
         700      15.0396  2.55473e-05 -8.34534e-05      6.74281 
         700      15.1588  2.48113e-05 -8.19123e-05      6.74281 
         700      15.2783  2.41053e-05  -8.0414e-05      6.74281 
         700      15.3984  2.34294e-05  -7.8977e-05      6.74282 
         700       15.519  2.27562e-05 -7.75197e-05      6.74282 
         700        15.64  2.20653e-05 -7.60383e-05      6.74282 
         700      15.7615  2.13739e-05 -7.46621e-05      6.74282 
         700      15.8834  2.05793e-05 -7.31831e-05      6.74282 
         700      16.0058  1.97542e-05 -7.16923e-05      6.74282 
         700      16.1286   1.8963e-05 -7.02994e-05      6.74282 
         700       16.252  1.82077e-05 -6.89879e-05      6.74282 
         700      16.3759  1.74913e-05 -6.77458e-05      6.74282 
         700      16.5002  1.68158e-05 -6.65619e-05      6.74282 
         700       16.625  1.61813e-05 -6.54237e-05      6.74282 
         700      16.7501  1.55986e-05 -6.43172e-05      6.74282 
         700      16.8759  1.50445e-05 -6.32183e-05      6.74282 
         700       17.002  1.45045e-05 -6.21265e-05      6.74282 
         700      17.1287  1.39758e-05 -6.10388e-05      6.74282 
         700      17.2557  1.34575e-05 -5.99561e-05      6.74282 
         700      17.3834  1.29475e-05  -5.8876e-05      6.74282 
         700      17.5115  1.24449e-05 -5.77996e-05      6.74282 
         700      17.6399  1.19493e-05 -5.67277e-05      6.74282 
         700       17.769  1.14593e-05 -5.56594e-05      6.74282 
         700      17.8984  1.09752e-05 -5.45971e-05      6.74282 
         700      18.0284  1.04959e-05 -5.35402e-05      6.74282 
         700      18.1587  1.00221e-05 -5.24916e-05      6.74282 
         700      18.2896  9.55302e-06 -5.14509e-05      6.74282 
         700       18.421  9.08918e-06 -5.04204e-05      6.74282 
         700      18.5528  8.63115e-06 -4.94025e-05      6.74282 
         700      18.6851  8.17848e-06 -4.83969e-05      6.74282 
         700      18.8178  7.73224e-06 -4.74067e-05      6.74282 
         700      18.9511  7.29209e-06  -4.6432e-05      6.74282 
         700      19.0847  6.85911e-06 -4.54754e-05      6.74282 
         700      19.2189  6.43301e-06 -4.45369e-05      6.74282 
         700      19.3535  6.01483e-06 -4.36189e-05      6.74282 
         700      19.4886  5.60426e-06  -4.2721e-05      6.74283 
         700      19.6242  5.20195e-06 -4.18446e-05      6.74283 
         700      19.7602  4.80846e-06  -4.0991e-05      6.74283 
         700      19.8968  4.42339e-06 -4.01593e-05      6.74283 
         700      20.0337  4.04749e-06 -3.93508e-05      6.74283 
         700      20.1712  3.68024e-06 -3.85641e-05      6.74283 
         700      20.3091  3.32225e-06 -3.78003e-05      6.74283 
         700      20.4475  2.97292e-06 -3.70575e-05      6.74283 
         700      20.5864  2.63243e-06 -3.63357e-05      6.74283 
         700      20.7257  2.30089e-06 -3.56343e-05      6.74283 
         700      20.8655  1.97761e-06 -3.49511e-05      6.74283 
         700      21.0058  1.66289e-06 -3.42859e-05      6.74283 
         700      21.1465  1.35602e-06 -3.36362e-05      6.74283 
         700      21.2877  1.05731e-06 -3.30016e-05      6.74283 
         700      21.4294   7.6615e-07 -3.23795e-05      6.74283 
         700      21.5716  4.82714e-07 -3.17689e-05      6.74283 
         700      21.7142   2.0728e-07 -3.11688e-05      6.74283 
         700      21.8573 -6.03849e-08 -3.05771e-05      6.74283 
         700      22.0008 -3.19438e-07 -2.99937e-05      6.74283 
         700      22.1449 -5.69627e-07  -2.9417e-05      6.74283 
         700      22.2893  -8.0958e-07 -2.88477e-05      6.74283 
         700      22.4344 -1.03832e-06 -2.82851e-05      6.74283 
         700      22.5797  -1.2537e-06 -2.77311e-05      6.74283 
         700      22.7257 -1.45374e-06 -2.71868e-05      6.74283 
         700      22.8721 -1.63534e-06 -2.66552e-05      6.74283 
         700      23.0189 -1.79477e-06 -2.61408e-05      6.74283 
         700      23.1663 -1.99187e-06 -2.56182e-05      6.74283 
         700       23.314 -2.27366e-06 -2.50991e-05      6.74283 
         700      23.4623 -2.55112e-06 -2.46222e-05      6.74283 
         700       23.611 -2.81903e-06 -2.41745e-05      6.74283 
         700      23.7602 -3.07429e-06 -2.37445e-05      6.74283 
         700        23.91 -3.31431e-06 -2.33238e-05      6.74283 
         700        24.06 -3.53752e-06 -2.29066e-05      6.74283 
         700      24.2107 -3.74378e-06 -2.24876e-05      6.74283 
         700      24.3617 -3.93298e-06 -2.20647e-05      6.74283 
         700      24.5133 -4.10628e-06  -2.1636e-05      6.74283 
         700      24.6653 -4.26475e-06  -2.1202e-05      6.74283 
         700      24.8178 -4.41038e-06  -2.0763e-05      6.74283 
         700      24.9708 -4.54506e-06 -2.03209e-05      6.74283 
         700      25.1242 -4.67089e-06 -1.98784e-05      6.74283 
         700      25.2781 -4.79036e-06 -1.94374e-05      6.74283 
         700      25.4324 -4.90555e-06 -1.90014e-05      6.74283 
         700      25.5873 -5.01887e-06 -1.85727e-05      6.74283 
         700      25.7426  -5.1322e-06 -1.81547e-05      6.74283 
         700      25.8984 -5.24759e-06 -1.77492e-05      6.74283 
         700      26.0546 -5.36649e-06  -1.7359e-05      6.74283 
         700      26.2114 -5.49042e-06 -1.69849e-05      6.74283 
         700      26.3686 -5.62034e-06 -1.66283e-05      6.74283 
         700      26.5262 -5.75688e-06 -1.62897e-05      6.74283 
         700      26.6844 -5.90068e-06 -1.59681e-05      6.74283 
         700      26.8429 -6.05167e-06 -1.56627e-05      6.74283 
         700       27.002    -6.21e-06 -1.53712e-05      6.74283 
         700      27.1615 -6.37512e-06 -1.50911e-05      6.74283 
         700      27.3216 -6.46089e-06 -1.48073e-05      6.74283 
         700      27.4821 -6.53968e-06 -1.45241e-05      6.74283 
         700       27.643 -6.62609e-06 -1.42465e-05      6.74283 
         700      27.8044 -6.72122e-06 -1.39767e-05      6.74283 
         700      27.9663 -6.82494e-06  -1.3717e-05      6.74283 
         700      28.1287 -6.93654e-06 -1.34677e-05      6.74283 
         700      28.2914 -7.05415e-06 -1.32296e-05      6.74283 
         700      28.4548 -7.17554e-06 -1.30014e-05      6.74283 
         700      28.6185 -7.29747e-06 -1.27823e-05      6.74283 
         700      28.7828 -7.41657e-06 -1.25698e-05      6.74283 
         700      28.9475 -7.52882e-06 -1.23617e-05      6.74283 
         700      29.1126    -7.63e-06  -1.2155e-05      6.74283 
         700      29.2784 -7.71609e-06 -1.19461e-05      6.74283 
         700      29.4444 -7.78294e-06 -1.17316e-05      6.74283 
         700       29.611 -7.82701e-06 -1.15074e-05      6.74283 
         700       29.778 -7.84522e-06 -1.12703e-05      6.74283 
         700      29.9456 -7.83542e-06 -1.10163e-05      6.74283 
         700      30.1137 -7.79661e-06 -1.07426e-05      6.74283 
         700      30.2821 -7.72933e-06  -1.0447e-05      6.74282 
         700      30.4511 -7.77154e-06 -1.02489e-05      6.74282 
         700      30.6204 -7.98801e-06 -1.02046e-05      6.74282 
         700      30.7903 -8.17145e-06 -1.01301e-05      6.74282 
         700      30.9606  -8.3252e-06 -1.00305e-05      6.74282 
         700      31.1315   -8.453e-06  -9.9099e-06      6.74282 
         700      31.3028 -8.55808e-06 -9.77251e-06      6.74282 
         700      31.4745 -8.64361e-06 -9.62198e-06      6.74282 
         700      31.6468 -8.71277e-06 -9.46122e-06      6.74282 
         700      31.8194  -8.7683e-06 -9.29327e-06      6.74282 
         700      31.9926 -8.81297e-06 -9.12029e-06      6.74282 
         700      32.1662 -8.84915e-06 -8.94467e-06      6.74282 
         700      32.3404 -8.87915e-06 -8.76795e-06      6.74282 
         700      32.5149 -8.90494e-06 -8.59194e-06      6.74282 
         700        32.69 -8.92832e-06 -8.41764e-06      6.74282 
         700      32.8655 -8.95083e-06 -8.24627e-06      6.74282 
         700      33.0414 -8.97373e-06 -8.07882e-06      6.74282 
         700       33.218 -8.99813e-06 -7.91569e-06      6.74282 
         700      33.3948 -9.02479e-06 -7.75765e-06      6.74282 
         700      33.5723 -9.05435e-06 -7.60483e-06      6.74282 
         700        33.75 -9.08711e-06  -7.4577e-06      6.74282 
         700      33.9284 -9.12324e-06 -7.31614e-06      6.74282 
         700      34.1073 -9.16264e-06  -7.1803e-06      6.74282 
         700      34.2865 -9.20502e-06 -7.05023e-06      6.74282 
         700      34.4663 -9.24999e-06 -6.92557e-06      6.74282 
         700      34.6465 -9.29688e-06  -6.8063e-06      6.74282 
         700      34.8272 -9.34506e-06 -6.69197e-06      6.74282 
         700      35.0083 -9.39361e-06 -6.58243e-06      6.74282 
         700        35.19 -9.44172e-06  -6.4771e-06      6.74282 
         700      35.3721 -9.48843e-06 -6.37562e-06      6.74282 
         700      35.5546  -9.5328e-06 -6.27755e-06      6.74282 
         700      35.7377 -9.57403e-06 -6.18216e-06      6.74282 
         700      35.9211  -9.6113e-06 -6.08892e-06      6.74282 
         700      36.1052 -9.64407e-06 -5.99694e-06      6.74282 
         700      36.2895 -9.67189e-06 -5.90549e-06      6.74282 
         700      36.4745 -9.69469e-06 -5.81343e-06      6.74282 
         700      36.6598 -9.71266e-06 -5.71976e-06      6.74282 
         700      36.8457 -9.72647e-06 -5.62302e-06      6.74282 
         700      37.0321 -9.73725e-06 -5.52174e-06      6.74282 
         700      37.2188 -9.74669e-06 -5.41424e-06      6.74282 
         700      37.4062  -9.7572e-06 -5.29829e-06      6.74282 
         700      37.5938 -9.77191e-06 -5.17169e-06      6.74282 
         700      37.7821 -9.79485e-06 -5.03148e-06      6.74282 
         700      37.9707 -9.83097e-06 -4.87471e-06      6.74282 
         700      38.1599 -9.81019e-06  -4.8214e-06      6.74282 
         700      38.3496 -9.78056e-06 -4.78923e-06      6.74282 
         700      38.5396 -9.76324e-06 -4.74041e-06      6.74282 
         700      38.7302 -9.75666e-06 -4.67632e-06      6.74282 
         700      38.9211 -9.75964e-06 -4.59977e-06      6.74282 
         700      39.1127 -9.77132e-06 -4.51466e-06      6.74282 
         700      39.3046   -9.791e-06 -4.42664e-06      6.74281 
         700      39.4971 -9.81817e-06 -4.34265e-06      6.74281 
         700      39.6899 -9.85226e-06 -4.27164e-06      6.74281 
         700      39.8833 -9.89269e-06 -4.22418e-06      6.74281 
         700      40.0772 -9.93856e-06 -4.21303e-06      6.74281 
         700      40.2714 -9.98859e-06   -4.253e-06      6.74281 
         700      40.4663 -1.00411e-05 -4.36134e-06      6.74281 
         700      40.6615 -9.94828e-06 -4.21415e-06      6.74281 
         700      40.8573 -9.85578e-06 -4.01643e-06      6.74281 
         700      41.0534 -9.80595e-06 -3.86207e-06      6.74281 
         700      41.2501  -9.7901e-06 -3.74396e-06      6.74281 
         700      41.4473 -9.80052e-06 -3.65579e-06      6.74281 
         700      41.6448 -9.83022e-06 -3.59161e-06      6.74281 
         700      41.8429 -9.87311e-06 -3.54577e-06      6.74281 
         700      42.0414 -9.92371e-06 -3.51323e-06      6.74281 
         700      42.2405 -9.97745e-06 -3.48928e-06      6.74281 
         700      42.4399 -1.00302e-05 -3.46974e-06      6.74281 
         700      42.6399 -1.00788e-05 -3.45078e-06      6.74281 
         700      42.8404 -1.01205e-05 -3.42909e-06      6.74281 
         700      43.0412 -1.01529e-05  -3.4018e-06      6.74281 
         700      43.2426 -1.01747e-05 -3.36641e-06      6.74281 
         700      43.4444 -1.01845e-05 -3.32097e-06      6.74281 
         700      43.6467 -1.01818e-05 -3.26384e-06      6.74281 
         700      43.8494 -1.01662e-05 -3.19399e-06      6.74281 
         700      44.0527 -1.01377e-05 -3.11062e-06      6.74281 
         700      44.2563 -1.00969e-05 -3.01361e-06      6.74281 
         700      44.4606 -1.00728e-05 -2.93285e-06      6.74281 
         700      44.6653 -1.01265e-05 -2.93327e-06      6.74281 
         700      44.8704 -1.01665e-05 -2.92155e-06      6.74281 
         700       45.076 -1.01942e-05 -2.89949e-06      6.74281 
         700       45.282  -1.0211e-05 -2.86884e-06      6.74281 
         700      45.4886 -1.02182e-05  -2.8312e-06      6.74281 
         700      45.6955 -1.02173e-05 -2.78814e-06      6.74281 
         700       45.903 -1.02096e-05 -2.74101e-06      6.74281 
         700      46.1111 -1.01966e-05 -2.69116e-06       6.7428 
         700      46.3194 -1.01798e-05 -2.63982e-06       6.7428 
         700      46.5283 -1.01602e-05 -2.58799e-06       6.7428 
         700      46.7376 -1.01393e-05 -2.53671e-06       6.7428 
         700      46.9475 -1.01182e-05 -2.48674e-06       6.7428 
         700      47.1577  -1.0098e-05 -2.43886e-06       6.7428 
         700      47.3685 -1.00795e-05 -2.39361e-06       6.7428 
         700      47.5798 -1.00636e-05 -2.35151e-06       6.7428 
         700      47.7914  -1.0051e-05 -2.31294e-06       6.7428 
         700      48.0037 -1.00421e-05 -2.27811e-06       6.7428 