Variables = x, y, u, v, p

Zone, I=800, F=POINT
         100            0 -2.15331e-20  4.31258e-25      49.6235 
         100     0.000234 -1.07432e-06  2.16704e-11      49.6235 
         100     0.000939 -4.13648e-06  8.52104e-11      49.6235 
         100     0.002113 -8.69585e-06  1.85138e-10      49.6235 
         100     0.003759 -1.40892e-05  3.12413e-10      49.6235 
         100     0.005872 -1.95975e-05  4.51893e-10      49.6235 
         100     0.008457 -2.46709e-05  5.80085e-10      49.6235 
         100      0.01151 -2.90074e-05  6.57265e-10      49.6235 
         100     0.015036 -3.26453e-05  6.17943e-10      49.6235 
         100     0.019031 -3.58947e-05  3.56527e-10      49.6235 
         100     0.023493 -3.92163e-05 -2.88365e-10      49.6235 
         100     0.028429 -4.30269e-05 -1.55323e-09      49.6235 
         100     0.033831 -4.74903e-05 -3.75906e-09      49.6235 
         100     0.039706 -5.24374e-05 -7.32804e-09      49.6235 
         100     0.046047 -5.74086e-05 -1.27711e-08      49.6235 
         100     0.052863 -6.19476e-05 -2.06994e-08      49.6235 
         100      0.06015 -6.59848e-05 -3.17881e-08      49.6235 
         100       0.0679 -7.01285e-05 -4.67679e-08      49.6235 
         100     0.076126 -7.52619e-05 -6.65106e-08      49.6235 
         100     0.084816  -8.0369e-05 -9.20078e-08      49.6235 
         100     0.093982 -8.44764e-05 -1.24107e-07      49.6235 
         100     0.103611 -8.88157e-05  -1.6383e-07      49.6235 
         100     0.113718  -9.3171e-05 -2.12288e-07      49.6235 
         100     0.124286 -9.73726e-05 -2.70434e-07      49.6235 
         100     0.135333 -0.000101331 -3.39371e-07      49.6235 
         100      0.14685 -0.000105004 -4.20023e-07      49.6235 
         100     0.158827 -0.000108399 -5.13229e-07      49.6235 
         100     0.171284 -0.000111547 -6.20014e-07      49.6235 
         100     0.184201 -0.000114462 -7.41025e-07      49.6235 
         100     0.197599 -0.000117134 -8.77214e-07      49.6235 
         100     0.211455  -0.00011951 -1.02902e-06      49.6235 
         100     0.225792 -0.000121549 -1.19724e-06      49.6235 
         100       0.2406 -0.000123313 -1.38211e-06      49.6235 
         100     0.255865 -0.000124971 -1.58356e-06      49.6235 
         100     0.271613 -0.000126291 -1.80301e-06      49.6235 
         100     0.287818 -0.000127419 -2.04017e-06      49.6235 
         100     0.304506 -0.000128372 -2.29517e-06      49.6235 
         100      0.32165 -0.000129165 -2.56748e-06      49.6235 
         100     0.339278 -0.000129819  -2.8575e-06      49.6235 
         100     0.357377 -0.000130354 -3.16505e-06      49.6235 
         100      0.37593 -0.000130792 -3.48984e-06      49.6235 
         100     0.394968 -0.000131157 -3.83238e-06      49.6235 
         100     0.414461 -0.000131469 -4.19196e-06      49.6235 
         100      0.43444 -0.000131748 -4.56884e-06      49.6235 
         100     0.454872 -0.000132011 -4.96185e-06      49.6235 
         100     0.475791 -0.000132271 -5.37088e-06      49.6235 
         100     0.497163 -0.000132538 -5.79429e-06      49.6235 
         100     0.519021 -0.000132816 -6.23165e-06      49.6235 
         100      0.54135 -0.000133106 -6.68165e-06      49.6235 
         100     0.564131 -0.000133406 -7.14328e-06      49.6235 
         100       0.5874  -0.00013371 -7.61751e-06      49.6235 
         100     0.611121 -0.000134009 -8.10509e-06      49.6235 
         100      0.63533  -0.00013426 -8.59853e-06      49.6235 
         100      0.65999 -0.000134504 -9.09304e-06      49.6235 
         100     0.685139 -0.000134695 -9.58945e-06      49.6235 
         100     0.710759 -0.000134789 -1.00869e-05      49.6235 
         100     0.736828 -0.000134748 -1.05841e-05      49.6235 
         100     0.763387 -0.000134536 -1.10802e-05      49.6235 
         100     0.790396 -0.000134124 -1.15726e-05      49.6235 
         100     0.817896 -0.000133486 -1.20601e-05      49.6235 
         100     0.845843 -0.000132603 -1.25393e-05      49.6235 
         100     0.874283 -0.000131463 -1.30086e-05      49.6235 
         100      0.90317 -0.000130058 -1.34649e-05      49.6235 
         100     0.932551 -0.000128384 -1.39065e-05      49.6235 
         100     0.962401 -0.000126448 -1.43312e-05      49.6235 
         100     0.992697 -0.000124259  -1.4737e-05      49.6235 
         100      1.02349 -0.000121828 -1.51236e-05      49.6235 
         100      1.05472 -0.000119177 -1.54899e-05      49.6235 
         100      1.08645 -0.000116325 -1.58368e-05      49.6235 
         100      1.11863 -0.000113301 -1.61647e-05      49.6235 
         100       1.1513 -0.000110128 -1.64757e-05      49.6235 
         100      1.18444 -0.000106836 -1.67718e-05      49.6235 
         100      1.21802 -0.000103456  -1.7055e-05      49.6235 
         100      1.25211 -0.000100011 -1.73282e-05      49.6235 
         100      1.28663 -9.65307e-05 -1.75928e-05      49.6235 
         100      1.32165  -9.3032e-05 -1.78499e-05      49.6235 
         100      1.35712 -8.95382e-05 -1.80978e-05      49.6235 
         100      1.39308 -8.60562e-05 -1.83324e-05      49.6235 
         100      1.42951 -8.25949e-05 -1.85446e-05      49.6235 
         100      1.46638 -7.91567e-05 -1.87192e-05      49.6235 
         100      1.50375 -7.57286e-05 -1.88336e-05      49.6235 
         100      1.54156 -7.22379e-05 -1.90044e-05      49.6235 
         100      1.57987 -6.86854e-05  -1.9175e-05      49.6235 
         100      1.61863 -6.50903e-05 -1.93341e-05      49.6235 
         100      1.65788 -6.14574e-05 -1.94794e-05      49.6235 
         100      1.69757 -5.78024e-05 -1.96083e-05      49.6235 
         100      1.73776 -5.41284e-05  -1.9719e-05      49.6235 
         100      1.77842 -5.04466e-05 -1.98099e-05      49.6235 
         100      1.81952  -4.6768e-05 -1.98798e-05      49.6235 
         100      1.86113 -4.30938e-05 -1.99281e-05      49.6235 
         100      1.90316 -3.94368e-05 -1.99543e-05      49.6235 
         100      1.94571 -3.57976e-05 -1.99584e-05      49.6235 
         100      1.98869  -3.2188e-05 -1.99409e-05      49.6235 
         100      2.03217  -2.8608e-05 -1.99023e-05      49.6235 
         100      2.07612 -2.50663e-05 -1.98435e-05      49.6235 
         100      2.12051 -2.15712e-05  -1.9766e-05      49.6235 
         100       2.1654 -1.81229e-05 -1.96711e-05      49.6235 
         100      2.21073 -1.47327e-05 -1.95605e-05      49.6235 
         100      2.25656 -1.14014e-05 -1.94359e-05      49.6235 
         100      2.30283 -8.14086e-06 -1.92994e-05      49.6235 
         100       2.3496 -4.95291e-06 -1.91528e-05      49.6234 
         100      2.39685 -1.84774e-06 -1.89981e-05      49.6234 
         100      2.44452  1.16394e-06 -1.88374e-05      49.6234 
         100      2.49271   4.0779e-06 -1.86722e-05      49.6234 
         100      2.54132  6.87984e-06 -1.85045e-05      49.6234 
         100      2.59044   9.5637e-06 -1.83354e-05      49.6234 
         100         2.64   1.2114e-05 -1.81665e-05      49.6234 
         100      2.69006  1.45228e-05 -1.79984e-05      49.6234 
         100      2.74056  1.67738e-05 -1.78318e-05      49.6234 
         100      2.79156  1.88577e-05 -1.76668e-05      49.6234 
         100      2.84304  2.07597e-05 -1.75032e-05      49.6234 
         100      2.89494  2.24657e-05 -1.73405e-05      49.6234 
         100      2.94735  2.39659e-05 -1.71774e-05      49.6234 
         100       3.0002  2.52467e-05 -1.70126e-05      49.6234 
         100      3.05355  2.63003e-05  -1.6844e-05      49.6234 
         100      3.10733  2.71178e-05 -1.66696e-05      49.6234 
         100      3.16163  2.76962e-05 -1.64866e-05      49.6234 
         100      3.21639  2.80346e-05 -1.62923e-05      49.6234 
         100      3.27158   2.8138e-05 -1.60842e-05      49.6234 
         100      3.32729  2.80185e-05  -1.5859e-05      49.6233 
         100      3.38342   2.7696e-05 -1.56147e-05      49.6233 
         100      3.44007  2.71995e-05 -1.53488e-05      49.6233 
         100      3.49714  2.65713e-05 -1.50603e-05      49.6233 
         100      3.55472  2.58657e-05 -1.47485e-05      49.6233 
         100      3.61273  2.51556e-05 -1.44149e-05      49.6233 
         100      3.67125   2.4531e-05  -1.4062e-05      49.6233 
         100      3.73025   2.4106e-05 -1.36952e-05      49.6233 
         100      3.78967  2.36654e-05 -1.32217e-05      49.6233 
         100      3.84961   2.3098e-05 -1.27807e-05      49.6233 
         100      3.90996  2.25188e-05 -1.23918e-05      49.6233 
         100      3.97084  2.19327e-05 -1.20199e-05      49.6233 
         100      4.03214  2.13443e-05 -1.16484e-05      49.6233 
         100      4.09395  2.07541e-05 -1.12721e-05      49.6232 
         100      4.15624  2.01633e-05 -1.08947e-05      49.6232 
         100      4.21895  1.95727e-05 -1.05239e-05      49.6232 
         100      4.28217  1.89813e-05 -1.01674e-05      49.6232 
         100      4.34582  1.83898e-05 -9.83221e-06      49.6232 
         100      4.40998    1.781e-05 -9.49893e-06      49.6232 
         100      4.47457  1.72439e-05 -9.16778e-06      49.6232 
         100      4.53968  1.66828e-05 -8.85383e-06      49.6232 
         100      4.60525  1.61276e-05 -8.55594e-06      49.6232 
         100      4.67125  1.55784e-05 -8.27067e-06      49.6232 
         100      4.73777  1.50346e-05 -7.99139e-06      49.6231 
         100       4.8047  1.44993e-05 -7.70991e-06      49.6231 
         100      4.87216  1.39769e-05 -7.41487e-06      49.6231 
         100      4.94003  1.34592e-05 -7.16364e-06      49.6231 
         100      5.00843  1.29447e-05 -6.92928e-06      49.6231 
         100      5.07724  1.24464e-05 -6.67223e-06      49.6231 
         100      5.14658  1.19578e-05 -6.41956e-06      49.6231 
         100      5.21639  1.14738e-05 -6.18462e-06      49.6231 
         100      5.28661  1.09892e-05 -5.96896e-06       49.623 
         100      5.35736  1.04974e-05 -5.76462e-06       49.623 
         100      5.42852   9.9933e-06 -5.55851e-06       49.623 
         100      5.50021  9.53147e-06 -5.36799e-06       49.623 
         100      5.57231  9.06719e-06  -5.1935e-06       49.623 
         100      5.64493  8.59175e-06 -5.02871e-06       49.623 
         100      5.71803  8.11039e-06 -4.87039e-06       49.623 
         100      5.79154  7.62866e-06 -4.71497e-06      49.6229 
         100      5.86558  7.14979e-06  -4.5596e-06      49.6229 
         100      5.94003  6.67583e-06 -4.40532e-06      49.6229 
         100      6.01501  6.20259e-06 -4.25956e-06      49.6229 
         100       6.0904   5.7306e-06 -4.12499e-06      49.6229 
         100      6.16632  5.26792e-06 -4.00178e-06      49.6229 
         100      6.24271  4.79911e-06 -3.90449e-06      49.6228 
         100       6.3195  4.33122e-06 -3.80702e-06      49.6228 
         100      6.39683  3.86629e-06 -3.69928e-06      49.6228 
         100      6.47457   3.4056e-06 -3.58241e-06      49.6228 
         100      6.55284  2.94794e-06 -3.46335e-06      49.6228 
         100      6.63152  2.49356e-06 -3.35141e-06      49.6227 
         100      6.71073   2.0419e-06 -3.25428e-06      49.6227 
         100      6.79034  1.59464e-06 -3.17636e-06      49.6227 
         100      6.87049  1.15262e-06 -3.11685e-06      49.6227 
         100      6.95111  7.17546e-07 -3.07016e-06      49.6227 
         100      7.03214  2.89496e-07 -3.02709e-06      49.6226 
         100       7.1137 -1.36122e-07  -2.9776e-06      49.6226 
         100      7.19566 -5.68945e-07 -2.91577e-06      49.6226 
         100      7.27816 -9.50131e-07 -2.82928e-06      49.6226 
         100      7.36106 -1.33411e-06  -2.7268e-06      49.6226 
         100      7.44451   -1.719e-06 -2.66094e-06      49.6225 
         100      7.52842 -2.07555e-06 -2.69468e-06      49.6225 
         100      7.61273 -2.40854e-06 -2.76894e-06      49.6225 
         100      7.69758 -2.82863e-06 -2.55522e-06      49.6225 
         100      7.78283 -3.19843e-06 -2.46066e-06      49.6224 
         100      7.86862 -3.53513e-06 -2.43753e-06      49.6224 
         100      7.95481 -3.85128e-06 -2.45056e-06      49.6224 
         100      8.04155 -4.15721e-06 -2.47505e-06      49.6224 
         100      8.12868 -4.45928e-06 -2.49534e-06      49.6223 
         100      8.21635 -4.76215e-06  -2.5033e-06      49.6223 
         100      8.30449 -5.06734e-06  -2.4967e-06      49.6223 
         100      8.39303 -5.37438e-06 -2.47788e-06      49.6223 
         100      8.48211  -5.6819e-06 -2.45216e-06      49.6222 
         100      8.57159 -5.98637e-06 -2.42671e-06      49.6222 
         100      8.66161 -6.28448e-06 -2.40911e-06      49.6222 
         100      8.75203 -6.57173e-06 -2.40641e-06      49.6221 
         100      8.84299 -6.84485e-06 -2.42408e-06      49.6221 
         100      8.93443 -7.10075e-06 -2.46522e-06      49.6221 
         100      9.02626 -7.33786e-06 -2.52988e-06      49.6221 
         100      9.11863 -7.55734e-06 -2.61488e-06       49.622 
         100      9.21139 -7.76244e-06 -2.71322e-06       49.622 
         100      9.30471 -7.96068e-06 -2.81474e-06       49.622 
         100      9.39841 -8.16332e-06 -2.90586e-06      49.6219 
         100      9.49267 -8.38745e-06 -2.97096e-06      49.6219 
         100      9.58739 -8.65581e-06 -2.99283e-06      49.6219 
         100      9.68251 -8.99798e-06 -2.95456e-06      49.6218 
         100      9.77817  -9.2037e-06 -3.02018e-06      49.6218 
         100      9.87422 -9.35342e-06 -3.09948e-06      49.6218 
         100      9.97083 -9.53971e-06 -3.17143e-06      49.6217 
         100      10.0678 -9.78489e-06 -3.29445e-06      49.6217 
         100      10.1654 -1.01028e-05 -3.46268e-06      49.6216 
         100      10.2633 -1.03819e-05 -3.35342e-06      49.6216 
         100      10.3618 -1.06435e-05 -3.32245e-06      49.6216 
         100      10.4607 -1.08869e-05 -3.33721e-06      49.6215 
         100      10.5601  -1.1112e-05 -3.37291e-06      49.6215 
         100        10.66 -1.13197e-05 -3.41182e-06      49.6215 
         100      10.7603 -1.15106e-05 -3.44211e-06      49.6214 
         100      10.8611 -1.16862e-05 -3.45719e-06      49.6214 
         100      10.9623 -1.18479e-05 -3.45454e-06      49.6213 
         100      11.0641 -1.19982e-05 -3.43493e-06      49.6213 
         100      11.1663 -1.21395e-05  -3.4017e-06      49.6213 
         100       11.269 -1.23538e-05 -3.40242e-06      49.6212 
         100      11.3721 -1.25496e-05 -3.39764e-06      49.6212 
         100      11.4757  -1.2726e-05  -3.3902e-06      49.6211 
         100      11.5798 -1.28833e-05 -3.38247e-06      49.6211 
         100      11.6844 -1.30223e-05  -3.3763e-06       49.621 
         100      11.7894 -1.31452e-05 -3.37301e-06       49.621 
         100       11.895 -1.32547e-05 -3.37335e-06      49.6209 
         100      12.0009 -1.33542e-05 -3.37747e-06      49.6209 
         100      12.1073  -1.3448e-05   -3.385e-06      49.6208 
         100      12.2142 -1.35405e-05 -3.39499e-06      49.6208 
         100      12.3216 -1.36363e-05 -3.40608e-06      49.6208 
         100      12.4294 -1.37396e-05 -3.41642e-06      49.6207 
         100      12.5378 -1.38539e-05 -3.42392e-06      49.6207 
         100      12.6465 -1.39812e-05 -3.42625e-06      49.6206 
         100      12.7558 -1.41219e-05 -3.42105e-06      49.6206 
         100      12.8656 -1.42734e-05  -3.4061e-06      49.6205 
         100      12.9757 -1.44297e-05 -3.37955e-06      49.6204 
         100      13.0864 -1.45807e-05 -3.34007e-06      49.6204 
         100      13.1975 -1.47105e-05  -3.2873e-06      49.6203 
         100      13.3092 -1.47792e-05 -3.27805e-06      49.6203 
         100      13.4212 -1.48194e-05 -3.27977e-06      49.6202 
         100      13.5338 -1.48695e-05 -3.22698e-06      49.6202 
         100      13.6468 -1.49255e-05 -3.14572e-06      49.6201 
         100      13.7603 -1.49858e-05 -3.05639e-06      49.6201 
         100      13.8743 -1.50511e-05 -2.97499e-06        49.62 
         100      13.9886 -1.51246e-05  -2.9153e-06      49.6199 
         100      14.1036 -1.52124e-05 -2.88996e-06      49.6199 
         100      14.2189 -1.53236e-05 -2.91227e-06      49.6198 
         100      14.3348 -1.54708e-05 -2.99756e-06      49.6198 
         100       14.451 -1.55124e-05 -2.96628e-06      49.6197 
         100      14.5678 -1.55003e-05  -2.8771e-06      49.6196 
         100      14.6851 -1.55051e-05 -2.81114e-06      49.6196 
         100      14.8028 -1.55284e-05 -2.76488e-06      49.6195 
         100       14.921 -1.55696e-05 -2.73392e-06      49.6194 
         100      15.0396 -1.56264e-05 -2.71356e-06      49.6194 
         100      15.1588 -1.56954e-05 -2.69891e-06      49.6193 
         100      15.2783 -1.57719e-05 -2.68534e-06      49.6193 
         100      15.3984 -1.58511e-05 -2.66862e-06      49.6192 
         100       15.519 -1.59276e-05 -2.64522e-06      49.6191 
         100        15.64 -1.59966e-05 -2.61243e-06       49.619 
         100      15.7615 -1.60539e-05 -2.56835e-06       49.619 
         100      15.8834  -1.6096e-05 -2.51216e-06      49.6189 
         100      16.0058 -1.61213e-05 -2.44377e-06      49.6188 
         100      16.1286 -1.61297e-05 -2.36411e-06      49.6188 
         100       16.252 -1.61233e-05 -2.27445e-06      49.6187 
         100      16.3759 -1.61068e-05 -2.17664e-06      49.6186 
         100      16.5002 -1.60877e-05  -2.0725e-06      49.6185 
         100       16.625 -1.60768e-05 -1.96316e-06      49.6185 
         100      16.7501  -1.6111e-05 -1.88198e-06      49.6184 
         100      16.8759 -1.61811e-05 -1.83011e-06      49.6183 
         100       17.002 -1.62402e-05 -1.75863e-06      49.6182 
         100      17.1287 -1.62908e-05 -1.67773e-06      49.6182 
         100      17.2557  -1.6335e-05 -1.59453e-06      49.6181 
         100      17.3834 -1.63743e-05 -1.51322e-06       49.618 
         100      17.5115 -1.64097e-05 -1.43598e-06      49.6179 
         100      17.6399 -1.64417e-05 -1.36334e-06      49.6178 
         100       17.769 -1.64705e-05 -1.29447e-06      49.6177 
         100      17.8984  -1.6496e-05 -1.22803e-06      49.6177 
         100      18.0284 -1.65177e-05 -1.16216e-06      49.6176 
         100      18.1587 -1.65352e-05 -1.09523e-06      49.6175 
         100      18.2896 -1.65477e-05 -1.02575e-06      49.6174 
         100       18.421 -1.65547e-05  -9.5302e-07      49.6173 
         100      18.5528 -1.65558e-05 -8.77159e-07      49.6172 
         100      18.6851 -1.65508e-05 -7.99079e-07      49.6171 
         100      18.8178 -1.65402e-05 -7.20973e-07       49.617 
         100      18.9511  -1.6525e-05 -6.45831e-07       49.617 
         100      19.0847 -1.65069e-05 -5.77847e-07      49.6169 
         100      19.2189 -1.64889e-05 -5.21796e-07      49.6168 
         100      19.3535 -1.64752e-05 -4.83197e-07      49.6167 
         100      19.4886 -1.64713e-05 -4.67622e-07      49.6166 
         100      19.6242 -1.64847e-05 -4.80496e-07      49.6165 
         100      19.7602 -1.65249e-05 -5.26342e-07      49.6164 
         100      19.8968 -1.65773e-05 -4.91715e-07      49.6163 
         100      20.0337 -1.66097e-05  -3.8269e-07      49.6162 
         100      20.1712 -1.66471e-05 -3.56093e-07      49.6161 
         100      20.3091 -1.66853e-05 -3.84641e-07       49.616 
         100      20.4475  -1.6711e-05  -4.2814e-07      49.6159 
         100      20.5864 -1.67002e-05 -4.31496e-07      49.6158 
         100      20.7257 -1.66168e-05 -3.22958e-07      49.6157 
         100      20.8655 -1.64114e-05 -1.16257e-08      49.6156 
         100      21.0058 -1.66713e-05 -2.42564e-07      49.6155 
         100      21.1465  -1.6962e-05 -5.37212e-07      49.6154 
         100      21.2877 -1.70975e-05 -6.58828e-07      49.6153 
         100      21.4294 -1.71294e-05 -6.68233e-07      49.6152 
         100      21.5716 -1.70997e-05 -6.16323e-07       49.615 
         100      21.7142  -1.7042e-05 -5.45237e-07      49.6149 
         100      21.8573 -1.69815e-05 -4.88634e-07      49.6148 
         100      22.0008 -1.69363e-05   -4.728e-07      49.6147 
         100      22.1449 -1.69172e-05  -5.1716e-07      49.6146 
         100      22.2893 -1.69287e-05 -6.35125e-07      49.6145 
         100      22.4344 -1.69697e-05 -8.35295e-07      49.6144 
         100      22.5797 -1.70338e-05  -1.1216e-06      49.6142 
         100      22.7257 -1.71103e-05 -1.49555e-06      49.6141 
         100      22.8721 -1.70982e-05 -1.31874e-06       49.614 
         100      23.0189 -1.70903e-05 -1.12514e-06      49.6139 
         100      23.1663 -1.70875e-05 -9.63244e-07      49.6138 
         100       23.314 -1.70847e-05 -8.36148e-07      49.6136 
         100      23.4623 -1.70779e-05 -7.44478e-07      49.6135 
         100       23.611 -1.70645e-05 -6.87241e-07      49.6134 
         100      23.7602 -1.70436e-05 -6.61368e-07      49.6133 
         100        23.91 -1.70155e-05 -6.62319e-07      49.6131 
         100        24.06 -1.69822e-05 -6.84178e-07       49.613 
         100      24.2107 -1.69466e-05 -7.20236e-07      49.6129 
         100      24.3617 -1.69128e-05 -7.63382e-07      49.6127 
         100      24.5133 -1.68853e-05 -8.06981e-07      49.6126 
         100      24.6653 -1.68688e-05 -8.45414e-07      49.6125 
         100      24.8178 -1.68675e-05 -8.75265e-07      49.6124 
         100      24.9708 -1.68846e-05 -8.96172e-07      49.6122 
         100      25.1242 -1.69212e-05 -9.12164e-07      49.6121 
         100      25.2781 -1.69753e-05 -9.33053e-07      49.6119 
         100      25.4324 -1.70413e-05 -9.75854e-07      49.6118 
         100      25.5873 -1.71081e-05  -1.0667e-06      49.6117 
         100      25.7426 -1.71491e-05  -1.1659e-06      49.6115 
         100      25.8984 -1.71558e-05 -1.09812e-06      49.6114 
         100      26.0546 -1.71714e-05 -1.06556e-06      49.6112 
         100      26.2114 -1.71966e-05 -1.05663e-06      49.6111 
         100      26.3686  -1.7231e-05 -1.06234e-06      49.6109 
         100      26.5262 -1.72733e-05  -1.0758e-06      49.6108 
         100      26.6844 -1.73217e-05 -1.09205e-06      49.6107 
         100      26.8429 -1.73736e-05 -1.10772e-06      49.6105 
         100       27.002 -1.74264e-05 -1.12084e-06      49.6104 
         100      27.1615 -1.74769e-05 -1.13049e-06      49.6102 
         100      27.3216 -1.75225e-05 -1.13668e-06        49.61 
         100      27.4821 -1.75602e-05 -1.14003e-06      49.6099 
         100       27.643 -1.75877e-05 -1.14164e-06      49.6097 
         100      27.8044  -1.7603e-05 -1.14287e-06      49.6096 
         100      27.9663 -1.76046e-05  -1.1452e-06      49.6094 
         100      28.1287 -1.75919e-05 -1.15006e-06      49.6093 
         100      28.2914 -1.75647e-05 -1.15876e-06      49.6091 
         100      28.4548 -1.75239e-05 -1.17236e-06      49.6089 
         100      28.6185 -1.74713e-05 -1.19161e-06      49.6088 
         100      28.7828 -1.74095e-05 -1.21697e-06      49.6086 
         100      28.9475 -1.73388e-05 -1.12637e-06      49.6084 
         100      29.1126 -1.72947e-05 -1.01072e-06      49.6083 
         100      29.2784 -1.72826e-05 -9.02326e-07      49.6081 
         100      29.4444 -1.73003e-05 -8.06775e-07      49.6079 
         100       29.611 -1.73418e-05 -7.28562e-07      49.6078 
         100       29.778 -1.73984e-05 -6.71322e-07      49.6076 
         100      29.9456 -1.74595e-05 -6.37086e-07      49.6074 
         100      30.1137 -1.75139e-05 -6.26506e-07      49.6073 
         100      30.2821 -1.75512e-05 -6.38646e-07      49.6071 
         100      30.4511 -1.75637e-05 -6.71251e-07      49.6069 
         100      30.6204 -1.75483e-05 -7.20953e-07      49.6067 
         100      30.7903 -1.75092e-05 -7.83943e-07      49.6065 
         100      30.9606 -1.74604e-05 -8.56314e-07      49.6064 
         100      31.1315 -1.74285e-05 -9.35283e-07      49.6062 
         100      31.3028 -1.74567e-05 -1.01983e-06       49.606 
         100      31.4745 -1.76079e-05 -1.11207e-06      49.6058 
         100      31.6468 -1.77301e-05 -1.07433e-06      49.6056 
         100      31.8194 -1.76885e-05 -1.01321e-06      49.6054 
         100      31.9926 -1.76248e-05 -1.05147e-06      49.6052 
         100      32.1662 -1.75879e-05 -1.17436e-06      49.6051 
         100      32.3404 -1.76181e-05  -1.3338e-06      49.6049 
         100      32.5149 -1.77471e-05  -1.4466e-06      49.6047 
         100        32.69 -1.79977e-05  -1.3938e-06      49.6045 
         100      32.8655 -1.79367e-05  -1.3867e-06      49.6043 
         100      33.0414 -1.77212e-05 -1.48208e-06      49.6041 
         100       33.218 -1.75938e-05 -1.53311e-06      49.6039 
         100      33.3948 -1.75309e-05 -1.55088e-06      49.6037 
         100      33.5723 -1.75127e-05 -1.54485e-06      49.6035 
         100        33.75 -1.75231e-05 -1.52288e-06      49.6033 
         100      33.9284 -1.75494e-05 -1.49132e-06      49.6031 
         100      34.1073 -1.75818e-05 -1.45527e-06      49.6029 
         100      34.2865 -1.76128e-05 -1.41864e-06      49.6027 
         100      34.4663 -1.76375e-05  -1.3842e-06      49.6024 
         100      34.6465 -1.76528e-05  -1.3539e-06      49.6022 
         100      34.8272 -1.76573e-05 -1.32877e-06       49.602 
         100      35.0083 -1.76507e-05 -1.30925e-06      49.6018 
         100        35.19 -1.76339e-05 -1.29515e-06      49.6016 
         100      35.3721 -1.76087e-05 -1.28586e-06      49.6014 
         100      35.5546 -1.75774e-05  -1.2804e-06      49.6012 
         100      35.7377 -1.75424e-05 -1.27756e-06      49.6009 
         100      35.9211 -1.75064e-05 -1.27596e-06      49.6007 
         100      36.1052 -1.74721e-05 -1.27421e-06      49.6005 
         100      36.2895 -1.74418e-05  -1.2709e-06      49.6003 
         100      36.4745 -1.74176e-05 -1.26478e-06      49.6001 
         100      36.6598 -1.74009e-05 -1.25477e-06      49.5998 
         100      36.8457 -1.73928e-05 -1.24001e-06      49.5996 
         100      37.0321 -1.73937e-05 -1.21998e-06      49.5994 
         100      37.2188 -1.74034e-05 -1.19452e-06      49.5991 
         100      37.4062  -1.7421e-05 -1.16381e-06      49.5989 
         100      37.5938 -1.74451e-05 -1.12854e-06      49.5987 
         100      37.7821  -1.7474e-05 -1.08972e-06      49.5984 
         100      37.9707 -1.75055e-05 -1.04893e-06      49.5982 
         100      38.1599 -1.75371e-05 -1.00807e-06       49.598 
         100      38.3496 -1.75666e-05 -9.69561e-07      49.5977 
         100      38.5396  -1.7592e-05 -9.36208e-07      49.5975 
         100      38.7302 -1.76118e-05 -9.11095e-07      49.5972 
         100      38.9211 -1.76254e-05 -8.97691e-07       49.597 
         100      39.1127 -1.76338e-05 -8.99633e-07      49.5968 
         100      39.3046 -1.76396e-05 -9.20708e-07      49.5965 
         100      39.4971 -1.76476e-05 -9.64782e-07      49.5963 
         100      39.6899 -1.76656e-05 -1.03552e-06       49.596 
         100      39.8833 -1.77049e-05 -1.13657e-06      49.5958 
         100      40.0772 -1.77809e-05 -1.27103e-06      49.5955 
         100      40.2714 -1.79139e-05 -1.44134e-06      49.5953 
         100      40.4663 -1.81303e-05 -1.64962e-06       49.595 
         100      40.6615 -1.77074e-05  -1.6507e-06      49.5947 
         100      40.8573 -1.77896e-05 -1.51177e-06      49.5945 
         100      41.0534 -1.78313e-05 -1.37391e-06      49.5942 
         100      41.2501 -1.78357e-05  -1.2441e-06       49.594 
         100      41.4473 -1.77453e-05 -1.24356e-06      49.5937 
         100      41.6448 -1.76531e-05 -1.28723e-06      49.5934 
         100      41.8429  -1.7575e-05 -1.34439e-06      49.5932 
         100      42.0414 -1.75109e-05 -1.40684e-06      49.5929 
         100      42.2405 -1.74601e-05 -1.46851e-06      49.5926 
         100      42.4399 -1.74218e-05 -1.52488e-06      49.5924 
         100      42.6399 -1.73948e-05 -1.57304e-06      49.5921 
         100      42.8404 -1.73779e-05  -1.6112e-06      49.5918 
         100      43.0412 -1.73696e-05 -1.63859e-06      49.5915 
         100      43.2426 -1.73684e-05 -1.65534e-06      49.5913 
         100      43.4444 -1.73729e-05 -1.66209e-06       49.591 
         100      43.6467 -1.73817e-05 -1.65997e-06      49.5907 
         100      43.8494 -1.73931e-05 -1.65037e-06      49.5904 
         100      44.0527 -1.74061e-05  -1.6348e-06      49.5901 
         100      44.2563 -1.74192e-05 -1.61481e-06      49.5899 
         100      44.4606 -1.74315e-05 -1.59177e-06      49.5896 
         100      44.6653  -1.7442e-05 -1.56693e-06      49.5893 
         100      44.8704 -1.74501e-05 -1.54127e-06       49.589 
         100       45.076 -1.74553e-05 -1.51541e-06      49.5887 
         100       45.282 -1.74574e-05 -1.48973e-06      49.5884 
         100      45.4886 -1.74562e-05 -1.46419e-06      49.5881 
         100      45.6955 -1.74521e-05 -1.43856e-06      49.5878 
         100       45.903 -1.74455e-05 -1.41227e-06      49.5875 
         100      46.1111 -1.74369e-05 -1.38467e-06      49.5872 
         100      46.3194 -1.74273e-05 -1.35507e-06      49.5869 
         100      46.5283 -1.74178e-05 -1.32283e-06      49.5866 
         100      46.7376 -1.74095e-05 -1.28768e-06      49.5863 
         100      46.9475 -1.74037e-05 -1.24972e-06       49.586 
         100      47.1577  -1.7402e-05 -1.20993e-06      49.5857 
         100      47.3685 -1.74056e-05 -1.17018e-06      49.5854 
         100      47.5798 -1.74161e-05 -1.13377e-06      49.5851 
         100      47.7914 -1.74347e-05 -1.10569e-06      49.5848 
         100      48.0037 -1.74627e-05 -1.09296e-06      49.5845 