Variables = x, y, u, v, p

Zone, I=800, F=POINT
         -10            0  1.31632e-19  2.31287e-24      52.6701 
         -10     0.000234  6.51997e-06  1.09804e-10      52.6701 
         -10     0.000939  2.45502e-05  3.54398e-10      52.6701 
         -10     0.002113  4.96429e-05  4.79534e-10      52.6701 
         -10     0.003759  7.58882e-05  7.83848e-11      52.6701 
         -10     0.005872  9.73568e-05 -1.38546e-09      52.6701 
         -10     0.008457   0.00011003 -4.56082e-09      52.6701 
         -10      0.01151  0.000112765 -1.01739e-08      52.6701 
         -10     0.015036  0.000107679 -1.90343e-08      52.6701 
         -10     0.019031  9.93232e-05 -3.19905e-08      52.6701 
         -10     0.023493  9.29292e-05 -4.99411e-08      52.6701 
         -10     0.028429  9.21848e-05 -7.38755e-08      52.6701 
         -10     0.033831  9.74366e-05 -1.04759e-07      52.6701 
         -10     0.039706  0.000105238 -1.43661e-07      52.6701 
         -10     0.046047   0.00011007 -1.91553e-07      52.6701 
         -10     0.052863  0.000108311 -2.49456e-07      52.6701 
         -10      0.06015  0.000102758 -3.18173e-07      52.6701 
         -10       0.0679  0.000103327 -3.98293e-07      52.6701 
         -10     0.076126  0.000114823 -4.90547e-07      52.6701 
         -10     0.084816  0.000107561 -5.95553e-07      52.6701 
         -10     0.093982  0.000112807 -7.13449e-07      52.6701 
         -10     0.103611  0.000115804 -8.44347e-07        52.67 
         -10     0.113718  0.000117771  -9.8854e-07        52.67 
         -10     0.124286  0.000119558 -1.14564e-06        52.67 
         -10     0.135333  0.000121629 -1.31556e-06        52.67 
         -10      0.14685  0.000124075 -1.49762e-06        52.67 
         -10     0.158827   0.00012672 -1.69095e-06        52.67 
         -10     0.171284  0.000129278 -1.89508e-06        52.67 
         -10     0.184201  0.000131525 -2.10884e-06        52.67 
         -10     0.197599   0.00013346 -2.33169e-06        52.67 
         -10     0.211455  0.000135339 -2.56231e-06        52.67 
         -10     0.225792  0.000137473 -2.79992e-06        52.67 
         -10       0.2406  0.000139607 -3.04271e-06        52.67 
         -10     0.255865   0.00014081 -3.28839e-06        52.67 
         -10     0.271613  0.000142371 -3.53841e-06        52.67 
         -10     0.287818  0.000143675 -3.79096e-06        52.67 
         -10     0.304506  0.000144749  -4.0447e-06        52.67 
         -10      0.32165  0.000145613 -4.29793e-06        52.67 
         -10     0.339278  0.000146285 -4.55022e-06        52.67 
         -10     0.357377  0.000146775 -4.80084e-06        52.67 
         -10      0.37593  0.000147091 -5.04937e-06        52.67 
         -10     0.394968  0.000147239 -5.29615e-06        52.67 
         -10     0.414461  0.000147224 -5.54081e-06        52.67 
         -10      0.43444   0.00014705 -5.78367e-06        52.67 
         -10     0.454872  0.000146723 -6.02414e-06        52.67 
         -10     0.475791  0.000146253 -6.26228e-06        52.67 
         -10     0.497163  0.000145654 -6.49725e-06        52.67 
         -10     0.519021  0.000144939 -6.72909e-06        52.67 
         -10      0.54135  0.000144126 -6.95782e-06        52.67 
         -10     0.564131  0.000143225 -7.18463e-06        52.67 
         -10       0.5874  0.000142234 -7.41343e-06        52.67 
         -10     0.611121  0.000141133 -7.64849e-06        52.67 
         -10      0.63533  0.000139994 -7.86709e-06        52.67 
         -10      0.65999  0.000138784 -8.08842e-06        52.67 
         -10     0.685139  0.000137511 -8.31099e-06        52.67 
         -10     0.710759  0.000136184 -8.53304e-06        52.67 
         -10     0.736828  0.000134812 -8.75301e-06        52.67 
         -10     0.763387  0.000133402 -8.97014e-06        52.67 
         -10     0.790396  0.000131965 -9.18317e-06        52.67 
         -10     0.817896  0.000130506 -9.39173e-06        52.67 
         -10     0.845843  0.000129036 -9.59495e-06        52.67 
         -10     0.874283   0.00012756 -9.79276e-06        52.67 
         -10      0.90317  0.000126087 -9.98456e-06        52.67 
         -10     0.932551  0.000124619 -1.01704e-05        52.67 
         -10     0.962401  0.000123163   -1.035e-05        52.67 
         -10     0.992697  0.000121723 -1.05229e-05        52.67 
         -10      1.02349    0.0001203  -1.0689e-05        52.67 
         -10      1.05472  0.000118895 -1.08477e-05        52.67 
         -10      1.08645  0.000117507 -1.09988e-05        52.67 
         -10      1.11863  0.000116136 -1.11411e-05      52.6699 
         -10       1.1513  0.000114778 -1.12741e-05      52.6699 
         -10      1.18444   0.00011343 -1.13966e-05      52.6699 
         -10      1.21802  0.000112088 -1.15076e-05      52.6699 
         -10      1.25211  0.000110748 -1.16063e-05      52.6699 
         -10      1.28663  0.000109406 -1.16917e-05      52.6699 
         -10      1.32165  0.000108059 -1.17636e-05      52.6699 
         -10      1.35712  0.000106709 -1.18222e-05      52.6699 
         -10      1.39308  0.000105356  -1.1869e-05      52.6699 
         -10      1.42951  0.000104011  -1.1907e-05      52.6699 
         -10      1.46638  0.000102687 -1.19411e-05      52.6699 
         -10      1.50375  0.000101407 -1.19795e-05      52.6699 
         -10      1.54156  9.96457e-05 -1.20507e-05      52.6699 
         -10      1.57987  9.81332e-05 -1.20583e-05      52.6698 
         -10      1.61863  9.68845e-05 -1.20101e-05      52.6698 
         -10      1.65788  9.58609e-05 -1.19177e-05      52.6698 
         -10      1.69757  9.50291e-05 -1.17917e-05      52.6698 
         -10      1.73776  9.43546e-05 -1.16416e-05      52.6698 
         -10      1.77842  9.38067e-05 -1.14761e-05      52.6698 
         -10      1.81952  9.33567e-05 -1.13026e-05      52.6698 
         -10      1.86113  9.29772e-05 -1.11274e-05      52.6698 
         -10      1.90316  9.26444e-05 -1.09557e-05      52.6697 
         -10      1.94571  9.23363e-05 -1.07913e-05      52.6697 
         -10      1.98869  9.20344e-05 -1.06373e-05      52.6697 
         -10      2.03217  9.17222e-05 -1.04954e-05      52.6697 
         -10      2.07612  9.13868e-05 -1.03661e-05      52.6697 
         -10      2.12051  9.10182e-05 -1.02492e-05      52.6697 
         -10       2.1654  9.06085e-05 -1.01431e-05      52.6697 
         -10      2.21073   9.0154e-05 -1.00456e-05      52.6696 
         -10      2.25656  8.96523e-05 -9.95349e-06      52.6696 
         -10      2.30283  8.91054e-05 -9.86286e-06      52.6696 
         -10       2.3496  8.85164e-05 -9.76902e-06      52.6696 
         -10      2.39685   8.7892e-05 -9.66693e-06      52.6696 
         -10      2.44452  8.72414e-05 -9.55117e-06      52.6695 
         -10      2.49271  8.65742e-05 -9.41575e-06      52.6695 
         -10      2.54132  8.59038e-05 -9.25496e-06      52.6695 
         -10      2.59044  8.52432e-05 -9.06266e-06      52.6695 
         -10         2.64  8.46083e-05 -8.83342e-06      52.6694 
         -10      2.69006  8.40139e-05 -8.56148e-06      52.6694 
         -10      2.74056  8.34769e-05 -8.24238e-06      52.6694 
         -10      2.79156  8.30122e-05 -7.87134e-06      52.6694 
         -10      2.84304  8.26351e-05 -7.44514e-06      52.6693 
         -10      2.89494  8.23597e-05 -6.96168e-06      52.6693 
         -10      2.94735  8.21971e-05 -6.41873e-06      52.6693 
         -10       3.0002  8.21568e-05 -5.81695e-06      52.6693 
         -10      3.05355  8.22447e-05 -5.15645e-06      52.6692 
         -10      3.10733  8.24624e-05 -4.44072e-06      52.6692 
         -10      3.16163  8.28076e-05  -3.6725e-06      52.6692 
         -10      3.21639  8.32716e-05 -2.85769e-06      52.6691 
         -10      3.27158  8.38391e-05 -2.00375e-06      52.6691 
         -10      3.32729   8.4489e-05 -1.11746e-06      52.6691 
         -10      3.38342  8.51901e-05 -2.09578e-07       52.669 
         -10      3.44007  8.59043e-05   7.1088e-07       52.669 
         -10      3.49714  8.65814e-05  1.63121e-06      52.6689 
         -10      3.55472  8.71623e-05  2.54111e-06      52.6689 
         -10      3.61273  8.75745e-05  3.42731e-06      52.6689 
         -10      3.67125  8.77339e-05  4.27973e-06      52.6688 
         -10      3.73025  8.75419e-05  5.08725e-06      52.6688 
         -10      3.78967  8.75834e-05  5.86134e-06      52.6687 
         -10      3.84961  8.78531e-05  6.66756e-06      52.6687 
         -10      3.90996  8.80786e-05  7.48575e-06      52.6686 
         -10      3.97084  8.82606e-05  8.29561e-06      52.6686 
         -10      4.03214  8.84019e-05  9.07913e-06      52.6685 
         -10      4.09395  8.85078e-05  9.82454e-06      52.6685 
         -10      4.15624  8.85841e-05  1.05209e-05      52.6684 
         -10      4.21895  8.86361e-05  1.11592e-05      52.6684 
         -10      4.28217  8.87659e-05  1.19044e-05      52.6683 
         -10      4.34582  8.88754e-05  1.26009e-05      52.6683 
         -10      4.40998  8.89436e-05   1.3214e-05      52.6682 
         -10      4.47457  8.89818e-05  1.37611e-05      52.6682 
         -10      4.53968  8.89996e-05  1.42582e-05      52.6681 
         -10      4.60525  8.90045e-05   1.4716e-05       52.668 
         -10      4.67125  8.90015e-05  1.51413e-05       52.668 
         -10      4.73777  8.89939e-05  1.55377e-05      52.6679 
         -10       4.8047  8.89831e-05  1.59039e-05      52.6678 
         -10      4.87216  8.89695e-05  1.62371e-05      52.6678 
         -10      4.94003   8.8953e-05  1.65317e-05      52.6677 
         -10      5.00843  8.89341e-05   1.6784e-05      52.6676 
         -10      5.07724  8.89154e-05  1.69919e-05      52.6675 
         -10      5.14658  8.89031e-05  1.71605e-05      52.6674 
         -10      5.21639  8.89095e-05  1.73041e-05      52.6674 
         -10      5.28661  8.89299e-05  1.74637e-05      52.6673 
         -10      5.35736  8.88542e-05  1.76867e-05      52.6672 
         -10      5.42852  8.88089e-05  1.78811e-05      52.6671 
         -10      5.50021  8.87831e-05  1.80477e-05       52.667 
         -10      5.57231  8.87693e-05  1.81864e-05      52.6669 
         -10      5.64493  8.87622e-05  1.82978e-05      52.6668 
         -10      5.71803  8.87589e-05  1.83824e-05      52.6667 
         -10      5.79154  8.87579e-05  1.84413e-05      52.6666 
         -10      5.86558  8.87588e-05  1.84767e-05      52.6665 
         -10      5.94003   8.8762e-05  1.84915e-05      52.6664 
         -10      6.01501  8.87682e-05  1.84895e-05      52.6663 
         -10       6.0904  8.87781e-05  1.84752e-05      52.6662 
         -10      6.16632  8.87918e-05  1.84537e-05      52.6661 
         -10      6.24271  8.88089e-05  1.84299e-05       52.666 
         -10       6.3195  8.88276e-05  1.84085e-05      52.6659 
         -10      6.39683  8.88456e-05  1.83925e-05      52.6657 
         -10      6.47457   8.8859e-05  1.83829e-05      52.6656 
         -10      6.55284  8.88627e-05  1.83771e-05      52.6655 
         -10      6.63152  8.88505e-05  1.83675e-05      52.6654 
         -10      6.71073  8.88154e-05  1.83398e-05      52.6652 
         -10      6.79034  8.87498e-05  1.82711e-05      52.6651 
         -10      6.87049  8.86459e-05  1.81273e-05       52.665 
         -10      6.95111  8.85831e-05  1.79914e-05      52.6648 
         -10      7.03214  8.87321e-05  1.80676e-05      52.6647 
         -10       7.1137  8.85748e-05  1.80684e-05      52.6645 
         -10      7.19566   8.8525e-05  1.80287e-05      52.6644 
         -10      7.27816  8.86365e-05  1.77848e-05      52.6642 
         -10      7.36106  8.87125e-05  1.75626e-05       52.664 
         -10      7.44451  8.87559e-05  1.73834e-05      52.6639 
         -10      7.52842  8.87712e-05  1.72555e-05      52.6637 
         -10      7.61273  8.87652e-05  1.71769e-05      52.6635 
         -10      7.69758  8.87452e-05  1.71381e-05      52.6634 
         -10      7.78283  8.87192e-05  1.71257e-05      52.6632 
         -10      7.86862  8.86949e-05  1.71242e-05       52.663 
         -10      7.95481  8.86791e-05  1.71186e-05      52.6628 
         -10      8.04155  8.86775e-05  1.70961e-05      52.6626 
         -10      8.12868  8.86938e-05  1.70479e-05      52.6624 
         -10      8.21635  8.87296e-05  1.69694e-05      52.6622 
         -10      8.30449   8.8784e-05  1.68614e-05       52.662 
         -10      8.39303  8.88531e-05  1.67297e-05      52.6618 
         -10      8.48211  8.89303e-05  1.65836e-05      52.6616 
         -10      8.57159  8.90055e-05  1.64352e-05      52.6614 
         -10      8.66161   8.9066e-05  1.62958e-05      52.6611 
         -10      8.75203  8.90957e-05  1.61736e-05      52.6609 
         -10      8.84299  8.90764e-05  1.60682e-05      52.6607 
         -10      8.93443  8.91518e-05  1.60058e-05      52.6604 
         -10      9.02626  8.92726e-05    1.578e-05      52.6602 
         -10      9.11863  8.92709e-05   1.5481e-05        52.66 
         -10      9.21139   8.9237e-05  1.52913e-05      52.6597 
         -10      9.30471  8.92453e-05  1.53071e-05      52.6594 
         -10      9.39841  8.93293e-05  1.55572e-05      52.6592 
         -10      9.49267  8.94533e-05  1.60227e-05      52.6589 
         -10      9.58739   8.9686e-05  1.60091e-05      52.6586 
         -10      9.68251  8.98851e-05  1.58491e-05      52.6584 
         -10      9.77817  9.00041e-05  1.58339e-05      52.6581 
         -10      9.87422  9.00868e-05  1.59192e-05      52.6578 
         -10      9.97083  9.01666e-05   1.6066e-05      52.6575 
         -10      10.0678  9.02655e-05  1.62403e-05      52.6572 
         -10      10.1654  9.03945e-05  1.64139e-05      52.6569 
         -10      10.2633  9.05542e-05  1.65637e-05      52.6566 
         -10      10.3618  9.07359e-05  1.66735e-05      52.6562 
         -10      10.4607  9.09232e-05   1.6735e-05      52.6559 
         -10      10.5601  9.10948e-05  1.67495e-05      52.6556 
         -10        10.66  9.12278e-05  1.67306e-05      52.6552 
         -10      10.7603  9.13013e-05   1.6707e-05      52.6549 
         -10      10.8611  9.13019e-05  1.67262e-05      52.6546 
         -10      10.9623  9.12294e-05  1.68589e-05      52.6542 
         -10      11.0641  9.11034e-05  1.72045e-05      52.6538 
         -10      11.1663  9.09815e-05  1.78593e-05      52.6535 
         -10       11.269  9.11636e-05  1.75455e-05      52.6531 
         -10      11.3721  9.12804e-05  1.73374e-05      52.6527 
         -10      11.4757  9.13446e-05  1.72328e-05      52.6523 
         -10      11.5798  9.13707e-05  1.72189e-05      52.6519 
         -10      11.6844  9.13739e-05  1.72745e-05      52.6515 
         -10      11.7894  9.13697e-05  1.73727e-05      52.6511 
         -10       11.895  9.13734e-05  1.74834e-05      52.6507 
         -10      12.0009  9.13985e-05  1.75772e-05      52.6503 
         -10      12.1073  9.14562e-05  1.76302e-05      52.6498 
         -10      12.2142  9.15529e-05  1.76287e-05      52.6494 
         -10      12.3216  9.16893e-05  1.75755e-05      52.6489 
         -10      12.4294  9.18576e-05  1.74964e-05      52.6485 
         -10      12.5378  9.20214e-05  1.73678e-05       52.648 
         -10      12.6465  9.21479e-05  1.72363e-05      52.6476 
         -10      12.7558  9.22453e-05  1.71568e-05      52.6471 
         -10      12.8656  9.23102e-05  1.70997e-05      52.6466 
         -10      12.9757  9.23417e-05  1.70449e-05      52.6461 
         -10      13.0864  9.23409e-05  1.69816e-05      52.6456 
         -10      13.1975  9.23105e-05  1.69077e-05      52.6451 
         -10      13.3092  9.22537e-05  1.68275e-05      52.6446 
         -10      13.4212  9.21749e-05  1.67501e-05      52.6441 
         -10      13.5338  9.20785e-05  1.66862e-05      52.6435 
         -10      13.6468  9.19692e-05  1.66448e-05       52.643 
         -10      13.7603   9.1852e-05  1.66283e-05      52.6424 
         -10      13.8743  9.17317e-05  1.66282e-05      52.6419 
         -10      13.9886  9.16137e-05  1.66181e-05      52.6413 
         -10      14.1036   9.1504e-05  1.65475e-05      52.6407 
         -10      14.2189  9.14094e-05  1.63335e-05      52.6402 
         -10      14.3348  9.14149e-05  1.60188e-05      52.6396 
         -10       14.451  9.16606e-05  1.60704e-05       52.639 
         -10      14.5678  9.18713e-05  1.60774e-05      52.6384 
         -10      14.6851  9.20444e-05  1.60639e-05      52.6377 
         -10      14.8028  9.21792e-05  1.60466e-05      52.6371 
         -10       14.921  9.22766e-05  1.60357e-05      52.6365 
         -10      15.0396  9.23385e-05  1.60367e-05      52.6358 
         -10      15.1588  9.23682e-05  1.60508e-05      52.6352 
         -10      15.2783  9.23698e-05  1.60765e-05      52.6345 
         -10      15.3984  9.23481e-05  1.61099e-05      52.6338 
         -10       15.519  9.23084e-05   1.6146e-05      52.6332 
         -10        15.64  9.22567e-05  1.61795e-05      52.6325 
         -10      15.7615  9.21988e-05  1.62053e-05      52.6318 
         -10      15.8834  9.21406e-05   1.6219e-05      52.6311 
         -10      16.0058  9.20875e-05  1.62177e-05      52.6303 
         -10      16.1286  9.20444e-05  1.62001e-05      52.6296 
         -10       16.252  9.20153e-05  1.61666e-05      52.6289 
         -10      16.3759  9.20032e-05  1.61196e-05      52.6281 
         -10      16.5002  9.20095e-05  1.60634e-05      52.6274 
         -10       16.625   9.2034e-05  1.60035e-05      52.6266 
         -10      16.7501  9.20743e-05  1.59467e-05      52.6258 
         -10      16.8759  9.21258e-05  1.58998e-05       52.625 
         -10       17.002  9.21809e-05  1.58693e-05      52.6242 
         -10      17.1287  9.22293e-05  1.58597e-05      52.6234 
         -10      17.2557  9.22568e-05  1.58724e-05      52.6226 
         -10      17.3834  9.22456e-05  1.59041e-05      52.6218 
         -10      17.5115  9.21737e-05  1.59448e-05      52.6209 
         -10      17.6399  9.20144e-05  1.59752e-05      52.6201 
         -10       17.769  9.17355e-05  1.59647e-05      52.6192 
         -10      17.8984     9.13e-05  1.58683e-05      52.6184 
         -10      18.0284  9.06639e-05  1.56229e-05      52.6175 
         -10      18.1587  9.11196e-05  1.50743e-05      52.6166 
         -10      18.2896  9.13659e-05  1.46103e-05      52.6157 
         -10       18.421  9.15097e-05  1.49074e-05      52.6148 
         -10      18.5528  9.19226e-05  1.54253e-05      52.6138 
         -10      18.6851  9.22185e-05  1.57312e-05      52.6129 
         -10      18.8178  9.24084e-05  1.58921e-05       52.612 
         -10      18.9511  9.25074e-05  1.59617e-05       52.611 
         -10      19.0847  9.25325e-05  1.59803e-05        52.61 
         -10      19.2189  9.25017e-05  1.59773e-05       52.609 
         -10      19.3535  9.24328e-05  1.59725e-05      52.6081 
         -10      19.4886  9.23423e-05  1.59776e-05      52.6071 
         -10      19.6242  9.22451e-05  1.59976e-05       52.606 
         -10      19.7602  9.21533e-05  1.60325e-05       52.605 
         -10      19.8968  9.20757e-05  1.60785e-05       52.604 
         -10      20.0337  9.20181e-05  1.61292e-05      52.6029 
         -10      20.1712  9.19824e-05  1.61771e-05      52.6019 
         -10      20.3091  9.19673e-05   1.6214e-05      52.6008 
         -10      20.4475  9.19685e-05  1.62329e-05      52.5997 
         -10      20.5864  9.19792e-05   1.6228e-05      52.5986 
         -10      20.7257  9.19907e-05  1.61962e-05      52.5975 
         -10      20.8655  9.19944e-05  1.61369e-05      52.5964 
         -10      21.0058  9.19821e-05  1.60532e-05      52.5953 
         -10      21.1465  9.19488e-05  1.59516e-05      52.5941 
         -10      21.2877  9.18941e-05  1.58424e-05       52.593 
         -10      21.4294  9.18248e-05  1.57394e-05      52.5918 
         -10      21.5716   9.1758e-05    1.566e-05      52.5906 
         -10      21.7142  9.17242e-05  1.56242e-05      52.5894 
         -10      21.8573  9.17705e-05  1.56539e-05      52.5882 
         -10      22.0008  9.19654e-05  1.57723e-05       52.587 
         -10      22.1449  9.24031e-05  1.60024e-05      52.5858 
         -10      22.2893  9.19657e-05  1.60842e-05      52.5845 
         -10      22.4344  9.16855e-05  1.60028e-05      52.5833 
         -10      22.5797  9.15996e-05  1.58751e-05       52.582 
         -10      22.7257  9.16063e-05  1.57681e-05      52.5808 
         -10      22.8721  9.16396e-05  1.57201e-05      52.5795 
         -10      23.0189  9.16622e-05  1.57448e-05      52.5782 
         -10      23.1663  9.16602e-05  1.58357e-05      52.5769 
         -10       23.314  9.16374e-05  1.59711e-05      52.5755 
         -10      23.4623  9.16116e-05  1.61197e-05      52.5742 
         -10       23.611  9.16117e-05  1.62455e-05      52.5728 
         -10      23.7602  9.16747e-05  1.63148e-05      52.5715 
         -10        23.91   9.1846e-05  1.63018e-05      52.5701 
         -10        24.06  9.20161e-05  1.62884e-05      52.5687 
         -10      24.2107  9.17583e-05  1.65725e-05      52.5673 
         -10      24.3617  9.15477e-05  1.68876e-05      52.5659 
         -10      24.5133  9.13705e-05  1.72194e-05      52.5645 
         -10      24.6653  9.12173e-05  1.75527e-05       52.563 
         -10      24.8178  9.10814e-05   1.7874e-05      52.5616 
         -10      24.9708  9.09603e-05  1.81699e-05      52.5601 
         -10      25.1242  9.08541e-05  1.84292e-05      52.5586 
         -10      25.2781  9.07654e-05  1.86435e-05      52.5571 
         -10      25.4324  9.06983e-05  1.88069e-05      52.5556 
         -10      25.5873  9.06577e-05  1.89177e-05      52.5541 
         -10      25.7426  9.06475e-05  1.89784e-05      52.5526 
         -10      25.8984  9.06695e-05  1.89969e-05       52.551 
         -10      26.0546  9.07214e-05  1.89872e-05      52.5495 
         -10      26.2114  9.07948e-05  1.89699e-05      52.5479 
         -10      26.3686  9.08727e-05  1.89739e-05      52.5463 
         -10      26.5262  9.09268e-05  1.90362e-05      52.5447 
         -10      26.6844  9.09147e-05   1.9204e-05      52.5431 
         -10      26.8429  9.07764e-05  1.95344e-05      52.5415 
         -10       27.002   9.0434e-05  2.00877e-05      52.5398 
         -10      27.1615  9.04398e-05  1.97133e-05      52.5382 
         -10      27.3216  9.04331e-05  1.95333e-05      52.5365 
         -10      27.4821  9.04099e-05  1.94734e-05      52.5348 
         -10       27.643  9.03696e-05  1.94776e-05      52.5331 
         -10      27.8044  9.03135e-05  1.95064e-05      52.5314 
         -10      27.9663  9.02446e-05  1.95342e-05      52.5297 
         -10      28.1287  9.01663e-05  1.95475e-05      52.5279 
         -10      28.2914  9.00824e-05   1.9542e-05      52.5262 
         -10      28.4548  8.99962e-05  1.95209e-05      52.5244 
         -10      28.6185  8.99107e-05  1.94921e-05      52.5227 
         -10      28.7828   8.9828e-05  1.94664e-05      52.5209 
         -10      28.9475  8.97496e-05   1.9455e-05      52.5191 
         -10      29.1126  8.96766e-05  1.94672e-05      52.5172 
         -10      29.2784  8.96095e-05  1.95086e-05      52.5154 
         -10      29.4444  8.95497e-05  1.95782e-05      52.5136 
         -10       29.611  8.94988e-05   1.9667e-05      52.5117 
         -10       29.778  8.94611e-05  1.97554e-05      52.5098 
         -10      29.9456  8.94433e-05  1.98114e-05      52.5079 
         -10      30.1137  8.94568e-05  1.97883e-05       52.506 
         -10      30.2821  8.95186e-05  1.96234e-05      52.5041 
         -10      30.4511  8.89614e-05  1.94628e-05      52.5022 
         -10      30.6204  8.85731e-05  1.94951e-05      52.5002 
         -10      30.7903   8.8339e-05  1.96559e-05      52.4983 
         -10      30.9606  8.82294e-05  1.98868e-05      52.4963 
         -10      31.1315  8.82152e-05  2.01373e-05      52.4943 
         -10      31.3028  8.82688e-05  2.03647e-05      52.4923 
         -10      31.4745  8.83641e-05  2.05359e-05      52.4903 
         -10      31.6468  8.84775e-05  2.06282e-05      52.4883 
         -10      31.8194  8.85878e-05  2.06304e-05      52.4862 
         -10      31.9926  8.86774e-05  2.05448e-05      52.4842 
         -10      32.1662  8.87324e-05  2.03884e-05      52.4821 
         -10      32.3404  8.87437e-05  2.01946e-05        52.48 
         -10      32.5149  8.87077e-05  2.00163e-05      52.4779 
         -10        32.69  8.86272e-05  1.99265e-05      52.4758 
         -10      32.8655  8.85126e-05  2.00223e-05      52.4737 
         -10      33.0414  8.83832e-05  2.04262e-05      52.4716 
         -10       33.218  8.81586e-05  2.01108e-05      52.4694 
         -10      33.3948  8.79489e-05  1.97067e-05      52.4672 
         -10      33.5723  8.77904e-05  1.96085e-05       52.465 
         -10        33.75  8.76642e-05  1.96875e-05      52.4629 
         -10      33.9284  8.75557e-05   1.9849e-05      52.4606 
         -10      34.1073  8.74547e-05  2.00272e-05      52.4584 
         -10      34.2865  8.73549e-05  2.01805e-05      52.4562 
         -10      34.4663  8.72523e-05  2.02877e-05      52.4539 
         -10      34.6465  8.71458e-05  2.03431e-05      52.4516 
         -10      34.8272  8.70353e-05  2.03526e-05      52.4494 
         -10      35.0083  8.69224e-05    2.033e-05      52.4471 
         -10        35.19  8.68084e-05  2.02931e-05      52.4448 
         -10      35.3721  8.66951e-05  2.02611e-05      52.4424 
         -10      35.5546  8.65832e-05   2.0251e-05      52.4401 
         -10      35.7377  8.64717e-05  2.02753e-05      52.4377 
         -10      35.9211  8.63583e-05  2.03393e-05      52.4354 
         -10      36.1052  8.62376e-05  2.04398e-05       52.433 
         -10      36.2895  8.61018e-05   2.0563e-05      52.4306 
         -10      36.4745   8.5939e-05  2.06838e-05      52.4282 
         -10      36.6598  8.57336e-05  2.07645e-05      52.4258 
         -10      36.8457  8.55273e-05  2.07941e-05      52.4233 
         -10      37.0321  8.55027e-05  2.08829e-05      52.4209 
         -10      37.2188  8.55211e-05  2.09666e-05      52.4184 
         -10      37.4062  8.55612e-05  2.10426e-05      52.4159 
         -10      37.5938  8.56034e-05   2.1106e-05      52.4134 
         -10      37.7821  8.56308e-05  2.11509e-05      52.4109 
         -10      37.9707  8.56287e-05   2.1171e-05      52.4084 
         -10      38.1599  8.55862e-05  2.11613e-05      52.4059 
         -10      38.3496  8.54964e-05  2.11189e-05      52.4033 
         -10      38.5396  8.53573e-05   2.1045e-05      52.4007 
         -10      38.7302  8.51725e-05  2.09462e-05      52.3982 
         -10      38.9211  8.49527e-05  2.08365e-05      52.3956 
         -10      39.1127  8.47157e-05  2.07391e-05       52.393 
         -10      39.3046  8.44886e-05  2.06892e-05      52.3903 
         -10      39.4971   8.4308e-05  2.07355e-05      52.3877 
         -10      39.6899  8.42223e-05  2.09432e-05      52.3851 
         -10      39.8833  8.42922e-05  2.13971e-05      52.3824 
         -10      40.0772  8.45151e-05  2.20604e-05      52.3797 
         -10      40.2714  8.42973e-05  2.17895e-05       52.377 
         -10      40.4663  8.41469e-05  2.15566e-05      52.3743 
         -10      40.6615  8.40374e-05  2.13674e-05      52.3716 
         -10      40.8573  8.39475e-05  2.12232e-05      52.3689 
         -10      41.0534  8.38616e-05  2.11233e-05      52.3661 
         -10      41.2501  8.37683e-05  2.10636e-05      52.3634 
         -10      41.4473  8.36606e-05  2.10389e-05      52.3606 
         -10      41.6448  8.35347e-05  2.10425e-05      52.3578 
         -10      41.8429  8.33896e-05  2.10667e-05       52.355 
         -10      42.0414  8.32266e-05  2.11039e-05      52.3522 
         -10      42.2405  8.30489e-05  2.11461e-05      52.3494 
         -10      42.4399   8.2861e-05   2.1186e-05      52.3465 
         -10      42.6399  8.26679e-05  2.12171e-05      52.3437 
         -10      42.8404  8.24754e-05  2.12338e-05      52.3408 
         -10      43.0412  8.22895e-05  2.12318e-05      52.3379 
         -10      43.2426  8.21152e-05  2.12083e-05       52.335 
         -10      43.4444  8.19575e-05  2.11619e-05      52.3321 
         -10      43.6467  8.18202e-05   2.1093e-05      52.3292 
         -10      43.8494   8.1706e-05  2.10035e-05      52.3263 
         -10      44.0527  8.16162e-05  2.08964e-05      52.3233 
         -10      44.2563  8.15511e-05  2.07768e-05      52.3204 
         -10      44.4606  8.15089e-05  2.06501e-05      52.3174 
         -10      44.6653  8.14866e-05   2.0523e-05      52.3144 
         -10      44.8704  8.14797e-05  2.04027e-05      52.3114 
         -10       45.076  8.14822e-05   2.0296e-05      52.3084 
         -10       45.282  8.14868e-05  2.02093e-05      52.3054 
         -10      45.4886  8.14853e-05  2.01476e-05      52.3023 
         -10      45.6955  8.14686e-05  2.01141e-05      52.2993 
         -10       45.903  8.14274e-05  2.01092e-05      52.2962 
         -10      46.1111  8.13523e-05  2.01293e-05      52.2931 
         -10      46.3194  8.12347e-05  2.01662e-05      52.2901 
         -10      46.5283  8.10667e-05  2.02056e-05       52.287 
         -10      46.7376  8.08429e-05   2.0226e-05      52.2838 
         -10      46.9475  8.05597e-05  2.01971e-05      52.2807 
         -10      47.1577  8.02179e-05  2.00788e-05      52.2776 
         -10      47.3685   7.9902e-05   1.9836e-05      52.2744 
         -10      47.5798  8.02975e-05  1.97348e-05      52.2713 
         -10      47.7914  8.06164e-05  1.97272e-05      52.2681 
         -10      48.0037  8.08524e-05  1.97984e-05      52.2649 