Variables = x, y, u, v, p

Zone, I=800, F=POINT
         200            0            0            0     -5.20669 
         200     0.000234 -1.64569e-06  1.35222e-11     -5.20669 
         200     0.000939  -6.3351e-06   2.2624e-10     -5.20669 
         200     0.002113 -1.33178e-05  1.14768e-09     -5.20669 
         200     0.003759 -2.15943e-05  3.61264e-09     -5.20669 
         200     0.005872 -3.01097e-05  8.73585e-09     -5.20669 
         200     0.008457 -3.81056e-05  1.79049e-08     -5.20669 
         200      0.01151 -4.52329e-05  3.26869e-08     -5.20669 
         200     0.015036 -5.16709e-05   5.4839e-08     -5.20669 
         200     0.019031  -5.7978e-05  8.61573e-08     -5.20669 
         200     0.023493 -6.48658e-05  1.28452e-07     -5.20669 
         200     0.028429 -7.28816e-05  1.83579e-07     -5.20669 
         200     0.033831 -8.20964e-05  2.53113e-07     -5.20669 
         200     0.039706 -9.20759e-05  3.38622e-07     -5.20669 
         200     0.046047 -0.000102071  4.41231e-07     -5.20669 
         200     0.052863 -0.000111625  5.62008e-07     -5.20669 
         200      0.06015  -0.00012116   7.0146e-07     -5.20669 
         200       0.0679 -0.000132038   8.5959e-07     -5.20669 
         200     0.076126 -0.000144685  1.03639e-06     -5.20669 
         200     0.084816  -0.00015429  1.23089e-06     -5.20669 
         200     0.093982 -0.000166501  1.44229e-06     -5.20669 
         200     0.103611 -0.000178144  1.66874e-06     -5.20669 
         200     0.113718 -0.000189422  1.90858e-06     -5.20669 
         200     0.124286 -0.000200418  2.15908e-06     -5.20669 
         200     0.135333 -0.000211166  2.41807e-06     -5.20669 
         200      0.14685 -0.000221592  2.68249e-06     -5.20669 
         200     0.158827 -0.000231572  2.94913e-06     -5.20669 
         200     0.171284 -0.000240992   3.2153e-06     -5.20669 
         200     0.184201 -0.000249732  3.47738e-06     -5.20669 
         200     0.197599 -0.000257766   3.7326e-06     -5.20669 
         200     0.211455 -0.000265113  3.97748e-06     -5.20669 
         200     0.225792 -0.000271838  4.20959e-06     -5.20669 
         200       0.2406 -0.000277861  4.42646e-06     -5.20669 
         200     0.255865 -0.000282962  4.62618e-06     -5.20669 
         200     0.271613 -0.000287491  4.80552e-06     -5.20669 
         200     0.287818 -0.000291308  4.96296e-06     -5.20669 
         200     0.304506 -0.000294467  5.09843e-06     -5.20669 
         200      0.32165 -0.000297011  5.21142e-06     -5.20669 
         200     0.339278    -0.000299  5.30193e-06     -5.20669 
         200     0.357377 -0.000300486  5.36983e-06     -5.20669 
         200      0.37593 -0.000301524  5.41536e-06     -5.20669 
         200     0.394968  -0.00030217  5.43926e-06     -5.20669 
         200     0.414461 -0.000302475  5.44263e-06     -5.20669 
         200      0.43444 -0.000302486  5.42719e-06     -5.20669 
         200     0.454872 -0.000302247  5.39529e-06     -5.20669 
         200     0.475791 -0.000301793  5.34976e-06     -5.20669 
         200     0.497163 -0.000301155  5.29404e-06     -5.20669 
         200     0.519021 -0.000300351   5.2316e-06     -5.20669 
         200      0.54135 -0.000299393  5.16579e-06     -5.20669 
         200     0.564131 -0.000298281  5.09905e-06     -5.20669 
         200       0.5874 -0.000297002  5.03177e-06     -5.20669 
         200     0.611121 -0.000295525  4.96216e-06     -5.20669 
         200      0.63533  -0.00029381  4.90925e-06     -5.20669 
         200      0.65999 -0.000291918  4.87669e-06     -5.20669 
         200     0.685139 -0.000289766  4.86513e-06     -5.20669 
         200     0.710759 -0.000287289   4.8758e-06     -5.20669 
         200     0.736828 -0.000284432  4.91024e-06     -5.20669 
         200     0.763387 -0.000281144  4.97042e-06     -5.20669 
         200     0.790396 -0.000277396  5.05835e-06     -5.20669 
         200     0.817896 -0.000273162  5.17633e-06     -5.20669 
         200     0.845843  -0.00026844  5.32625e-06     -5.20669 
         200     0.874283 -0.000263225  5.51019e-06     -5.20669 
         200      0.90317 -0.000257543  5.72929e-06     -5.20669 
         200     0.932551 -0.000251413  5.98474e-06     -5.20669 
         200     0.962401 -0.000244876  6.27649e-06     -5.20669 
         200     0.992697 -0.000237987   6.6035e-06     -5.20669 
         200      1.02349  -0.00023079  6.96452e-06     -5.20669 
         200      1.05472 -0.000223359   7.3561e-06     -5.20669 
         200      1.08645 -0.000215747  7.77495e-06     -5.20669 
         200      1.11863 -0.000208034  8.21537e-06     -5.20669 
         200       1.1513 -0.000200276  8.67219e-06     -5.20669 
         200      1.18444 -0.000192542  9.13852e-06     -5.20669 
         200      1.21802 -0.000184897  9.60721e-06     -5.20669 
         200      1.25211 -0.000177379  1.00726e-05     -5.20669 
         200      1.28663 -0.000170039  1.05287e-05     -5.20669 
         200      1.32165 -0.000162891  1.09731e-05     -5.20669 
         200      1.35712 -0.000155959  1.14054e-05     -5.20669 
         200      1.39308 -0.000149226  1.18319e-05     -5.20669 
         200      1.42951 -0.000142676  1.22648e-05     -5.20669 
         200      1.46638 -0.000136275  1.27261e-05     -5.20669 
         200      1.50375 -0.000129956  1.32514e-05     -5.20669 
         200      1.54156 -0.000123855  1.36166e-05     -5.20669 
         200      1.57987  -0.00011771  1.39715e-05     -5.20669 
         200      1.61863 -0.000111519  1.43293e-05     -5.20669 
         200      1.65788 -0.000105276  1.46879e-05     -5.20669 
         200      1.69757 -9.89986e-05  1.50446e-05     -5.20669 
         200      1.73776 -9.26845e-05  1.53976e-05     -5.20669 
         200      1.77842 -8.63474e-05  1.57446e-05     -5.20669 
         200      1.81952 -8.00028e-05  1.60836e-05     -5.20669 
         200      1.86113 -7.36513e-05  1.64135e-05     -5.20669 
         200      1.90316 -6.73153e-05  1.67322e-05     -5.20669 
         200      1.94571 -6.09976e-05  1.70389e-05     -5.20669 
         200      1.98869 -5.47224e-05  1.73321e-05     -5.20668 
         200      2.03217  -4.8494e-05  1.76114e-05     -5.20668 
         200      2.07612 -4.23328e-05  1.78756e-05     -5.20668 
         200      2.12051 -3.62593e-05   1.8124e-05     -5.20668 
         200       2.1654 -3.02801e-05  1.83567e-05     -5.20668 
         200      2.21073  -2.4421e-05  1.85729e-05     -5.20668 
         200      2.25656 -1.86891e-05  1.87728e-05     -5.20668 
         200      2.30283 -1.31097e-05  1.89562e-05     -5.20668 
         200       2.3496 -7.69051e-06  1.91233e-05     -5.20668 
         200      2.39685 -2.45139e-06  1.92743e-05     -5.20668 
         200      2.44452  2.58842e-06  1.94091e-05     -5.20668 
         200      2.49271  7.42246e-06  1.95284e-05     -5.20668 
         200      2.54132  1.20298e-05  1.96323e-05     -5.20668 
         200      2.59044  1.64054e-05  1.97212e-05     -5.20667 
         200         2.64  2.05312e-05  1.97953e-05     -5.20667 
         200      2.69006  2.44041e-05   1.9855e-05     -5.20667 
         200      2.74056  2.80101e-05  1.99005e-05     -5.20667 
         200      2.79156  3.13484e-05  1.99319e-05     -5.20667 
         200      2.84304  3.44116e-05  1.99493e-05     -5.20667 
         200      2.89494   3.7195e-05  1.99526e-05     -5.20667 
         200      2.94735  3.97024e-05  1.99417e-05     -5.20667 
         200       3.0002   4.1931e-05  1.99164e-05     -5.20667 
         200      3.05355  4.38876e-05  1.98761e-05     -5.20667 
         200      3.10733  4.55743e-05  1.98205e-05     -5.20666 
         200      3.16163  4.70004e-05  1.97489e-05     -5.20666 
         200      3.21639  4.81729e-05  1.96606e-05     -5.20666 
         200      3.27158  4.91007e-05  1.95549e-05     -5.20666 
         200      3.32729  4.97957e-05  1.94308e-05     -5.20666 
         200      3.38342  5.02678e-05  1.92879e-05     -5.20666 
         200      3.44007  5.05286e-05  1.91251e-05     -5.20666 
         200      3.49714  5.05878e-05  1.89422e-05     -5.20666 
         200      3.55472   5.0454e-05  1.87388e-05     -5.20666 
         200      3.61273  5.01336e-05  1.85151e-05     -5.20665 
         200      3.67125  4.96288e-05  1.82716e-05     -5.20665 
         200      3.73025  4.89376e-05  1.80096e-05     -5.20665 
         200      3.78967  4.81743e-05  1.78821e-05     -5.20665 
         200      3.84961  4.73873e-05  1.78012e-05     -5.20665 
         200      3.90996  4.65526e-05   1.7713e-05     -5.20665 
         200      3.97084    4.568e-05  1.76374e-05     -5.20665 
         200      4.03214  4.47794e-05  1.75883e-05     -5.20665 
         200      4.09395  4.38555e-05  1.75738e-05     -5.20665 
         200      4.15624  4.29134e-05  1.75975e-05     -5.20665 
         200      4.21895  4.19566e-05  1.76587e-05     -5.20664 
         200      4.28217  4.09852e-05  1.77537e-05     -5.20664 
         200      4.34582  4.00012e-05  1.78764e-05     -5.20664 
         200      4.40998  3.90033e-05  1.80197e-05     -5.20664 
         200      4.47457  3.79928e-05  1.81752e-05     -5.20664 
         200      4.53968  3.69676e-05  1.83354e-05     -5.20664 
         200      4.60525  3.59282e-05  1.84933e-05     -5.20664 
         200      4.67125   3.4875e-05  1.86435e-05     -5.20664 
         200      4.73777  3.38062e-05   1.8783e-05     -5.20664 
         200       4.8047  3.27229e-05  1.89115e-05     -5.20663 
         200      4.87216   3.1623e-05  1.90318e-05     -5.20663 
         200      4.94003  3.05014e-05  1.91287e-05     -5.20663 
         200      5.00843  2.93617e-05  1.92185e-05     -5.20663 
         200      5.07724   2.8209e-05  1.93078e-05     -5.20663 
         200      5.14658  2.70467e-05    1.939e-05     -5.20663 
         200      5.21639  2.58855e-05  1.94392e-05     -5.20663 
         200      5.28661  2.47429e-05  1.94011e-05     -5.20663 
         200      5.35736  2.35788e-05  1.94756e-05     -5.20663 
         200      5.42852  2.24186e-05  1.94862e-05     -5.20663 
         200      5.50021   2.1258e-05  1.94435e-05     -5.20662 
         200      5.57231   2.0092e-05  1.93575e-05     -5.20662 
         200      5.64493  1.89445e-05   1.9278e-05     -5.20662 
         200      5.71803  1.78453e-05  1.92673e-05     -5.20662 
         200      5.79154  1.67452e-05  1.92096e-05     -5.20662 
         200      5.86558  1.56471e-05   1.9113e-05     -5.20662 
         200      5.94003   1.4557e-05  1.89872e-05     -5.20662 
         200      6.01501  1.34764e-05  1.88416e-05     -5.20662 
         200       6.0904    1.241e-05  1.86853e-05     -5.20662 
         200      6.16632  1.13582e-05  1.85244e-05     -5.20662 
         200      6.24271  1.03239e-05  1.83633e-05     -5.20662 
         200       6.3195  9.30921e-06   1.8203e-05     -5.20661 
         200      6.39683  8.31353e-06  1.80419e-05     -5.20661 
         200      6.47457  7.33881e-06  1.78767e-05     -5.20661 
         200      6.55284  6.38309e-06  1.77026e-05     -5.20661 
         200      6.63152  5.44651e-06  1.75167e-05     -5.20661 
         200      6.71073  4.52493e-06  1.73187e-05     -5.20661 
         200      6.79034  3.61547e-06  1.71157e-05     -5.20661 
         200      6.87049  2.71018e-06  1.69251e-05     -5.20661 
         200      6.95111  1.80779e-06  1.67686e-05     -5.20661 
         200      7.03214  9.86796e-07  1.65046e-05     -5.20661 
         200       7.1137  1.58924e-07  1.62527e-05      -5.2066 
         200      7.19566 -6.64609e-07  1.60135e-05      -5.2066 
         200      7.27816 -1.47795e-06  1.57847e-05      -5.2066 
         200      7.36106 -2.27502e-06  1.55641e-05      -5.2066 
         200      7.44451 -3.05426e-06  1.53477e-05      -5.2066 
         200      7.52842 -3.81381e-06   1.5132e-05      -5.2066 
         200      7.61273  -4.5531e-06  1.49136e-05      -5.2066 
         200      7.69758 -5.27421e-06  1.46887e-05      -5.2066 
         200      7.78283 -5.97743e-06  1.44553e-05      -5.2066 
         200      7.86862 -6.66561e-06  1.42114e-05      -5.2066 
         200      7.95481 -7.33936e-06  1.39571e-05      -5.2066 
         200      8.04155 -8.00126e-06  1.36925e-05     -5.20659 
         200      8.12868 -8.65132e-06    1.342e-05     -5.20659 
         200      8.21635 -9.29114e-06  1.31424e-05     -5.20659 
         200      8.30449 -9.92014e-06  1.28637e-05     -5.20659 
         200      8.39303 -1.05372e-05  1.25887e-05     -5.20659 
         200      8.48211  -1.1142e-05  1.23217e-05     -5.20659 
         200      8.57159 -1.17321e-05  1.20675e-05     -5.20659 
         200      8.66161 -1.23067e-05  1.18286e-05     -5.20659 
         200      8.75203 -1.28634e-05  1.16066e-05     -5.20659 
         200      8.84299 -1.34022e-05   1.1399e-05     -5.20659 
         200      8.93443  -1.3923e-05  1.11995e-05     -5.20658 
         200      9.02626 -1.44278e-05  1.09959e-05     -5.20658 
         200      9.11863 -1.49068e-05  1.08711e-05     -5.20658 
         200      9.21139 -1.53883e-05  1.07393e-05     -5.20658 
         200      9.30471 -1.58822e-05   1.0554e-05     -5.20658 
         200      9.39841 -1.63997e-05    1.029e-05     -5.20658 
         200      9.49267 -1.69636e-05  9.92479e-06     -5.20658 
         200      9.58739 -1.74058e-05  9.80563e-06     -5.20658 
         200      9.68251 -1.77951e-05  9.64697e-06     -5.20658 
         200      9.77817 -1.81513e-05  9.37634e-06     -5.20658 
         200      9.87422 -1.84815e-05  8.94667e-06     -5.20657 
         200      9.97083 -1.89393e-05  8.84579e-06     -5.20657 
         200      10.0678 -1.94038e-05   8.7674e-06     -5.20657 
         200      10.1654 -1.98383e-05  8.61647e-06     -5.20657 
         200      10.2633 -2.02433e-05  8.41504e-06     -5.20657 
         200      10.3618 -2.06215e-05  8.18099e-06     -5.20657 
         200      10.4607 -2.09754e-05  7.92932e-06     -5.20657 
         200      10.5601 -2.13081e-05  7.67198e-06     -5.20657 
         200        10.66 -2.16236e-05  7.41748e-06     -5.20657 
         200      10.7603 -2.19249e-05  7.17258e-06     -5.20657 
         200      10.8611 -2.22158e-05  6.94102e-06     -5.20656 
         200      10.9623  -2.2499e-05   6.7253e-06     -5.20656 
         200      11.0641 -2.27772e-05  6.52555e-06     -5.20656 
         200      11.1663 -2.30521e-05  6.34103e-06     -5.20656 
         200       11.269 -2.33247e-05  6.16987e-06     -5.20656 
         200      11.3721 -2.35955e-05  6.00899e-06     -5.20656 
         200      11.4757 -2.38639e-05  5.85534e-06     -5.20656 
         200      11.5798 -2.41291e-05  5.70515e-06     -5.20656 
         200      11.6844 -2.43888e-05  5.55516e-06     -5.20656 
         200      11.7894 -2.46412e-05  5.40197e-06     -5.20655 
         200       11.895 -2.48834e-05  5.24313e-06     -5.20655 
         200      12.0009 -2.51128e-05    5.077e-06     -5.20655 
         200      12.1073 -2.53274e-05  4.90262e-06     -5.20655 
         200      12.2142 -2.55253e-05  4.72081e-06     -5.20655 
         200      12.3216 -2.57066e-05  4.53332e-06     -5.20655 
         200      12.4294 -2.58725e-05  4.34408e-06     -5.20655 
         200      12.5378 -2.60272e-05  4.15822e-06     -5.20655 
         200      12.6465 -2.61779e-05  3.98333e-06     -5.20654 
         200      12.7558 -2.63361e-05  3.82842e-06     -5.20654 
         200      12.8656 -2.65184e-05  3.70495e-06     -5.20654 
         200      12.9757 -2.65847e-05  3.58446e-06     -5.20654 
         200      13.0864 -2.66704e-05  3.45071e-06     -5.20654 
         200      13.1975 -2.67868e-05  3.31504e-06     -5.20654 
         200      13.3092 -2.69172e-05  3.18338e-06     -5.20654 
         200      13.4212 -2.70486e-05  3.05992e-06     -5.20653 
         200      13.5338 -2.71728e-05  2.94646e-06     -5.20653 
         200      13.6468 -2.72849e-05  2.84326e-06     -5.20653 
         200      13.7603  -2.7384e-05  2.74897e-06     -5.20653 
         200      13.8743 -2.74729e-05  2.66074e-06     -5.20653 
         200      13.9886  -2.7557e-05  2.57506e-06     -5.20653 
         200      14.1036 -2.76453e-05  2.48765e-06     -5.20653 
         200      14.2189 -2.77486e-05  2.39449e-06     -5.20653 
         200      14.3348 -2.78805e-05  2.29182e-06     -5.20652 
         200       14.451 -2.80251e-05  2.16593e-06     -5.20652 
         200      14.5678  -2.8129e-05  2.03578e-06     -5.20652 
         200      14.6851 -2.82039e-05  1.91254e-06     -5.20652 
         200      14.8028 -2.82608e-05  1.79675e-06     -5.20652 
         200       14.921 -2.83088e-05  1.68848e-06     -5.20652 
         200      15.0396 -2.83555e-05  1.58814e-06     -5.20651 
         200      15.1588  -2.8407e-05  1.49604e-06     -5.20651 
         200      15.2783 -2.84669e-05  1.41306e-06     -5.20651 
         200      15.3984 -2.85376e-05  1.34004e-06     -5.20651 
         200       15.519 -2.86191e-05  1.27817e-06     -5.20651 
         200        15.64 -2.87097e-05   1.2284e-06     -5.20651 
         200      15.7615 -2.88061e-05  1.19101e-06      -5.2065 
         200      15.8834 -2.89032e-05  1.16529e-06      -5.2065 
         200      16.0058 -2.89947e-05   1.1486e-06      -5.2065 
         200      16.1286 -2.90728e-05  1.13564e-06      -5.2065 
         200       16.252 -2.91292e-05  1.11732e-06      -5.2065 
         200      16.3759 -2.91549e-05  1.07953e-06      -5.2065 
         200      16.5002  -2.9141e-05  1.00177e-06     -5.20649 
         200       16.625  -2.9079e-05  8.55201e-07     -5.20649 
         200      16.7501 -2.91068e-05  7.79541e-07     -5.20649 
         200      16.8759  -2.9256e-05  8.35178e-07     -5.20649 
         200       17.002 -2.93695e-05   8.5118e-07     -5.20649 
         200      17.1287 -2.94528e-05  8.40216e-07     -5.20649 
         200      17.2557  -2.9511e-05  8.12814e-07     -5.20648 
         200      17.3834 -2.95499e-05  7.77395e-07     -5.20648 
         200      17.5115 -2.95747e-05  7.40486e-07     -5.20648 
         200      17.6399 -2.95904e-05  7.06771e-07     -5.20648 
         200       17.769 -2.96016e-05  6.79149e-07     -5.20648 
         200      17.8984 -2.96121e-05  6.59067e-07     -5.20647 
         200      18.0284 -2.96251e-05  6.46546e-07     -5.20647 
         200      18.1587  -2.9643e-05  6.40518e-07     -5.20647 
         200      18.2896 -2.96672e-05  6.38995e-07     -5.20647 
         200       18.421 -2.96979e-05  6.39386e-07     -5.20647 
         200      18.5528 -2.97346e-05  6.38787e-07     -5.20646 
         200      18.6851 -2.97757e-05  6.34326e-07     -5.20646 
         200      18.8178 -2.98184e-05  6.23557e-07     -5.20646 
         200      18.9511 -2.98591e-05  6.04832e-07     -5.20646 
         200      19.0847 -2.98934e-05  5.77832e-07     -5.20646 
         200      19.2189 -2.99159e-05  5.43941e-07     -5.20645 
         200      19.3535 -2.99208e-05  5.06947e-07     -5.20645 
         200      19.4886 -2.99018e-05  4.73423e-07     -5.20645 
         200      19.6242 -2.98526e-05  4.53562e-07     -5.20645 
         200      19.7602 -2.97669e-05  4.61707e-07     -5.20644 
         200      19.8968 -2.96388e-05  5.17154e-07     -5.20644 
         200      20.0337 -2.95486e-05  5.23103e-07     -5.20644 
         200      20.1712 -2.95857e-05  3.61219e-07     -5.20644 
         200      20.3091 -2.95729e-05  2.74524e-07     -5.20644 
         200      20.4475 -2.95225e-05   2.3674e-07     -5.20643 
         200      20.5864  -2.9448e-05  2.26223e-07     -5.20643 
         200      20.7257 -2.93639e-05  2.25733e-07     -5.20643 
         200      20.8655 -2.92862e-05  2.22601e-07     -5.20643 
         200      21.0058 -2.92335e-05  2.08781e-07     -5.20642 
         200      21.1465 -2.92269e-05  1.80815e-07     -5.20642 
         200      21.2877 -2.92909e-05  1.39931e-07     -5.20642 
         200      21.4294  -2.9204e-05  6.37136e-08     -5.20642 
         200      21.5716 -2.91265e-05  7.72709e-08     -5.20641 
         200      21.7142  -2.9082e-05  1.44702e-07     -5.20641 
         200      21.8573 -2.90629e-05  2.30625e-07     -5.20641 
         200      22.0008 -2.90621e-05  3.10595e-07     -5.20641 
         200      22.1449 -2.90727e-05  3.69826e-07      -5.2064 
         200      22.2893 -2.90887e-05  4.01052e-07      -5.2064 
         200      22.4344 -2.91049e-05  4.03286e-07      -5.2064 
         200      22.5797 -2.91173e-05  3.80105e-07      -5.2064 
         200      22.7257  -2.9123e-05  3.38261e-07     -5.20639 
         200      22.8721 -2.91204e-05   2.8645e-07     -5.20639 
         200      23.0189 -2.91092e-05  2.34087e-07     -5.20639 
         200      23.1663 -2.90903e-05  1.90081e-07     -5.20638 
         200       23.314 -2.90656e-05  1.62172e-07     -5.20638 
         200      23.4623 -2.90379e-05  1.55896e-07     -5.20638 
         200       23.611 -2.90108e-05  1.74122e-07     -5.20638 
         200      23.7602 -2.89879e-05  2.16573e-07     -5.20637 
         200        23.91 -2.89727e-05  2.79511e-07     -5.20637 
         200        24.06 -2.89682e-05  3.55642e-07     -5.20637 
         200      24.2107 -2.89758e-05  4.34529e-07     -5.20636 
         200      24.3617  -2.8995e-05  5.02546e-07     -5.20636 
         200      24.5133 -2.90226e-05  5.43958e-07     -5.20636 
         200      24.6653 -2.90513e-05  5.41422e-07     -5.20635 
         200      24.8178 -2.90692e-05  4.77345e-07     -5.20635 
         200      24.9708 -2.90585e-05  3.35254e-07     -5.20635 
         200      25.1242 -2.89939e-05  1.01825e-07     -5.20634 
         200      25.2781 -2.88439e-05 -2.13902e-07     -5.20634 
         200      25.4324 -2.87945e-05 -1.22421e-07     -5.20634 
         200      25.5873 -2.88804e-05 -6.47668e-08     -5.20634 
         200      25.7426 -2.90364e-05 -3.17844e-08     -5.20633 
         200      25.8984 -2.91622e-05 -3.65934e-08     -5.20633 
         200      26.0546 -2.91941e-05 -1.15889e-07     -5.20633 
         200      26.2114 -2.91937e-05  -2.2175e-07     -5.20632 
         200      26.3686 -2.91766e-05 -3.37232e-07     -5.20632 
         200      26.5262  -2.9154e-05 -4.49536e-07     -5.20631 
         200      26.6844 -2.91335e-05 -5.49848e-07     -5.20631 
         200      26.8429 -2.91193e-05 -6.32262e-07     -5.20631 
         200       27.002 -2.91134e-05 -6.93952e-07      -5.2063 
         200      27.1615 -2.91154e-05 -7.34212e-07      -5.2063 
         200      27.3216 -2.91238e-05  -7.5443e-07      -5.2063 
         200      27.4821 -2.91356e-05 -7.57416e-07     -5.20629 
         200       27.643 -2.91476e-05 -7.47169e-07     -5.20629 
         200      27.8044 -2.91561e-05 -7.28433e-07     -5.20629 
         200      27.9663 -2.91577e-05 -7.06424e-07     -5.20628 
         200      28.1287 -2.91495e-05 -6.86416e-07     -5.20628 
         200      28.2914 -2.91292e-05 -6.73575e-07     -5.20628 
         200      28.4548 -2.90953e-05 -6.72589e-07     -5.20627 
         200      28.6185 -2.90477e-05 -6.87515e-07     -5.20627 
         200      28.7828 -2.89869e-05  -7.2159e-07     -5.20626 
         200      28.9475  -2.8915e-05  -7.7703e-07     -5.20626 
         200      29.1126  -2.8835e-05 -8.54876e-07     -5.20626 
         200      29.2784 -2.88034e-05 -9.74076e-07     -5.20625 
         200      29.4444 -2.87938e-05 -1.09439e-06     -5.20625 
         200       29.611 -2.87933e-05  -1.2021e-06     -5.20624 
         200       29.778 -2.88041e-05 -1.29231e-06     -5.20624 
         200      29.9456 -2.88277e-05 -1.36081e-06     -5.20624 
         200      30.1137 -2.88646e-05 -1.40421e-06     -5.20623 
         200      30.2821  -2.8914e-05 -1.42094e-06     -5.20623 
         200      30.4511 -2.89733e-05 -1.41216e-06     -5.20622 
         200      30.6204 -2.90378e-05 -1.38265e-06     -5.20622 
         200      30.7903 -2.91007e-05 -1.34197e-06     -5.20621 
         200      30.9606 -2.91518e-05 -1.30587e-06     -5.20621 
         200      31.1315 -2.91782e-05 -1.29756e-06     -5.20621 
         200      31.3028 -2.91627e-05 -1.34948e-06      -5.2062 
         200      31.4745 -2.90403e-05 -1.39762e-06      -5.2062 
         200      31.6468 -2.88073e-05 -1.33711e-06     -5.20619 
         200      31.8194   -2.865e-05  -1.4123e-06     -5.20619 
         200      31.9926 -2.87972e-05 -1.26784e-06     -5.20618 
         200      32.1662 -2.88635e-05 -1.18599e-06     -5.20618 
         200      32.3404 -2.88752e-05 -1.15061e-06     -5.20618 
         200      32.5149 -2.88535e-05 -1.14861e-06     -5.20617 
         200        32.69 -2.88146e-05 -1.16936e-06     -5.20617 
         200      32.8655 -2.87709e-05 -1.20444e-06     -5.20616 
         200      33.0414 -2.87309e-05 -1.24726e-06     -5.20616 
         200       33.218 -2.87001e-05   -1.293e-06     -5.20615 
         200      33.3948 -2.86815e-05   -1.338e-06     -5.20615 
         200      33.5723 -2.86761e-05 -1.37987e-06     -5.20614 
         200        33.75 -2.86829e-05 -1.41691e-06     -5.20614 
         200      33.9284 -2.86999e-05 -1.44822e-06     -5.20613 
         200      34.1073 -2.87244e-05 -1.47325e-06     -5.20613 
         200      34.2865 -2.87531e-05 -1.49178e-06     -5.20612 
         200      34.4663 -2.87824e-05 -1.50378e-06     -5.20612 
         200      34.6465 -2.88093e-05 -1.50923e-06     -5.20611 
         200      34.8272 -2.88308e-05 -1.50812e-06     -5.20611 
         200      35.0083 -2.88447e-05 -1.50034e-06      -5.2061 
         200        35.19 -2.88497e-05 -1.48569e-06      -5.2061 
         200      35.3721 -2.88452e-05  -1.4639e-06     -5.20609 
         200      35.5546 -2.88317e-05 -1.43473e-06     -5.20609 
         200      35.7377 -2.88107e-05 -1.39795e-06     -5.20608 
         200      35.9211 -2.87847e-05 -1.35364e-06     -5.20608 
         200      36.1052 -2.87568e-05 -1.30219e-06     -5.20607 
         200      36.2895 -2.87312e-05 -1.24476e-06     -5.20607 
         200      36.4745 -2.87121e-05 -1.18323e-06     -5.20606 
         200      36.6598 -2.87042e-05 -1.12092e-06     -5.20605 
         200      36.8457 -2.87119e-05 -1.06257e-06     -5.20605 
         200      37.0321 -2.87389e-05  -1.0151e-06     -5.20604 
         200      37.2188 -2.87877e-05 -9.87934e-07     -5.20604 
         200      37.4062 -2.88591e-05 -9.93506e-07     -5.20603 
         200      37.5938 -2.89512e-05 -1.04797e-06     -5.20603 
         200      37.7821 -2.90591e-05 -1.17194e-06     -5.20602 
         200      37.9707 -2.91735e-05 -1.39083e-06     -5.20602 
         200      38.1599 -2.91586e-05 -1.33368e-06     -5.20601 
         200      38.3496 -2.90644e-05 -1.13017e-06       -5.206 
         200      38.5396 -2.89573e-05 -1.02204e-06       -5.206 
         200      38.7302 -2.88153e-05 -9.84206e-07     -5.20599 
         200      38.9211 -2.86193e-05 -1.00005e-06     -5.20599 
         200      39.1127 -2.83523e-05 -1.06047e-06     -5.20598 
         200      39.3046 -2.84219e-05 -1.12228e-06     -5.20597 
         200      39.4971 -2.85293e-05 -1.14259e-06     -5.20597 
         200      39.6899 -2.86044e-05 -1.13698e-06     -5.20596 
         200      39.8833 -2.86532e-05 -1.11758e-06     -5.20596 
         200      40.0772 -2.86811e-05 -1.09351e-06     -5.20595 
         200      40.2714 -2.86926e-05 -1.07135e-06     -5.20594 
         200      40.4663 -2.86919e-05 -1.05536e-06     -5.20594 
         200      40.6615 -2.86824e-05 -1.04793e-06     -5.20593 
         200      40.8573 -2.86669e-05 -1.04985e-06     -5.20593 
         200      41.0534 -2.86478e-05 -1.06063e-06     -5.20592 
         200      41.2501 -2.86272e-05 -1.07882e-06     -5.20591 
         200      41.4473 -2.86065e-05 -1.10223e-06     -5.20591 
         200      41.6448  -2.8587e-05 -1.12819e-06      -5.2059 
         200      41.8429 -2.85694e-05 -1.15389e-06     -5.20589 
         200      42.0414 -2.85545e-05 -1.17643e-06     -5.20589 
         200      42.2405 -2.85425e-05 -1.19316e-06     -5.20588 
         200      42.4399 -2.85335e-05 -1.20172e-06     -5.20587 
         200      42.6399 -2.85276e-05 -1.20026e-06     -5.20587 
         200      42.8404 -2.85246e-05 -1.18754e-06     -5.20586 
         200      43.0412 -2.85242e-05 -1.16301e-06     -5.20585 
         200      43.2426  -2.8526e-05  -1.1268e-06     -5.20585 
         200      43.4444 -2.85298e-05 -1.07987e-06     -5.20584 
         200      43.6467  -2.8535e-05 -1.02382e-06     -5.20583 
         200      43.8494 -2.85414e-05 -9.61085e-07     -5.20583 
         200      44.0527 -2.85486e-05 -8.94516e-07     -5.20582 
         200      44.2563 -2.85563e-05 -8.27649e-07     -5.20581 
         200      44.4606 -2.85643e-05 -7.64122e-07      -5.2058 
         200      44.6653 -2.85724e-05 -7.07839e-07      -5.2058 
         200      44.8704 -2.85805e-05 -6.62529e-07     -5.20579 
         200       45.076 -2.85888e-05 -6.31367e-07     -5.20578 
         200       45.282 -2.85974e-05 -6.16849e-07     -5.20578 
         200      45.4886 -2.86066e-05 -6.20204e-07     -5.20577 
         200      45.6955 -2.86167e-05 -6.41029e-07     -5.20576 
         200       45.903 -2.86281e-05 -6.76811e-07     -5.20575 
         200      46.1111 -2.86415e-05 -7.22273e-07     -5.20575 
         200      46.3194 -2.86574e-05 -7.68774e-07     -5.20574 
         200      46.5283 -2.86766e-05 -8.03774e-07     -5.20573 
         200      46.7376 -2.86996e-05 -8.09855e-07     -5.20572 
         200      46.9475 -2.87273e-05 -7.64078e-07     -5.20572 
         200      47.1577  -2.8732e-05 -7.91308e-07     -5.20571 
         200      47.3685 -2.87068e-05 -8.45732e-07      -5.2057 
         200      47.5798 -2.86655e-05  -8.8568e-07     -5.20569 
         200      47.7914 -2.86153e-05 -9.21555e-07     -5.20569 
         200      48.0037 -2.85632e-05 -9.59764e-07     -5.20568 