Variables = x, y, u, v, p

Zone, I=800, F=POINT
         800            0           -0           -0     -52.6784 
         800     0.000234 -1.58565e-05 -2.81155e-11     -52.6784 
         800     0.000939 -5.92451e-05 -4.56489e-10     -52.6784 
         800     0.002113 -0.000118079 -2.30384e-09     -52.6784 
         800     0.003759 -0.000176203 -7.24104e-09     -52.6784 
         800     0.005872 -0.000217371 -1.75027e-08     -52.6784 
         800     0.008457 -0.000230321  -3.5876e-08     -52.6784 
         800      0.01151 -0.000211559 -6.55171e-08     -52.6784 
         800     0.015036 -0.000166333 -1.09973e-07     -52.6784 
         800     0.019031 -0.000106667 -1.72881e-07     -52.6784 
         800     0.023493 -4.66557e-05 -2.57917e-07     -52.6784 
         800     0.028429  3.50244e-06 -3.68847e-07     -52.6784 
         800     0.033831  4.21039e-05 -5.08875e-07     -52.6784 
         800     0.039706  7.75564e-05  -6.8116e-07     -52.6784 
         800     0.046047   0.00012371  -8.8793e-07     -52.6784 
         800     0.052863  0.000189815 -1.13123e-06     -52.6784 
         800      0.06015  0.000268367 -1.41187e-06     -52.6784 
         800       0.0679  0.000333288  -1.7295e-06     -52.6784 
         800     0.076126  0.000372036 -2.08362e-06     -52.6784 
         800     0.084816  0.000461899 -2.47154e-06     -52.6784 
         800     0.093982  0.000519332 -2.89045e-06     -52.6784 
         800     0.103611  0.000583595 -3.33523e-06     -52.6784 
         800     0.113718  0.000650908 -3.80084e-06     -52.6784 
         800     0.124286  0.000718256 -4.27963e-06     -52.6784 
         800     0.135333  0.000783935 -4.76437e-06     -52.6784 
         800      0.14685  0.000847085  -5.2456e-06     -52.6784 
         800     0.158827   0.00090761 -5.71297e-06     -52.6784 
         800     0.171284  0.000965897 -6.15649e-06     -52.6784 
         800     0.184201   0.00102198 -6.56411e-06     -52.6784 
         800     0.197599   0.00107552 -6.92466e-06     -52.6784 
         800     0.211455   0.00112531 -7.22549e-06     -52.6784 
         800     0.225792   0.00117025 -7.45493e-06     -52.6784 
         800       0.2406   0.00121073 -7.60061e-06     -52.6784 
         800     0.255865   0.00124912 -7.65072e-06     -52.6784 
         800     0.271613   0.00128171  -7.5945e-06     -52.6784 
         800     0.287818    0.0013101 -7.42141e-06     -52.6784 
         800     0.304506   0.00133424 -7.12149e-06     -52.6784 
         800      0.32165   0.00135409 -6.68654e-06     -52.6784 
         800     0.339278   0.00136976 -6.10836e-06     -52.6784 
         800     0.357377   0.00138134 -5.38094e-06     -52.6784 
         800      0.37593   0.00138901 -4.50021e-06     -52.6784 
         800     0.394968   0.00139303 -3.46118e-06     -52.6784 
         800     0.414461   0.00139366 -2.26331e-06     -52.6784 
         800      0.43444    0.0013912 -9.03895e-07     -52.6784 
         800     0.454872   0.00138597  6.14312e-07     -52.6784 
         800     0.475791   0.00137828  2.29206e-06     -52.6784 
         800     0.497163   0.00136845  4.12365e-06     -52.6784 
         800     0.519021   0.00135675  6.10777e-06     -52.6784 
         800      0.54135   0.00134348  8.23783e-06     -52.6784 
         800     0.564131   0.00132892  1.05053e-05     -52.6784 
         800       0.5874   0.00131335  1.29057e-05     -52.6784 
         800     0.611121   0.00129713  1.54251e-05     -52.6784 
         800      0.63533   0.00128025    1.806e-05     -52.6784 
         800      0.65999   0.00126308  2.08033e-05     -52.6784 
         800     0.685139   0.00124573  2.36469e-05     -52.6784 
         800     0.710759   0.00122829  2.65767e-05     -52.6784 
         800     0.736828   0.00121087  2.95779e-05     -52.6784 
         800     0.763387   0.00119347  3.26438e-05     -52.6784 
         800     0.790396   0.00117614  3.57581e-05     -52.6784 
         800     0.817896   0.00115886  3.89147e-05     -52.6784 
         800     0.845843   0.00114162   4.2098e-05     -52.6784 
         800     0.874283   0.00112434  4.53031e-05     -52.6784 
         800      0.90317   0.00110698  4.85154e-05     -52.6784 
         800     0.932551   0.00108942   5.1731e-05     -52.6784 
         800     0.962401   0.00107159  5.49386e-05     -52.6784 
         800     0.992697    0.0010534  5.81281e-05     -52.6784 
         800      1.02349   0.00103472  6.12971e-05     -52.6784 
         800      1.05472   0.00101549  6.44338e-05     -52.6784 
         800      1.08645  0.000995583  6.75374e-05     -52.6784 
         800      1.11863  0.000974974  7.05972e-05     -52.6784 
         800       1.1513  0.000953581  7.36138e-05     -52.6784 
         800      1.18444  0.000931399  7.65808e-05     -52.6784 
         800      1.21802  0.000908455  7.94934e-05     -52.6784 
         800      1.25211  0.000884747  8.23552e-05     -52.6784 
         800      1.28663  0.000860382  8.51616e-05     -52.6784 
         800      1.32165  0.000835411    8.792e-05     -52.6784 
         800      1.35712  0.000809985  9.06311e-05     -52.6784 
         800      1.39308  0.000784182  9.33076e-05     -52.6784 
         800      1.42951   0.00075813  9.59602e-05     -52.6784 
         800      1.46638   0.00073193   9.8605e-05     -52.6784 
         800      1.50375  0.000705562  0.000101271     -52.6784 
         800      1.54156   0.00067878  0.000103731     -52.6784 
         800      1.57987  0.000652476  0.000106219     -52.6784 
         800      1.61863   0.00062667  0.000108739     -52.6784 
         800      1.65788  0.000601256  0.000111281     -52.6784 
         800      1.69757  0.000576211  0.000113832     -52.6784 
         800      1.73776  0.000551432  0.000116385     -52.6784 
         800      1.77842  0.000526879  0.000118931     -52.6784 
         800      1.81952  0.000502515  0.000121459     -52.6784 
         800      1.86113  0.000478245  0.000123969     -52.6784 
         800      1.90316  0.000454057   0.00012645     -52.6784 
         800      1.94571  0.000429865  0.000128903     -52.6784 
         800      1.98869  0.000405665   0.00013132     -52.6784 
         800      2.03217  0.000381379  0.000133703     -52.6784 
         800      2.07612  0.000356991  0.000136049     -52.6784 
         800      2.12051  0.000332492  0.000138354     -52.6784 
         800       2.1654  0.000307818  0.000140621     -52.6784 
         800      2.21073  0.000282988  0.000142847     -52.6784 
         800      2.25656   0.00025795  0.000145035     -52.6784 
         800      2.30283  0.000232734  0.000147181     -52.6784 
         800       2.3496  0.000207298   0.00014929     -52.6784 
         800      2.39685  0.000181663  0.000151357     -52.6784 
         800      2.44452   0.00015586  0.000153382     -52.6785 
         800      2.49271   0.00012986  0.000155366     -52.6785 
         800      2.54132  0.000103723  0.000157305     -52.6785 
         800      2.59044  7.74321e-05  0.000159198     -52.6785 
         800         2.64  5.10568e-05  0.000161039     -52.6785 
         800      2.69006  2.45892e-05  0.000162827     -52.6785 
         800      2.74056 -1.89139e-06  0.000164554     -52.6785 
         800      2.79156 -2.83859e-05  0.000166218     -52.6785 
         800      2.84304 -5.48287e-05  0.000167809     -52.6785 
         800      2.89494 -8.11522e-05  0.000169321     -52.6785 
         800      2.94735 -0.000107349  0.000170748     -52.6785 
         800       3.0002 -0.000133328   0.00017208     -52.6785 
         800      3.05355 -0.000159078  0.000173314     -52.6785 
         800      3.10733 -0.000184509  0.000174441     -52.6785 
         800      3.16163 -0.000209612  0.000175459     -52.6785 
         800      3.21639  -0.00023432  0.000176366     -52.6785 
         800      3.27158 -0.000258569  0.000177162     -52.6785 
         800      3.32729  -0.00028236  0.000177856     -52.6785 
         800      3.38342 -0.000305622  0.000178457     -52.6785 
         800      3.44007 -0.000328365  0.000178987     -52.6785 
         800      3.49714 -0.000350536  0.000179472     -52.6785 
         800      3.55472 -0.000372162  0.000179952     -52.6785 
         800      3.61273 -0.000393213  0.000180478     -52.6785 
         800      3.67125 -0.000413737  0.000181119     -52.6785 
         800      3.73025 -0.000433751  0.000181962     -52.6785 
         800      3.78967 -0.000453253  0.000182212     -52.6785 
         800      3.84961 -0.000471885  0.000182038     -52.6785 
         800      3.90996 -0.000489551   0.00018182     -52.6785 
         800      3.97084 -0.000506285  0.000181557     -52.6785 
         800      4.03214 -0.000522068  0.000181248     -52.6785 
         800      4.09395 -0.000536934  0.000180891     -52.6785 
         800      4.15624 -0.000550881  0.000180486     -52.6785 
         800      4.21895 -0.000563911  0.000180031     -52.6785 
         800      4.28217 -0.000576057  0.000179527     -52.6785 
         800      4.34582 -0.000587316  0.000178973     -52.6785 
         800      4.40998 -0.000597722  0.000178368     -52.6785 
         800      4.47457 -0.000607275  0.000177715     -52.6786 
         800      4.53968 -0.000616009  0.000177012     -52.6786 
         800      4.60525 -0.000623937   0.00017626     -52.6786 
         800      4.67125 -0.000631073   0.00017546     -52.6786 
         800      4.73777 -0.000637451  0.000174614     -52.6786 
         800       4.8047 -0.000643085  0.000173723     -52.6786 
         800      4.87216 -0.000648007  0.000172787     -52.6786 
         800      4.94003 -0.000652234  0.000171809     -52.6786 
         800      5.00843 -0.000655798   0.00017079     -52.6786 
         800      5.07724 -0.000658721  0.000169733     -52.6786 
         800      5.14658 -0.000661033  0.000168639     -52.6786 
         800      5.21639  -0.00066276   0.00016751     -52.6786 
         800      5.28661 -0.000663928  0.000166351     -52.6786 
         800      5.35736 -0.000664568  0.000165161     -52.6786 
         800      5.42852 -0.000664707  0.000163945     -52.6786 
         800      5.50021 -0.000664374  0.000162703     -52.6786 
         800      5.57231 -0.000663598  0.000161442     -52.6786 
         800      5.64493 -0.000662405   0.00016016     -52.6786 
         800      5.71803 -0.000660844  0.000158851     -52.6786 
         800      5.79154 -0.000658925  0.000157539     -52.6786 
         800      5.86558 -0.000656673  0.000156225     -52.6786 
         800      5.94003 -0.000654119  0.000154911     -52.6786 
         800      6.01501 -0.000651283  0.000153597     -52.6786 
         800       6.0904 -0.000648198  0.000152287     -52.6786 
         800      6.16632 -0.000644883  0.000150978     -52.6786 
         800      6.24271 -0.000641366  0.000149673     -52.6786 
         800       6.3195 -0.000637672  0.000148374     -52.6786 
         800      6.39683 -0.000633819  0.000147078     -52.6787 
         800      6.47457 -0.000629834  0.000145788     -52.6787 
         800      6.55284 -0.000625731  0.000144502     -52.6787 
         800      6.63152 -0.000621537  0.000143222     -52.6787 
         800      6.71073 -0.000617262  0.000141945     -52.6787 
         800      6.79034  -0.00061293  0.000140675     -52.6787 
         800      6.87049  -0.00060855  0.000139408     -52.6787 
         800      6.95111 -0.000604139  0.000138146     -52.6787 
         800      7.03214 -0.000599713  0.000136888     -52.6787 
         800       7.1137 -0.000595277  0.000135634     -52.6787 
         800      7.19566 -0.000590847  0.000134383     -52.6787 
         800      7.27816 -0.000586425  0.000133135     -52.6787 
         800      7.36106 -0.000582025  0.000131891     -52.6787 
         800      7.44451 -0.000577646  0.000130648     -52.6787 
         800      7.52842 -0.000573297  0.000129408     -52.6787 
         800      7.61273 -0.000568985  0.000128172     -52.6787 
         800      7.69758 -0.000564706  0.000126938     -52.6787 
         800      7.78283 -0.000560469  0.000125707     -52.6787 
         800      7.86862 -0.000556268  0.000124479     -52.6787 
         800      7.95481 -0.000552112  0.000123256     -52.6787 
         800      8.04155 -0.000547996  0.000122036     -52.6787 
         800      8.12868 -0.000543926  0.000120822     -52.6787 
         800      8.21635   -0.0005399  0.000119612     -52.6787 
         800      8.30449 -0.000535922   0.00011841     -52.6787 
         800      8.39303 -0.000532001  0.000117217     -52.6787 
         800      8.48211 -0.000528136  0.000116031     -52.6787 
         800      8.57159 -0.000524341  0.000114858     -52.6787 
         800      8.66161 -0.000520622  0.000113695     -52.6787 
         800      8.75203 -0.000516981  0.000112546     -52.6787 
         800      8.84299 -0.000513023  0.000111392     -52.6787 
         800      8.93443 -0.000509166  0.000110217     -52.6787 
         800      9.02626 -0.000505403  0.000109029     -52.6787 
         800      9.11863 -0.000501721  0.000107833     -52.6788 
         800      9.21139 -0.000498119  0.000106633     -52.6788 
         800      9.30471 -0.000494584  0.000105433     -52.6788 
         800      9.39841 -0.000491116  0.000104236     -52.6788 
         800      9.49267 -0.000487703  0.000103045     -52.6788 
         800      9.58739 -0.000484343  0.000101861     -52.6788 
         800      9.68251 -0.000481033  0.000100686     -52.6788 
         800      9.77817 -0.000477765  9.95211e-05     -52.6788 
         800      9.87422  -0.00047454  9.83675e-05     -52.6788 
         800      9.97083 -0.000471348  9.72242e-05     -52.6788 
         800      10.0678 -0.000468193  9.60931e-05     -52.6788 
         800      10.1654 -0.000465065  9.49725e-05     -52.6788 
         800      10.2633 -0.000461969  9.38645e-05     -52.6788 
         800      10.3618 -0.000458897  9.27675e-05     -52.6788 
         800      10.4607 -0.000455849  9.16827e-05     -52.6788 
         800      10.5601 -0.000452826  9.06117e-05     -52.6788 
         800        10.66 -0.000449821   8.9554e-05     -52.6788 
         800      10.7603 -0.000446839   8.8513e-05     -52.6788 
         800      10.8611 -0.000443961  8.74129e-05     -52.6788 
         800      10.9623 -0.000441114  8.63335e-05     -52.6788 
         800      11.0641 -0.000438293  8.52727e-05     -52.6788 
         800      11.1663 -0.000435504  8.42291e-05     -52.6788 
         800       11.269 -0.000432752  8.32015e-05     -52.6788 
         800      11.3721 -0.000430037  8.21861e-05     -52.6788 
         800      11.4757 -0.000427365  8.11828e-05     -52.6788 
         800      11.5798 -0.000424733  8.01885e-05     -52.6788 
         800      11.6844 -0.000422149  7.92033e-05     -52.6788 
         800      11.7894 -0.000419608  7.82247e-05     -52.6788 
         800       11.895 -0.000417113  7.72525e-05     -52.6788 
         800      12.0009 -0.000414667  7.62871e-05     -52.6788 
         800      12.1073 -0.000412266  7.53264e-05     -52.6788 
         800      12.2142 -0.000409911  7.43721e-05     -52.6788 
         800      12.3216 -0.000407597  7.34228e-05     -52.6788 
         800      12.4294 -0.000405327  7.24803e-05     -52.6788 
         800      12.5378 -0.000403093  7.15437e-05     -52.6788 
         800      12.6465 -0.000400897  7.06151e-05     -52.6788 
         800      12.7558 -0.000398732  6.96937e-05     -52.6788 
         800      12.8656 -0.000396596  6.87808e-05     -52.6788 
         800      12.9757 -0.000394488  6.78777e-05     -52.6788 
         800      13.0864 -0.000392403  6.69834e-05     -52.6788 
         800      13.1975 -0.000390339   6.6099e-05     -52.6788 
         800      13.3092 -0.000388294  6.52229e-05     -52.6788 
         800      13.4212 -0.000386269  6.43551e-05     -52.6788 
         800      13.5338 -0.000384261  6.34925e-05     -52.6789 
         800      13.6468 -0.000382275  6.26329e-05     -52.6789 
         800      13.7603 -0.000380316  6.17728e-05     -52.6789 
         800      13.8743 -0.000378388  6.09055e-05     -52.6789 
         800      13.9886 -0.000376504  6.00251e-05     -52.6789 
         800      14.1036 -0.000374675  5.91214e-05     -52.6789 
         800      14.2189  -0.00037292  5.81843e-05     -52.6789 
         800      14.3348 -0.000371259  5.71986e-05     -52.6789 
         800       14.451 -0.000369606   5.6347e-05     -52.6789 
         800      14.5678 -0.000367886   5.5676e-05     -52.6789 
         800      14.6851 -0.000366205  5.49775e-05     -52.6789 
         800      14.8028 -0.000364559  5.42575e-05     -52.6789 
         800       14.921 -0.000362944  5.35197e-05     -52.6789 
         800      15.0396  -0.00036136  5.27697e-05     -52.6789 
         800      15.1588 -0.000359803  5.20105e-05     -52.6789 
         800      15.2783 -0.000358272  5.12468e-05     -52.6789 
         800      15.3984 -0.000356766  5.04806e-05     -52.6789 
         800       15.519 -0.000355284  4.97154e-05     -52.6789 
         800        15.64 -0.000353827  4.89542e-05     -52.6789 
         800      15.7615 -0.000352391  4.81978e-05     -52.6789 
         800      15.8834  -0.00035098  4.74494e-05     -52.6789 
         800      16.0058 -0.000349591  4.67092e-05     -52.6789 
         800      16.1286 -0.000348227  4.59795e-05     -52.6789 
         800       16.252 -0.000346885  4.52601e-05     -52.6789 
         800      16.3759 -0.000345567  4.45524e-05     -52.6789 
         800      16.5002 -0.000344274  4.38572e-05     -52.6789 
         800       16.625 -0.000343006  4.31739e-05     -52.6789 
         800      16.7501 -0.000341763  4.25035e-05     -52.6789 
         800      16.8759 -0.000340546   4.1845e-05     -52.6789 
         800       17.002 -0.000339356  4.11991e-05     -52.6789 
         800      17.1287 -0.000338191  4.05646e-05     -52.6789 
         800      17.2557 -0.000337054   3.9942e-05     -52.6789 
         800      17.3834 -0.000335942    3.933e-05     -52.6789 
         800      17.5115 -0.000334857  3.87283e-05     -52.6789 
         800      17.6399 -0.000333799   3.8137e-05     -52.6789 
         800       17.769 -0.000332766  3.75545e-05     -52.6789 
         800      17.8984  -0.00033176  3.69811e-05     -52.6789 
         800      18.0284 -0.000330777  3.64153e-05     -52.6789 
         800      18.1587 -0.000329818  3.58574e-05     -52.6789 
         800      18.2896 -0.000328881  3.53061e-05     -52.6789 
         800       18.421 -0.000327965  3.47613e-05     -52.6789 
         800      18.5528  -0.00032707  3.42231e-05     -52.6789 
         800      18.6851 -0.000326193  3.36902e-05     -52.6789 
         800      18.8178 -0.000325333  3.31631e-05     -52.6789 
         800      18.9511 -0.000324488   3.2641e-05     -52.6789 
         800      19.0847 -0.000323656  3.21244e-05     -52.6789 
         800      19.2189 -0.000322835  3.16125e-05     -52.6789 
         800      19.3535 -0.000322026  3.11062e-05     -52.6789 
         800      19.4886 -0.000321224  3.06048e-05     -52.6789 
         800      19.6242 -0.000320429  3.01088e-05     -52.6789 
         800      19.7602 -0.000319641  2.96189e-05     -52.6789 
         800      19.8968 -0.000318858  2.91344e-05     -52.6789 
         800      20.0337  -0.00031808  2.86564e-05     -52.6789 
         800      20.1712 -0.000317308  2.81844e-05     -52.6789 
         800      20.3091 -0.000316542  2.77193e-05     -52.6789 
         800      20.4475 -0.000315784  2.72604e-05     -52.6789 
         800      20.5864 -0.000315037  2.68082e-05     -52.6789 
         800      20.7257 -0.000314305  2.63628e-05      -52.679 
         800      20.8655 -0.000313592  2.59231e-05      -52.679 
         800      21.0058 -0.000312905  2.54894e-05      -52.679 
         800      21.1465 -0.000312322  2.49818e-05      -52.679 
         800      21.2877  -0.00031181  2.45121e-05      -52.679 
         800      21.4294 -0.000311361  2.41192e-05      -52.679 
         800      21.5716 -0.000310985  2.38215e-05      -52.679 
         800      21.7142 -0.000310689  2.36399e-05      -52.679 
         800      21.8573 -0.000310117  2.31106e-05      -52.679 
         800      22.0008 -0.000309524  2.25182e-05      -52.679 
         800      22.1449 -0.000308982  2.19722e-05      -52.679 
         800      22.2893 -0.000308414   2.1509e-05      -52.679 
         800      22.4344 -0.000307809  2.11273e-05      -52.679 
         800      22.5797 -0.000307254  2.07668e-05      -52.679 
         800      22.7257 -0.000306739  2.04231e-05      -52.679 
         800      22.8721 -0.000306255  2.00931e-05      -52.679 
         800      23.0189 -0.000305795  1.97744e-05      -52.679 
         800      23.1663 -0.000305355  1.94642e-05      -52.679 
         800       23.314 -0.000304929  1.91609e-05      -52.679 
         800      23.4623 -0.000304513  1.88627e-05      -52.679 
         800       23.611 -0.000304106  1.85689e-05      -52.679 
         800      23.7602 -0.000303704   1.8278e-05      -52.679 
         800        23.91 -0.000303306  1.79899e-05      -52.679 
         800        24.06 -0.000302912  1.77043e-05      -52.679 
         800      24.2107 -0.000302522  1.74207e-05      -52.679 
         800      24.3617 -0.000302135  1.71394e-05      -52.679 
         800      24.5133 -0.000301752  1.68602e-05      -52.679 
         800      24.6653 -0.000301373  1.65838e-05      -52.679 
         800      24.8178 -0.000301001    1.631e-05      -52.679 
         800      24.9708 -0.000300635  1.60393e-05      -52.679 
         800      25.1242 -0.000300278  1.57722e-05      -52.679 
         800      25.2781 -0.000299929  1.55087e-05      -52.679 
         800      25.4324 -0.000299591  1.52495e-05      -52.679 
         800      25.5873 -0.000299263  1.49943e-05      -52.679 
         800      25.7426 -0.000298948  1.47438e-05      -52.679 
         800      25.8984 -0.000298644  1.44976e-05      -52.679 
         800      26.0546 -0.000298354  1.42561e-05      -52.679 
         800      26.2114 -0.000298076  1.40187e-05      -52.679 
         800      26.3686  -0.00029781  1.37856e-05      -52.679 
         800      26.5262 -0.000297557  1.35565e-05      -52.679 
         800      26.6844 -0.000297315  1.33307e-05      -52.679 
         800      26.8429 -0.000297083  1.31082e-05      -52.679 
         800       27.002 -0.000296861  1.28881e-05      -52.679 
         800      27.1615 -0.000296646  1.26703e-05      -52.679 
         800      27.3216 -0.000296437  1.24537e-05      -52.679 
         800      27.4821 -0.000296232  1.22382e-05      -52.679 
         800       27.643  -0.00029603  1.20235e-05      -52.679 
         800      27.8044  -0.00029583   1.1809e-05      -52.679 
         800      27.9663 -0.000295629  1.15949e-05      -52.679 
         800      28.1287 -0.000295427   1.1381e-05      -52.679 
         800      28.2914 -0.000295223  1.11681e-05      -52.679 
         800      28.4548 -0.000295017  1.09567e-05      -52.679 
         800      28.6185 -0.000294809  1.07485e-05      -52.679 
         800      28.7828 -0.000294602   1.0545e-05      -52.679 
         800      28.9475 -0.000294399   1.0349e-05      -52.679 
         800      29.1126 -0.000294203   1.0164e-05     -52.6791 
         800      29.2784  -0.00029402   9.9939e-06     -52.6791 
         800      29.4444 -0.000293859  9.84443e-06     -52.6791 
         800       29.611 -0.000293728  9.72181e-06     -52.6791 
         800       29.778 -0.000293642  9.63413e-06     -52.6791 
         800      29.9456 -0.000293469  9.40323e-06     -52.6791 
         800      30.1137 -0.000293299   9.1735e-06     -52.6791 
         800      30.2821 -0.000293138  8.95349e-06     -52.6791 
         800      30.4511 -0.000292986   8.7439e-06     -52.6791 
         800      30.6204 -0.000292842  8.54575e-06     -52.6791 
         800      30.7903 -0.000292706  8.35906e-06     -52.6791 
         800      30.9606 -0.000292578  8.18414e-06     -52.6791 
         800      31.1315 -0.000292458  8.02049e-06     -52.6791 
         800      31.3028 -0.000292344  7.86777e-06     -52.6791 
         800      31.4745 -0.000292236  7.72539e-06     -52.6791 
         800      31.6468 -0.000292134  7.59228e-06     -52.6791 
         800      31.8194 -0.000292036  7.46767e-06     -52.6791 
         800      31.9926 -0.000291943  7.35027e-06     -52.6791 
         800      32.1662 -0.000291853  7.23912e-06     -52.6791 
         800      32.3404 -0.000291765  7.13283e-06     -52.6791 
         800      32.5149 -0.000291679  7.03037e-06     -52.6791 
         800        32.69 -0.000291594  6.93037e-06     -52.6791 
         800      32.8655  -0.00029151  6.83175e-06     -52.6791 
         800      33.0414 -0.000291426   6.7335e-06     -52.6791 
         800       33.218 -0.000291342  6.63445e-06     -52.6791 
         800      33.3948 -0.000291257  6.53385e-06     -52.6791 
         800      33.5723 -0.000291172  6.43077e-06     -52.6791 
         800        33.75 -0.000291086  6.32472e-06     -52.6791 
         800      33.9284 -0.000290998  6.21505e-06     -52.6791 
         800      34.1073  -0.00029091  6.10151e-06     -52.6791 
         800      34.2865 -0.000290821  5.98404e-06     -52.6791 
         800      34.4663 -0.000290732  5.86246e-06     -52.6791 
         800      34.6465 -0.000290643  5.73716e-06     -52.6791 
         800      34.8272 -0.000290554   5.6083e-06     -52.6791 
         800      35.0083 -0.000290467  5.47664e-06     -52.6791 
         800        35.19 -0.000290382  5.34265e-06     -52.6791 
         800      35.3721 -0.000290299  5.20728e-06     -52.6791 
         800      35.5546  -0.00029022  5.07163e-06     -52.6791 
         800      35.7377 -0.000290145  4.93657e-06     -52.6791 
         800      35.9211 -0.000290076  4.80348e-06     -52.6791 
         800      36.1052 -0.000290013   4.6734e-06     -52.6791 
         800      36.2895 -0.000289957  4.54777e-06     -52.6791 
         800      36.4745 -0.000289909  4.42764e-06     -52.6791 
         800      36.6598 -0.000289869  4.31438e-06     -52.6791 
         800      36.8457 -0.000289839  4.20887e-06     -52.6792 
         800      37.0321 -0.000289819   4.1121e-06     -52.6792 
         800      37.2188 -0.000289809  4.02481e-06     -52.6792 
         800      37.4062 -0.000289809  3.94722e-06     -52.6792 
         800      37.5938 -0.000289819  3.87946e-06     -52.6792 
         800      37.7821 -0.000289838  3.82096e-06     -52.6792 
         800      37.9707 -0.000289865  3.77082e-06     -52.6792 
         800      38.1599   -0.0002899  3.72732e-06     -52.6792 
         800      38.3496 -0.000289938  3.68812e-06     -52.6792 
         800      38.5396 -0.000289979  3.65003e-06     -52.6792 
         800      38.7302 -0.000290019   3.6088e-06     -52.6792 
         800      38.9211 -0.000290053  3.55919e-06     -52.6792 
         800      39.1127 -0.000290078   3.4946e-06     -52.6792 
         800      39.3046 -0.000290086  3.40724e-06     -52.6792 
         800      39.4971 -0.000289994  3.24257e-06     -52.6792 
         800      39.6899 -0.000289829  3.08974e-06     -52.6792 
         800      39.8833 -0.000289586  2.94982e-06     -52.6792 
         800      40.0772 -0.000289258  2.82085e-06     -52.6792 
         800      40.2714 -0.000289146   2.8287e-06     -52.6792 
         800      40.4663 -0.000289077  2.82598e-06     -52.6792 
         800      40.6615 -0.000289039  2.81348e-06     -52.6792 
         800      40.8573 -0.000289019  2.80742e-06     -52.6792 
         800      41.0534 -0.000288996  2.85751e-06     -52.6792 
         800      41.2501 -0.000288984   2.8748e-06     -52.6792 
         800      41.4473  -0.00028898  2.86613e-06     -52.6792 
         800      41.6448 -0.000288983  2.83746e-06     -52.6792 
         800      41.8429  -0.00028899  2.79384e-06     -52.6792 
         800      42.0414    -0.000289  2.73962e-06     -52.6792 
         800      42.2405 -0.000289012  2.67829e-06     -52.6792 
         800      42.4399 -0.000289025  2.61287e-06     -52.6792 
         800      42.6399 -0.000289038   2.5456e-06     -52.6792 
         800      42.8404  -0.00028905  2.47837e-06     -52.6792 
         800      43.0412 -0.000289062  2.41259e-06     -52.6792 
         800      43.2426 -0.000289071  2.34914e-06     -52.6792 
         800      43.4444 -0.000289079  2.28876e-06     -52.6792 
         800      43.6467 -0.000289085  2.23173e-06     -52.6793 
         800      43.8494 -0.000289088  2.17828e-06     -52.6793 
         800      44.0527  -0.00028909  2.12828e-06     -52.6793 
         800      44.2563  -0.00028909  2.08165e-06     -52.6793 
         800      44.4606 -0.000289087  2.03806e-06     -52.6793 
         800      44.6653 -0.000289083  1.99725e-06     -52.6793 
         800      44.8704 -0.000289077  1.95893e-06     -52.6793 
         800       45.076  -0.00028907  1.92275e-06     -52.6793 
         800       45.282 -0.000289061  1.88852e-06     -52.6793 
         800      45.4886 -0.000289051    1.856e-06     -52.6793 
         800      45.6955 -0.000289041  1.82514e-06     -52.6793 
         800       45.903 -0.000289029  1.79588e-06     -52.6793 
         800      46.1111 -0.000289017  1.76835e-06     -52.6793 
         800      46.3194 -0.000289004  1.74276e-06     -52.6793 
         800      46.5283 -0.000288991  1.71938e-06     -52.6793 
         800      46.7376 -0.000288977   1.6986e-06     -52.6793 
         800      46.9475 -0.000288963  1.68084e-06     -52.6793 
         800      47.1577 -0.000288948  1.66661e-06     -52.6793 
         800      47.3685 -0.000288933  1.65637e-06     -52.6793 
         800      47.5798 -0.000288917  1.65059e-06     -52.6793 
         800      47.7914 -0.000288901  1.64964e-06     -52.6793 
         800      48.0037 -0.000288884  1.65375e-06     -52.6793 