Variables = x, y, u, v, p

Zone, I=800, F=POINT
         800            0           -0           -0      9.96415 
         800     0.000234  3.94718e-06  2.72209e-11      9.96415 
         800     0.000939  1.50861e-05  4.35538e-10      9.96415 
         800     0.002113  3.13324e-05  2.20312e-09      9.96415 
         800     0.003759  4.99379e-05   6.9708e-09      9.96415 
         800     0.005872  6.81101e-05  1.70103e-08      9.96415 
         800     0.008457  8.39728e-05  3.52861e-08      9.96415 
         800      0.01151  9.69248e-05  6.53653e-08      9.96415 
         800     0.015036  0.000107864  1.11546e-07      9.96415 
         800     0.019031  0.000118705  1.78667e-07      9.96415 
         800     0.023493  0.000131578  2.72177e-07      9.96415 
         800     0.028429  0.000147817   3.9833e-07      9.96415 
         800     0.033831  0.000167067  5.63591e-07      9.96415 
         800     0.039706   0.00018725  7.75362e-07      9.96415 
         800     0.046047  0.000205393  1.04105e-06      9.96415 
         800     0.052863  0.000219671  1.36912e-06      9.96415 
         800      0.06015  0.000231459  1.76785e-06      9.96415 
         800       0.0679  0.000245437   2.2454e-06      9.96415 
         800     0.076126  0.000263096  2.81138e-06      9.96415 
         800     0.084816  0.000268217  3.47382e-06      9.96415 
         800     0.093982  0.000279319  4.24242e-06      9.96415 
         800     0.103611  0.000286567  5.12467e-06      9.96415 
         800     0.113718  0.000290696  6.13025e-06      9.96415 
         800     0.124286  0.000292204  7.26531e-06      9.96415 
         800     0.135333  0.000291359  8.53908e-06      9.96415 
         800      0.14685  0.000288209  9.95725e-06      9.96415 
         800     0.158827  0.000282659  1.15243e-05      9.96415 
         800     0.171284  0.000274564   1.3248e-05      9.96415 
         800     0.184201  0.000263893  1.51294e-05      9.96415 
         800     0.197599  0.000250776  1.71747e-05      9.96415 
         800     0.211455  0.000235603  1.93825e-05      9.96415 
         800     0.225792  0.000218778  2.17572e-05      9.96415 
         800       0.2406  0.000200346  2.42971e-05      9.96415 
         800     0.255865  0.000179903  2.69986e-05      9.96415 
         800     0.271613  0.000158637  2.98641e-05      9.96415 
         800     0.287818  0.000136394  3.28857e-05      9.96415 
         800     0.304506  0.000113436  3.60642e-05      9.96415 
         800      0.32165  9.00923e-05  3.93897e-05      9.96415 
         800     0.339278  6.66074e-05  4.28621e-05      9.96415 
         800     0.357377  4.32694e-05   4.6473e-05      9.96415 
         800      0.37593  2.03517e-05  5.02126e-05      9.96415 
         800     0.394968 -1.95104e-06  5.40804e-05      9.96415 
         800     0.414461  -2.3392e-05  5.80633e-05      9.96415 
         800      0.43444 -4.38155e-05  6.21608e-05      9.96415 
         800     0.454872 -6.30202e-05  6.63593e-05      9.96415 
         800     0.475791 -8.08921e-05  7.06589e-05      9.96415 
         800     0.497163 -9.72771e-05  7.50463e-05      9.96415 
         800     0.519021 -0.000112097  7.95222e-05      9.96415 
         800      0.54135 -0.000125256  8.40776e-05      9.96415 
         800     0.564131  -0.00013669  8.87035e-05      9.96415 
         800       0.5874 -0.000146391  9.34022e-05      9.96415 
         800     0.611121 -0.000154352  9.81623e-05      9.96415 
         800      0.63533 -0.000160532   0.00010299      9.96415 
         800      0.65999 -0.000164988  0.000107866      9.96415 
         800     0.685139 -0.000167755  0.000112797      9.96415 
         800     0.710759 -0.000168868  0.000117778      9.96415 
         800     0.736828 -0.000168381  0.000122803      9.96415 
         800     0.763387 -0.000166359  0.000127877      9.96415 
         800     0.790396 -0.000162884   0.00013299      9.96415 
         800     0.817896  -0.00015804  0.000138147      9.96415 
         800     0.845843 -0.000151937  0.000143335      9.96415 
         800     0.874283 -0.000144682  0.000148559      9.96415 
         800      0.90317  -0.00013641  0.000153807      9.96415 
         800     0.932551 -0.000127243   0.00015908      9.96415 
         800     0.962401 -0.000117335  0.000164371      9.96415 
         800     0.992697 -0.000106845  0.000169668      9.96415 
         800      1.02349 -9.59156e-05  0.000174975      9.96415 
         800      1.05472 -8.47283e-05  0.000180275      9.96415 
         800      1.08645 -7.34307e-05  0.000185572      9.96415 
         800      1.11863 -6.22075e-05   0.00019085      9.96415 
         800       1.1513 -5.12045e-05   0.00019611      9.96415 
         800      1.18444 -4.05895e-05  0.000201341      9.96415 
         800      1.21802 -3.05205e-05  0.000206532      9.96415 
         800      1.25211 -2.11187e-05  0.000211682      9.96415 
         800      1.28663 -1.25211e-05  0.000216778      9.96415 
         800      1.32165 -4.81394e-06  0.000221819      9.96415 
         800      1.35712  1.91488e-06   0.00022679      9.96415 
         800      1.39308  7.63189e-06  0.000231691      9.96415 
         800      1.42951  1.23236e-05   0.00023651      9.96415 
         800      1.46638  1.60221e-05  0.000241234      9.96415 
         800      1.50375  1.88175e-05  0.000245864      9.96415 
         800      1.54156  2.06168e-05  0.000250462      9.96415 
         800      1.57987  2.16659e-05  0.000254963      9.96415 
         800      1.61863  2.21012e-05  0.000259358      9.96415 
         800      1.65788  2.20403e-05  0.000263659      9.96415 
         800      1.69757  2.15911e-05  0.000267861      9.96415 
         800      1.73776  2.08519e-05  0.000271975      9.96415 
         800      1.77842  1.99126e-05  0.000275999      9.96415 
         800      1.81952  1.88538e-05  0.000279931      9.96415 
         800      1.86113  1.77437e-05  0.000283779      9.96415 
         800      1.90316  1.66442e-05  0.000287537      9.96415 
         800      1.94571  1.56037e-05  0.000291209      9.96415 
         800      1.98869  1.46644e-05  0.000294788      9.96415 
         800      2.03217  1.38561e-05  0.000298278      9.96415 
         800      2.07612  1.32019e-05  0.000301673      9.96415 
         800      2.12051  1.27161e-05  0.000304967      9.96415 
         800       2.1654   1.2404e-05  0.000308163      9.96415 
         800      2.21073  1.22652e-05  0.000311251      9.96415 
         800      2.25656  1.22921e-05  0.000314231      9.96415 
         800      2.30283   1.2472e-05  0.000317095      9.96415 
         800       2.3496  1.27882e-05  0.000319841      9.96415 
         800      2.39685  1.32201e-05  0.000322464      9.96415 
         800      2.44452  1.37443e-05  0.000324956      9.96415 
         800      2.49271  1.43377e-05  0.000327316      9.96415 
         800      2.54132  1.49752e-05  0.000329537      9.96415 
         800      2.59044  1.56345e-05  0.000331617      9.96415 
         800         2.64  1.62935e-05   0.00033355      9.96415 
         800      2.69006  1.69348e-05  0.000335336      9.96415 
         800      2.74056  1.75433e-05  0.000336969      9.96415 
         800      2.79156  1.81102e-05  0.000338449      9.96414 
         800      2.84304  1.86304e-05  0.000339773      9.96414 
         800      2.89494  1.91046e-05  0.000340939      9.96414 
         800      2.94735  1.95402e-05  0.000341949      9.96414 
         800       3.0002  1.99484e-05  0.000342801      9.96414 
         800      3.05355  2.03465e-05  0.000343496      9.96414 
         800      3.10733  2.07542e-05  0.000344033      9.96414 
         800      3.16163  2.11947e-05  0.000344415      9.96414 
         800      3.21639  2.16899e-05   0.00034464      9.96414 
         800      3.27158  2.22589e-05  0.000344709      9.96414 
         800      3.32729  2.29155e-05   0.00034462      9.96414 
         800      3.38342  2.36607e-05  0.000344371      9.96414 
         800      3.44007  2.44816e-05  0.000343957      9.96414 
         800      3.49714  2.53402e-05  0.000343372      9.96414 
         800      3.55472   2.6171e-05  0.000342603      9.96414 
         800      3.61273  2.68667e-05  0.000341637      9.96414 
         800      3.67125  2.72735e-05  0.000340453      9.96414 
         800      3.73025  2.71746e-05  0.000339024      9.96414 
         800      3.78967  2.74771e-05  0.000337606      9.96414 
         800      3.84961  2.81798e-05  0.000336147      9.96414 
         800      3.90996  2.88283e-05  0.000334531      9.96414 
         800      3.97084  2.94189e-05  0.000332763      9.96414 
         800      4.03214   2.9947e-05   0.00033085      9.96414 
         800      4.09395  3.04104e-05  0.000328796      9.96414 
         800      4.15624  3.08065e-05  0.000326609      9.96414 
         800      4.21895   3.1134e-05  0.000324296      9.96414 
         800      4.28217  3.13926e-05  0.000321862      9.96414 
         800      4.34582  3.15823e-05  0.000319315      9.96414 
         800      4.40998  3.17044e-05  0.000316659      9.96414 
         800      4.47457  3.17604e-05  0.000313905      9.96414 
         800      4.53968  3.17528e-05  0.000311055      9.96414 
         800      4.60525  3.16846e-05  0.000308118      9.96414 
         800      4.67125  3.15597e-05  0.000305104      9.96414 
         800      4.73777   3.1382e-05  0.000302014      9.96414 
         800       4.8047  3.11566e-05  0.000298861      9.96414 
         800      4.87216  3.08885e-05  0.000295646      9.96414 
         800      4.94003  3.05835e-05   0.00029238      9.96414 
         800      5.00843  3.02473e-05  0.000289066      9.96414 
         800      5.07724  2.98866e-05  0.000285716      9.96414 
         800      5.14658  2.95074e-05  0.000282329      9.96414 
         800      5.21639  2.91165e-05  0.000278916      9.96414 
         800      5.28661   2.8721e-05  0.000275484      9.96414 
         800      5.35736  2.83269e-05  0.000272035      9.96414 
         800      5.42852  2.79414e-05   0.00026858      9.96414 
         800      5.50021  2.75703e-05  0.000265118      9.96414 
         800      5.57231  2.72205e-05   0.00026166      9.96414 
         800      5.64493  2.68971e-05  0.000258206      9.96414 
         800      5.71803  2.66849e-05  0.000254663      9.96414 
         800      5.79154  2.65078e-05  0.000251139      9.96414 
         800      5.86558  2.63667e-05  0.000247637      9.96414 
         800      5.94003  2.62648e-05  0.000244165      9.96414 
         800      6.01501  2.62044e-05  0.000240721      9.96414 
         800       6.0904  2.61877e-05  0.000237315      9.96414 
         800      6.16632  2.62159e-05  0.000233944      9.96414 
         800      6.24271    2.629e-05  0.000230613      9.96414 
         800       6.3195  2.64101e-05  0.000227325      9.96414 
         800      6.39683   2.6576e-05  0.000224078      9.96414 
         800      6.47457  2.67867e-05  0.000220878      9.96414 
         800      6.55284  2.70409e-05   0.00021772      9.96414 
         800      6.63152  2.73363e-05  0.000214609      9.96414 
         800      6.71073  2.76706e-05   0.00021154      9.96414 
         800      6.79034  2.80404e-05  0.000208516      9.96414 
         800      6.87049  2.84425e-05  0.000205533      9.96414 
         800      6.95111  2.88727e-05   0.00020259      9.96414 
         800      7.03214   2.9326e-05  0.000199688      9.96414 
         800       7.1137  2.97983e-05  0.000196821      9.96414 
         800      7.19566  3.02838e-05  0.000193989      9.96414 
         800      7.27816  3.07778e-05  0.000191187      9.96414 
         800      7.36106  3.12739e-05  0.000188415      9.96414 
         800      7.44451  3.17674e-05  0.000185667      9.96413 
         800      7.52842  3.22524e-05  0.000182942      9.96413 
         800      7.61273  3.27229e-05  0.000180238      9.96413 
         800      7.69758  3.31747e-05  0.000177551      9.96413 
         800      7.78283  3.36022e-05  0.000174882      9.96413 
         800      7.86862  3.40022e-05  0.000172225      9.96413 
         800      7.95481  3.43706e-05  0.000169584      9.96413 
         800      8.04155  3.47055e-05  0.000166956      9.96413 
         800      8.12868  3.50053e-05  0.000164346      9.96413 
         800      8.21635  3.52706e-05  0.000161752      9.96413 
         800      8.30449  3.55028e-05  0.000159182      9.96413 
         800      8.39303  3.57055e-05  0.000156643      9.96413 
         800      8.48211  3.58849e-05  0.000154141      9.96413 
         800      8.57159  3.60491e-05  0.000151689      9.96413 
         800      8.66161  3.62096e-05  0.000149299      9.96413 
         800      8.75203    3.639e-05  0.000146981      9.96413 
         800      8.84299  3.67669e-05   0.00014451      9.96413 
         800      8.93443  3.71018e-05  0.000142084      9.96413 
         800      9.02626  3.73993e-05  0.000139703      9.96413 
         800      9.11863  3.76641e-05  0.000137364      9.96413 
         800      9.21139  3.79002e-05  0.000135068      9.96413 
         800      9.30471  3.81118e-05  0.000132809      9.96413 
         800      9.39841  3.83024e-05  0.000130589      9.96413 
         800      9.49267  3.84758e-05  0.000128402      9.96413 
         800      9.58739  3.86349e-05  0.000126249      9.96413 
         800      9.68251  3.87825e-05  0.000124128      9.96413 
         800      9.77817  3.89215e-05  0.000122032      9.96413 
         800      9.87422  3.90539e-05  0.000119964      9.96413 
         800      9.97083  3.91818e-05  0.000117916      9.96413 
         800      10.0678  3.93066e-05  0.000115889      9.96413 
         800      10.1654  3.94299e-05  0.000113877      9.96413 
         800      10.2633  3.95523e-05   0.00011188      9.96413 
         800      10.3618  3.96747e-05  0.000109892      9.96413 
         800      10.4607  3.97972e-05   0.00010791      9.96412 
         800      10.5601  3.99197e-05  0.000105934      9.96412 
         800        10.66  4.00418e-05  0.000103956      9.96412 
         800      10.7603  4.01628e-05  0.000101978      9.96412 
         800      10.8611  4.02663e-05  0.000100165      9.96412 
         800      10.9623  4.03633e-05  9.83795e-05      9.96412 
         800      11.0641  4.04539e-05  9.66155e-05      9.96412 
         800      11.1663  4.05373e-05  9.48745e-05      9.96412 
         800       11.269  4.06132e-05  9.31581e-05      9.96412 
         800      11.3721  4.06813e-05  9.14635e-05      9.96412 
         800      11.4757  4.07415e-05  8.97933e-05      9.96412 
         800      11.5798  4.07939e-05  8.81447e-05      9.96412 
         800      11.6844  4.08386e-05  8.65201e-05      9.96412 
         800      11.7894  4.08761e-05  8.49164e-05      9.96412 
         800       11.895  4.09069e-05  8.33346e-05      9.96412 
         800      12.0009  4.09316e-05  8.17754e-05      9.96412 
         800      12.1073  4.09512e-05  8.02359e-05      9.96412 
         800      12.2142  4.09666e-05  7.87179e-05      9.96412 
         800      12.3216   4.0979e-05  7.72188e-05      9.96412 
         800      12.4294  4.09893e-05  7.57404e-05      9.96412 
         800      12.5378  4.09988e-05    7.428e-05      9.96412 
         800      12.6465  4.10086e-05    7.284e-05      9.96412 
         800      12.7558  4.10198e-05  7.14178e-05      9.96411 
         800      12.8656  4.10331e-05   7.0015e-05      9.96411 
         800      12.9757  4.10493e-05  6.86329e-05      9.96411 
         800      13.0864  4.10686e-05  6.72702e-05      9.96411 
         800      13.1975  4.10908e-05    6.593e-05      9.96411 
         800      13.3092  4.11152e-05  6.46117e-05      9.96411 
         800      13.4212  4.11405e-05  6.33193e-05      9.96411 
         800      13.5338  4.11644e-05  6.20532e-05      9.96411 
         800      13.6468  4.11837e-05  6.08174e-05      9.96411 
         800      13.7603   4.1194e-05  5.96164e-05      9.96411 
         800      13.8743  4.11896e-05  5.84529e-05      9.96411 
         800      13.9886  4.11631e-05  5.73337e-05      9.96411 
         800      14.1036  4.11055e-05  5.62631e-05      9.96411 
         800      14.2189  4.10056e-05  5.52499e-05      9.96411 
         800      14.3348  4.08499e-05  5.43006e-05      9.96411 
         800       14.451  4.07385e-05  5.32428e-05      9.96411 
         800      14.5678  4.07382e-05  5.20452e-05      9.96411 
         800      14.6851  4.07381e-05  5.09067e-05       9.9641 
         800      14.8028  4.07372e-05  4.98204e-05       9.9641 
         800       14.921  4.07347e-05  4.87781e-05       9.9641 
         800      15.0396  4.07299e-05  4.77755e-05       9.9641 
         800      15.1588  4.07222e-05  4.68058e-05       9.9641 
         800      15.2783  4.07112e-05  4.58661e-05       9.9641 
         800      15.3984  4.06965e-05  4.49508e-05       9.9641 
         800       15.519  4.06782e-05  4.40575e-05       9.9641 
         800        15.64   4.0656e-05  4.31841e-05       9.9641 
         800      15.7615  4.06302e-05  4.23271e-05       9.9641 
         800      15.8834  4.06007e-05  4.14859e-05       9.9641 
         800      16.0058  4.05678e-05  4.06579e-05       9.9641 
         800      16.1286  4.05317e-05  3.98434e-05       9.9641 
         800       16.252  4.04929e-05  3.90405e-05      9.96409 
         800      16.3759  4.04516e-05  3.82495e-05      9.96409 
         800      16.5002  4.04082e-05  3.74709e-05      9.96409 
         800       16.625  4.03632e-05  3.67035e-05      9.96409 
         800      16.7501  4.03169e-05   3.5949e-05      9.96409 
         800      16.8759  4.02697e-05  3.52065e-05      9.96409 
         800       17.002  4.02221e-05  3.44776e-05      9.96409 
         800      17.1287  4.01743e-05  3.37617e-05      9.96409 
         800      17.2557  4.01268e-05  3.30606e-05      9.96409 
         800      17.3834  4.00797e-05  3.23737e-05      9.96409 
         800      17.5115  4.00333e-05   3.1702e-05      9.96409 
         800      17.6399  3.99879e-05  3.10464e-05      9.96409 
         800       17.769  3.99434e-05  3.04063e-05      9.96408 
         800      17.8984  3.98999e-05  2.97828e-05      9.96408 
         800      18.0284  3.98574e-05   2.9175e-05      9.96408 
         800      18.1587  3.98157e-05  2.85838e-05      9.96408 
         800      18.2896  3.97746e-05  2.80079e-05      9.96408 
         800       18.421  3.97339e-05  2.74473e-05      9.96408 
         800      18.5528  3.96931e-05  2.69018e-05      9.96408 
         800      18.6851  3.96517e-05  2.63698e-05      9.96408 
         800      18.8178  3.96093e-05   2.5851e-05      9.96408 
         800      18.9511  3.95652e-05  2.53435e-05      9.96408 
         800      19.0847  3.95187e-05  2.48468e-05      9.96407 
         800      19.2189  3.94689e-05  2.43588e-05      9.96407 
         800      19.3535  3.94152e-05  2.38787e-05      9.96407 
         800      19.4886  3.93565e-05  2.34043e-05      9.96407 
         800      19.6242  3.92921e-05  2.29345e-05      9.96407 
         800      19.7602   3.9221e-05  2.24683e-05      9.96407 
         800      19.8968  3.91423e-05  2.20037e-05      9.96407 
         800      20.0337  3.90551e-05  2.15405e-05      9.96407 
         800      20.1712  3.89586e-05  2.10771e-05      9.96407 
         800      20.3091   3.8852e-05  2.06141e-05      9.96406 
         800      20.4475  3.87346e-05  2.01508e-05      9.96406 
         800      20.5864  3.86059e-05  1.96887e-05      9.96406 
         800      20.7257  3.84657e-05  1.92297e-05      9.96406 
         800      20.8655  3.83137e-05  1.87755e-05      9.96406 
         800      21.0058  3.81501e-05  1.83308e-05      9.96406 
         800      21.1465  3.80806e-05  1.79876e-05      9.96406 
         800      21.2877  3.80617e-05  1.77068e-05      9.96406 
         800      21.4294  3.80835e-05  1.74694e-05      9.96406 
         800      21.5716  3.81606e-05  1.72756e-05      9.96405 
         800      21.7142    3.831e-05  1.71237e-05      9.96405 
         800      21.8573  3.84327e-05  1.68752e-05      9.96405 
         800      22.0008  3.84982e-05  1.65767e-05      9.96405 
         800      22.1449  3.85206e-05  1.62551e-05      9.96405 
         800      22.2893  3.84878e-05   1.5914e-05      9.96405 
         800      22.4344  3.84095e-05  1.55873e-05      9.96405 
         800      22.5797  3.83141e-05  1.52803e-05      9.96404 
         800      22.7257  3.82089e-05  1.49887e-05      9.96404 
         800      22.8721  3.81002e-05  1.47099e-05      9.96404 
         800      23.0189  3.79928e-05  1.44414e-05      9.96404 
         800      23.1663  3.78906e-05  1.41807e-05      9.96404 
         800       23.314  3.77965e-05  1.39265e-05      9.96404 
         800      23.4623  3.77124e-05  1.36771e-05      9.96404 
         800       23.611  3.76393e-05  1.34319e-05      9.96404 
         800      23.7602  3.75779e-05    1.319e-05      9.96403 
         800        23.91  3.75278e-05   1.2951e-05      9.96403 
         800        24.06  3.74886e-05  1.27151e-05      9.96403 
         800      24.2107  3.74591e-05  1.24819e-05      9.96403 
         800      24.3617   3.7438e-05   1.2252e-05      9.96403 
         800      24.5133  3.74236e-05  1.20253e-05      9.96403 
         800      24.6653  3.74142e-05  1.18028e-05      9.96402 
         800      24.8178   3.7408e-05  1.15845e-05      9.96402 
         800      24.9708   3.7403e-05  1.13712e-05      9.96402 
         800      25.1242  3.73975e-05  1.11636e-05      9.96402 
         800      25.2781  3.73898e-05   1.0962e-05      9.96402 
         800      25.4324  3.73784e-05  1.07672e-05      9.96402 
         800      25.5873  3.73621e-05  1.05793e-05      9.96402 
         800      25.7426  3.73399e-05  1.03991e-05      9.96401 
         800      25.8984   3.7311e-05  1.02264e-05      9.96401 
         800      26.0546  3.72752e-05  1.00618e-05      9.96401 
         800      26.2114  3.72323e-05  9.90504e-06      9.96401 
         800      26.3686  3.71826e-05  9.75612e-06      9.96401 
         800      26.5262  3.71269e-05  9.61492e-06      9.96401 
         800      26.6844  3.70661e-05  9.48085e-06        9.964 
         800      26.8429  3.70014e-05  9.35357e-06        9.964 
         800       27.002  3.69344e-05  9.23221e-06        9.964 
         800      27.1615  3.68668e-05  9.11618e-06        9.964 
         800      27.3216  3.68005e-05  9.00436e-06        9.964 
         800      27.4821  3.67373e-05  8.89584e-06      9.96399 
         800       27.643  3.66791e-05  8.78961e-06      9.96399 
         800      27.8044  3.66277e-05  8.68436e-06      9.96399 
         800      27.9663  3.65845e-05   8.5791e-06      9.96399 
         800      28.1287  3.65505e-05  8.47254e-06      9.96399 
         800      28.2914   3.6526e-05  8.36378e-06      9.96399 
         800      28.4548  3.65107e-05  8.25171e-06      9.96398 
         800      28.6185  3.65032e-05  8.13574e-06      9.96398 
         800      28.7828  3.65008e-05  8.01518e-06      9.96398 
         800      28.9475  3.64996e-05   7.8899e-06      9.96398 
         800      29.1126  3.64936e-05   7.7602e-06      9.96398 
         800      29.2784   3.6475e-05  7.62654e-06      9.96397 
         800      29.4444  3.64336e-05  7.49039e-06      9.96397 
         800       29.611  3.63564e-05  7.35346e-06      9.96397 
         800       29.778  3.62275e-05  7.21868e-06      9.96397 
         800      29.9456  3.61438e-05   7.0886e-06      9.96397 
         800      30.1137  3.60727e-05  6.97498e-06      9.96396 
         800      30.2821  3.60107e-05  6.87397e-06      9.96396 
         800      30.4511  3.59572e-05  6.78177e-06      9.96396 
         800      30.6204  3.59115e-05  6.69551e-06      9.96396 
         800      30.7903   3.5873e-05  6.61254e-06      9.96395 
         800      30.9606   3.5841e-05  6.53098e-06      9.96395 
         800      31.1315  3.58147e-05  6.44914e-06      9.96395 
         800      31.3028  3.57935e-05  6.36596e-06      9.96395 
         800      31.4745  3.57767e-05  6.28072e-06      9.96395 
         800      31.6468  3.57635e-05  6.19286e-06      9.96394 
         800      31.8194  3.57534e-05  6.10237e-06      9.96394 
         800      31.9926  3.57457e-05  6.00925e-06      9.96394 
         800      32.1662  3.57397e-05  5.91397e-06      9.96394 
         800      32.3404  3.57349e-05   5.8169e-06      9.96393 
         800      32.5149  3.57307e-05  5.71888e-06      9.96393 
         800        32.69  3.57266e-05  5.62053e-06      9.96393 
         800      32.8655  3.57222e-05  5.52281e-06      9.96393 
         800      33.0414  3.57171e-05   5.4267e-06      9.96393 
         800       33.218  3.57109e-05  5.33299e-06      9.96392 
         800      33.3948  3.57033e-05  5.24275e-06      9.96392 
         800      33.5723  3.56942e-05  5.15672e-06      9.96392 
         800        33.75  3.56833e-05  5.07588e-06      9.96392 
         800      33.9284  3.56704e-05  5.00082e-06      9.96391 
         800      34.1073  3.56557e-05  4.93226e-06      9.96391 
         800      34.2865   3.5639e-05  4.87074e-06      9.96391 
         800      34.4663  3.56204e-05  4.81654e-06      9.96391 
         800      34.6465     3.56e-05  4.76995e-06       9.9639 
         800      34.8272   3.5578e-05  4.73095e-06       9.9639 
         800      35.0083  3.55545e-05  4.69947e-06       9.9639 
         800        35.19  3.55298e-05  4.67517e-06       9.9639 
         800      35.3721  3.55041e-05  4.65758e-06      9.96389 
         800      35.5546  3.54777e-05  4.64605e-06      9.96389 
         800      35.7377  3.54509e-05  4.63973e-06      9.96389 
         800      35.9211  3.54239e-05  4.63765e-06      9.96388 
         800      36.1052  3.53971e-05  4.63867e-06      9.96388 
         800      36.2895  3.53706e-05  4.64151e-06      9.96388 
         800      36.4745  3.53446e-05  4.64481e-06      9.96388 
         800      36.6598  3.53193e-05  4.64712e-06      9.96387 
         800      36.8457  3.52947e-05  4.64695e-06      9.96387 
         800      37.0321  3.52707e-05  4.64279e-06      9.96387 
         800      37.2188  3.52473e-05  4.63319e-06      9.96387 
         800      37.4062   3.5224e-05  4.61675e-06      9.96386 
         800      37.5938  3.52004e-05  4.59225e-06      9.96386 
         800      37.7821  3.51759e-05  4.55862e-06      9.96386 
         800      37.9707  3.51495e-05  4.51514e-06      9.96385 
         800      38.1599    3.512e-05   4.4613e-06      9.96385 
         800      38.3496  3.50861e-05  4.39712e-06      9.96385 
         800      38.5396  3.50459e-05  4.32316e-06      9.96385 
         800      38.7302  3.49974e-05  4.24042e-06      9.96384 
         800      38.9211   3.4938e-05  4.15083e-06      9.96384 
         800      39.1127  3.48648e-05  4.05689e-06      9.96384 
         800      39.3046  3.47743e-05  3.96231e-06      9.96383 
         800      39.4971  3.47336e-05  4.04089e-06      9.96383 
         800      39.6899  3.47175e-05  4.12797e-06      9.96383 
         800      39.8833  3.47252e-05  4.20987e-06      9.96382 
         800      40.0772  3.47581e-05  4.28325e-06      9.96382 
         800      40.2714  3.47217e-05  4.20123e-06      9.96382 
         800      40.4663  3.47139e-05  4.11552e-06      9.96381 
         800      40.6615   3.4734e-05   4.0249e-06      9.96381 
         800      40.8573  3.47958e-05  3.93835e-06      9.96381 
         800      41.0534  3.49156e-05  3.91534e-06      9.96381 
         800      41.2501  3.49909e-05  3.90879e-06       9.9638 
         800      41.4473  3.50312e-05  3.91436e-06       9.9638 
         800      41.6448  3.50446e-05  3.92828e-06       9.9638 
         800      41.8429  3.50382e-05  3.94738e-06      9.96379 
         800      42.0414   3.5018e-05  3.96892e-06      9.96379 
         800      42.2405  3.49888e-05  3.99071e-06      9.96379 
         800      42.4399   3.4955e-05  4.01095e-06      9.96378 
         800      42.6399  3.49197e-05  4.02826e-06      9.96378 
         800      42.8404  3.48855e-05  4.04162e-06      9.96377 
         800      43.0412  3.48545e-05  4.05032e-06      9.96377 
         800      43.2426  3.48278e-05  4.05397e-06      9.96377 
         800      43.4444  3.48064e-05  4.05244e-06      9.96376 
         800      43.6467  3.47905e-05  4.04579e-06      9.96376 
         800      43.8494  3.47803e-05  4.03432e-06      9.96376 
         800      44.0527  3.47755e-05  4.01845e-06      9.96375 
         800      44.2563  3.47755e-05  3.99876e-06      9.96375 
         800      44.4606  3.47797e-05   3.9759e-06      9.96375 
         800      44.6653  3.47871e-05  3.95062e-06      9.96374 
         800      44.8704   3.4797e-05  3.92373e-06      9.96374 
         800       45.076  3.48084e-05  3.89598e-06      9.96374 
         800       45.282  3.48203e-05  3.86821e-06      9.96373 
         800      45.4886  3.48319e-05  3.84115e-06      9.96373 
         800      45.6955  3.48424e-05  3.81555e-06      9.96372 
         800       45.903  3.48511e-05  3.79202e-06      9.96372 
         800      46.1111  3.48576e-05  3.77114e-06      9.96372 
         800      46.3194  3.48614e-05  3.75336e-06      9.96371 
         800      46.5283  3.48623e-05    3.739e-06      9.96371 
         800      46.7376  3.48604e-05  3.72829e-06      9.96371 
         800      46.9475  3.48556e-05  3.72126e-06       9.9637 
         800      47.1577  3.48484e-05  3.71787e-06       9.9637 
         800      47.3685  3.48392e-05  3.71787e-06      9.96369 
         800      47.5798  3.48284e-05  3.72088e-06      9.96369 
         800      47.7914  3.48169e-05  3.72638e-06      9.96369 
         800      48.0037  3.48052e-05   3.7337e-06      9.96368 