Variables = x, y, u, v, p

Zone, I=800, F=POINT
         -25            0  1.01282e-20  9.23915e-25      14.4993 
         -25     0.000234  5.05516e-07  5.08975e-11      14.4993 
         -25     0.000939  1.94816e-06  2.53837e-10      14.4993 
         -25     0.002113   4.0971e-06  7.51863e-10      14.4993 
         -25     0.003759  6.62488e-06   1.7701e-09      14.4993 
         -25     0.005872  9.14594e-06  3.58896e-09      14.4993 
         -25     0.008457  1.13102e-05  6.53692e-09      14.4993 
         -25      0.01151  1.28417e-05  1.09606e-08      14.4993 
         -25     0.015036  1.35986e-05  1.72418e-08      14.4993 
         -25     0.019031  1.35801e-05  2.57786e-08      14.4993 
         -25     0.023493  1.29149e-05  3.70159e-08      14.4993 
         -25     0.028429  1.18082e-05  5.14893e-08      14.4993 
         -25     0.033831   1.0476e-05  6.97679e-08      14.4993 
         -25     0.039706  9.06665e-06  9.25288e-08      14.4993 
         -25     0.046047  7.61799e-06  1.20411e-07      14.4993 
         -25     0.052863  6.05011e-06  1.54044e-07      14.4993 
         -25      0.06015  4.24524e-06  1.93818e-07      14.4993 
         -25       0.0679  2.19884e-06  2.39814e-07      14.4993 
         -25     0.076126   2.2031e-07  2.92004e-07      14.4993 
         -25     0.084816 -1.23002e-06  3.50442e-07      14.4993 
         -25     0.093982 -3.67212e-06  4.16153e-07      14.4993 
         -25     0.103611 -5.97687e-06  4.88508e-07      14.4993 
         -25     0.113718 -8.23438e-06  5.67425e-07      14.4993 
         -25     0.124286 -1.04911e-05  6.52483e-07      14.4993 
         -25     0.135333 -1.27632e-05  7.43443e-07      14.4993 
         -25      0.14685 -1.50281e-05  8.39755e-07      14.4993 
         -25     0.158827 -1.72416e-05  9.40757e-07      14.4993 
         -25     0.171284 -1.93605e-05  1.04594e-06      14.4993 
         -25     0.184201 -2.13481e-05  1.15436e-06      14.4993 
         -25     0.197599 -2.32026e-05  1.26533e-06      14.4993 
         -25     0.211455 -2.49447e-05  1.37774e-06      14.4993 
         -25     0.225792  -2.6605e-05  1.49081e-06      14.4993 
         -25       0.2406 -2.81428e-05  1.60357e-06      14.4993 
         -25     0.255865 -2.94509e-05  1.71461e-06      14.4993 
         -25     0.271613 -3.06863e-05  1.82336e-06      14.4993 
         -25     0.287818 -3.17685e-05  1.92942e-06      14.4993 
         -25     0.304506 -3.27046e-05  2.03181e-06      14.4993 
         -25      0.32165 -3.34995e-05  2.12961e-06      14.4993 
         -25     0.339278 -3.41615e-05  2.22261e-06      14.4993 
         -25     0.357377 -3.46975e-05  2.31069e-06      14.4993 
         -25      0.37593 -3.51153e-05  2.39396e-06      14.4993 
         -25     0.394968  -3.5424e-05  2.47293e-06      14.4993 
         -25     0.414461 -3.56314e-05  2.54787e-06      14.4993 
         -25      0.43444 -3.57464e-05  2.61919e-06      14.4993 
         -25     0.454872 -3.57769e-05  2.68684e-06      14.4993 
         -25     0.475791 -3.57307e-05  2.75064e-06      14.4993 
         -25     0.497163 -3.56152e-05  2.80976e-06      14.4993 
         -25     0.519021 -3.54368e-05  2.86306e-06      14.4993 
         -25      0.54135 -3.52009e-05  2.90887e-06      14.4993 
         -25     0.564131 -3.49118e-05  2.94526e-06      14.4993 
         -25       0.5874 -3.45711e-05  2.97053e-06      14.4993 
         -25     0.611121 -3.41792e-05  2.98499e-06      14.4993 
         -25      0.63533 -3.37392e-05  3.00303e-06      14.4993 
         -25      0.65999 -3.32531e-05  3.01245e-06      14.4993 
         -25     0.685139  -3.2719e-05    3.015e-06      14.4993 
         -25     0.710759 -3.21363e-05   3.0121e-06      14.4993 
         -25     0.736828 -3.15049e-05   3.0049e-06      14.4993 
         -25     0.763387 -3.08232e-05  2.99422e-06      14.4993 
         -25     0.790396 -3.00921e-05  2.98068e-06      14.4992 
         -25     0.817896 -2.93105e-05  2.96459e-06      14.4992 
         -25     0.845843 -2.84796e-05  2.94614e-06      14.4992 
         -25     0.874283 -2.75984e-05  2.92528e-06      14.4992 
         -25      0.90317 -2.66686e-05  2.90196e-06      14.4992 
         -25     0.932551 -2.56892e-05  2.87599e-06      14.4992 
         -25     0.962401 -2.46614e-05  2.84726e-06      14.4992 
         -25     0.992697 -2.35863e-05  2.81574e-06      14.4992 
         -25      1.02349 -2.24625e-05  2.78143e-06      14.4992 
         -25      1.05472 -2.12919e-05  2.74461e-06      14.4992 
         -25      1.08645 -2.00726e-05  2.70561e-06      14.4992 
         -25      1.11863 -1.88063e-05  2.66504e-06      14.4992 
         -25       1.1513 -1.74902e-05  2.62355e-06      14.4992 
         -25      1.18444 -1.61247e-05  2.58194e-06      14.4992 
         -25      1.21802 -1.47098e-05  2.54092e-06      14.4992 
         -25      1.25211 -1.32417e-05  2.50088e-06      14.4992 
         -25      1.28663 -1.17215e-05  2.46179e-06      14.4992 
         -25      1.32165 -1.01449e-05  2.42263e-06      14.4991 
         -25      1.35712 -8.51286e-06  2.38112e-06      14.4991 
         -25      1.39308 -6.82144e-06  2.33295e-06      14.4991 
         -25      1.42951 -5.07086e-06  2.27116e-06      14.4991 
         -25      1.46638 -3.26244e-06  2.18528e-06      14.4991 
         -25      1.50375 -1.39416e-06  2.05988e-06      14.4991 
         -25      1.54156  3.13531e-07  2.04964e-06      14.4991 
         -25      1.57987  2.09059e-06  2.02611e-06      14.4991 
         -25      1.61863   3.9312e-06  1.98278e-06      14.4991 
         -25      1.65788  5.81901e-06  1.92474e-06      14.4991 
         -25      1.69757  7.73353e-06  1.85701e-06       14.499 
         -25      1.73776  9.66238e-06  1.78412e-06       14.499 
         -25      1.77842  1.15904e-05  1.71045e-06       14.499 
         -25      1.81952  1.35044e-05     1.64e-06       14.499 
         -25      1.86113  1.53974e-05  1.57622e-06       14.499 
         -25      1.90316  1.72584e-05  1.52235e-06       14.499 
         -25      1.94571  1.90839e-05  1.48099e-06       14.499 
         -25      1.98869  2.08661e-05  1.45442e-06      14.4989 
         -25      2.03217  2.26043e-05  1.44431e-06      14.4989 
         -25      2.07612   2.4295e-05  1.45187e-06      14.4989 
         -25      2.12051  2.59356e-05  1.47773e-06      14.4989 
         -25       2.1654  2.75287e-05  1.52207e-06      14.4989 
         -25      2.21073   2.9072e-05  1.58438e-06      14.4989 
         -25      2.25656  3.05691e-05  1.66381e-06      14.4988 
         -25      2.30283  3.20186e-05  1.75874e-06      14.4988 
         -25       2.3496  3.34239e-05   1.8673e-06      14.4988 
         -25      2.39685  3.47847e-05  1.98692e-06      14.4988 
         -25      2.44452  3.61005e-05  2.11454e-06      14.4988 
         -25      2.49271  3.73728e-05  2.24698e-06      14.4987 
         -25      2.54132  3.85986e-05  2.38029e-06      14.4987 
         -25      2.59044  3.97776e-05  2.51063e-06      14.4987 
         -25         2.64  4.09043e-05  2.63352e-06      14.4987 
         -25      2.69006  4.19757e-05  2.74474e-06      14.4986 
         -25      2.74056  4.29842e-05  2.83962e-06      14.4986 
         -25      2.79156  4.39238e-05  2.91393e-06      14.4986 
         -25      2.84304  4.47853e-05  2.96335e-06      14.4986 
         -25      2.89494  4.55584e-05    2.984e-06      14.4985 
         -25      2.94735  4.62341e-05  2.97253e-06      14.4985 
         -25       3.0002  4.68011e-05  2.92625e-06      14.4985 
         -25      3.05355  4.72501e-05  2.84323e-06      14.4985 
         -25      3.10733  4.75714e-05  2.72283e-06      14.4984 
         -25      3.16163  4.77588e-05  2.56544e-06      14.4984 
         -25      3.21639   4.7808e-05  2.37324e-06      14.4984 
         -25      3.27158  4.77201e-05  2.15044e-06      14.4983 
         -25      3.32729  4.75018e-05  1.90283e-06      14.4983 
         -25      3.38342  4.71685e-05  1.63944e-06      14.4983 
         -25      3.44007  4.67449e-05  1.37137e-06      14.4982 
         -25      3.49714  4.62698e-05  1.11378e-06      14.4982 
         -25      3.55472  4.57963e-05  8.84682e-07      14.4982 
         -25      3.61273  4.53979e-05  7.06924e-07      14.4981 
         -25      3.67125  4.51698e-05  6.07344e-07      14.4981 
         -25      3.73025  4.52354e-05  6.18342e-07       14.498 
         -25      3.78967  4.49421e-05  7.87672e-07       14.498 
         -25      3.84961  4.44133e-05  8.74049e-07       14.498 
         -25      3.90996  4.39601e-05  9.05659e-07      14.4979 
         -25      3.97084  4.35616e-05  9.50046e-07      14.4979 
         -25      4.03214  4.32022e-05  1.04868e-06      14.4978 
         -25      4.09395  4.28689e-05  1.22171e-06      14.4978 
         -25      4.15624  4.25528e-05   1.4718e-06      14.4977 
         -25      4.21895  4.22479e-05  1.78836e-06      14.4977 
         -25      4.28217  4.19499e-05  2.15273e-06      14.4976 
         -25      4.34582  4.16573e-05  2.54024e-06      14.4976 
         -25      4.40998  4.13696e-05  2.92608e-06      14.4975 
         -25      4.47457  4.10881e-05  3.28613e-06      14.4975 
         -25      4.53968  4.08139e-05  3.60207e-06      14.4974 
         -25      4.60525  4.05493e-05  3.86141e-06      14.4974 
         -25      4.67125  4.02964e-05  4.05992e-06      14.4973 
         -25      4.73777  4.00565e-05   4.2024e-06      14.4973 
         -25       4.8047   3.9831e-05  4.30107e-06      14.4972 
         -25      4.87216    3.962e-05  4.37484e-06      14.4971 
         -25      4.94003  3.94231e-05  4.44554e-06      14.4971 
         -25      5.00843  3.92386e-05  4.53387e-06       14.497 
         -25      5.07724  3.90644e-05  4.65258e-06       14.497 
         -25      5.14658  3.88973e-05  4.79888e-06      14.4969 
         -25      5.21639  3.87341e-05  4.94345e-06      14.4968 
         -25      5.28661  3.85719e-05   5.0181e-06      14.4968 
         -25      5.35736   3.8408e-05  4.90058e-06      14.4967 
         -25      5.42852  3.82567e-05  4.63934e-06      14.4966 
         -25      5.50021  3.80736e-05  4.48032e-06      14.4966 
         -25      5.57231  3.77457e-05  4.29573e-06      14.4965 
         -25      5.64493  3.71535e-05  4.46923e-06      14.4964 
         -25      5.71803  3.65237e-05  4.94145e-06      14.4963 
         -25      5.79154  3.59613e-05  5.26469e-06      14.4963 
         -25      5.86558  3.54519e-05  5.46388e-06      14.4962 
         -25      5.94003  3.49854e-05  5.56596e-06      14.4961 
         -25      6.01501  3.45521e-05  5.59952e-06       14.496 
         -25       6.0904  3.41456e-05  5.59238e-06      14.4959 
         -25      6.16632  3.37601e-05  5.57043e-06      14.4959 
         -25      6.24271  3.33918e-05  5.55615e-06      14.4958 
         -25       6.3195  3.30425e-05  5.54555e-06      14.4957 
         -25      6.39683  3.26954e-05  5.58398e-06      14.4956 
         -25      6.47457  3.23467e-05  5.70217e-06      14.4955 
         -25      6.55284  3.20061e-05  5.86843e-06      14.4954 
         -25      6.63152  3.16843e-05  6.04638e-06      14.4953 
         -25      6.71073  3.13894e-05  6.20214e-06      14.4952 
         -25      6.79034  3.11288e-05  6.30851e-06      14.4951 
         -25      6.87049  3.09061e-05  6.34973e-06       14.495 
         -25      6.95111  3.07226e-05  6.32331e-06      14.4949 
         -25      7.03214  3.05758e-05  6.24122e-06      14.4948 
         -25       7.1137  3.04594e-05  6.12838e-06      14.4947 
         -25      7.19566  3.03637e-05  6.01988e-06      14.4946 
         -25      7.27816  3.02754e-05  5.95475e-06      14.4945 
         -25      7.36106  3.01788e-05  5.96828e-06      14.4944 
         -25      7.44451  3.00559e-05  6.08047e-06      14.4943 
         -25      7.52842  2.98882e-05  6.28176e-06      14.4942 
         -25      7.61273   2.9658e-05  6.51481e-06       14.494 
         -25      7.69758  2.93499e-05  6.65355e-06      14.4939 
         -25      7.78283  2.89544e-05  6.47637e-06      14.4938 
         -25      7.86862  2.85244e-05  6.65717e-06      14.4937 
         -25      7.95481  2.82249e-05  7.26269e-06      14.4936 
         -25      8.04155  2.81231e-05   7.1307e-06      14.4934 
         -25      8.12868  2.81207e-05   6.8411e-06      14.4933 
         -25      8.21635  2.77876e-05  7.28851e-06      14.4932 
         -25      8.30449  2.74097e-05  7.72812e-06      14.4931 
         -25      8.39303  2.69893e-05  8.13136e-06      14.4929 
         -25      8.48211  2.65376e-05  8.48453e-06      14.4928 
         -25      8.57159  2.60759e-05  8.78532e-06      14.4926 
         -25      8.66161   2.5632e-05  9.04378e-06      14.4925 
         -25      8.75203  2.52416e-05  9.27892e-06      14.4924 
         -25      8.84299  2.50181e-05  9.01689e-06      14.4922 
         -25      8.93443  2.48786e-05  8.65987e-06      14.4921 
         -25      9.02626  2.47665e-05  8.46066e-06      14.4919 
         -25      9.11863  2.46739e-05  8.40045e-06      14.4918 
         -25      9.21139  2.45949e-05  8.45954e-06      14.4916 
         -25      9.30471  2.45246e-05  8.61757e-06      14.4915 
         -25      9.39841  2.44598e-05  8.85384e-06      14.4913 
         -25      9.49267  2.43977e-05  9.14883e-06      14.4911 
         -25      9.58739  2.43367e-05  9.48362e-06       14.491 
         -25      9.68251  2.42754e-05  9.84077e-06      14.4908 
         -25      9.77817  2.42128e-05  1.02057e-05      14.4907 
         -25      9.87422  2.41486e-05  1.05652e-05      14.4905 
         -25      9.97083  2.40821e-05  1.09095e-05      14.4903 
         -25      10.0678  2.40133e-05  1.12309e-05      14.4901 
         -25      10.1654  2.39423e-05  1.15251e-05        14.49 
         -25      10.2633  2.38696e-05  1.17899e-05      14.4898 
         -25      10.3618  2.37962e-05  1.20262e-05      14.4896 
         -25      10.4607   2.3724e-05  1.22365e-05      14.4894 
         -25      10.5601  2.36559e-05  1.24248e-05      14.4892 
         -25        10.66  2.35965e-05  1.25967e-05       14.489 
         -25      10.7603  2.35524e-05  1.27569e-05      14.4888 
         -25      10.8611   2.3533e-05  1.29098e-05      14.4887 
         -25      10.9623  2.35509e-05  1.30565e-05      14.4885 
         -25      11.0641  2.36232e-05  1.31948e-05      14.4883 
         -25      11.1663   2.3621e-05  1.32767e-05       14.488 
         -25       11.269  2.33525e-05   1.3326e-05      14.4878 
         -25      11.3721  2.30601e-05  1.34214e-05      14.4876 
         -25      11.4757  2.27677e-05  1.35408e-05      14.4874 
         -25      11.5798  2.24935e-05  1.36654e-05      14.4872 
         -25      11.6844  2.22515e-05  1.37792e-05       14.487 
         -25      11.7894  2.20496e-05  1.38705e-05      14.4868 
         -25       11.895   2.1891e-05  1.39318e-05      14.4865 
         -25      12.0009  2.17737e-05  1.39607e-05      14.4863 
         -25      12.1073  2.16901e-05  1.39604e-05      14.4861 
         -25      12.2142  2.16282e-05  1.39408e-05      14.4859 
         -25      12.3216  2.15707e-05  1.39189e-05      14.4856 
         -25      12.4294  2.14967e-05  1.39198e-05      14.4854 
         -25      12.5378  2.13811e-05  1.39781e-05      14.4851 
         -25      12.6465   2.1196e-05  1.41383e-05      14.4849 
         -25      12.7558  2.10171e-05  1.43055e-05      14.4847 
         -25      12.8656  2.10102e-05  1.42309e-05      14.4844 
         -25      12.9757  2.10027e-05  1.41246e-05      14.4842 
         -25      13.0864  2.09896e-05   1.3975e-05      14.4839 
         -25      13.1975  2.09666e-05  1.37837e-05      14.4836 
         -25      13.3092  2.09291e-05  1.35622e-05      14.4834 
         -25      13.4212  2.08729e-05  1.33298e-05      14.4831 
         -25      13.5338  2.07937e-05  1.31087e-05      14.4828 
         -25      13.6468  2.06879e-05  1.29223e-05      14.4826 
         -25      13.7603   2.0553e-05  1.27897e-05      14.4823 
         -25      13.8743  2.03879e-05  1.27214e-05       14.482 
         -25      13.9886  2.01949e-05  1.27152e-05      14.4817 
         -25      14.1036  1.99792e-05  1.27501e-05      14.4814 
         -25      14.2189  1.97519e-05   1.2781e-05      14.4812 
         -25      14.3348  1.95305e-05  1.27324e-05      14.4809 
         -25       14.451  1.93418e-05  1.24919e-05      14.4806 
         -25      14.5678  1.92228e-05  1.19021e-05      14.4803 
         -25      14.6851  1.89847e-05  1.19506e-05        14.48 
         -25      14.8028  1.88344e-05  1.21765e-05      14.4797 
         -25       14.921  1.88124e-05   1.2248e-05      14.4794 
         -25      15.0396  1.88676e-05  1.22239e-05       14.479 
         -25      15.1588  1.89595e-05  1.21502e-05      14.4787 
         -25      15.2783  1.90574e-05  1.20613e-05      14.4784 
         -25      15.3984  1.91389e-05  1.19811e-05      14.4781 
         -25       15.519   1.9189e-05  1.19249e-05      14.4778 
         -25        15.64  1.91988e-05  1.19002e-05      14.4774 
         -25      15.7615  1.91646e-05  1.19082e-05      14.4771 
         -25      15.8834  1.90868e-05  1.19453e-05      14.4768 
         -25      16.0058  1.89687e-05  1.20043e-05      14.4764 
         -25      16.1286  1.88162e-05  1.20752e-05      14.4761 
         -25       16.252   1.8636e-05  1.21472e-05      14.4757 
         -25      16.3759   1.8436e-05  1.22088e-05      14.4754 
         -25      16.5002  1.82241e-05  1.22498e-05       14.475 
         -25       16.625  1.80071e-05  1.22615e-05      14.4746 
         -25      16.7501  1.77915e-05  1.22381e-05      14.4743 
         -25      16.8759  1.75818e-05  1.21774e-05      14.4739 
         -25       17.002  1.73817e-05  1.20812e-05      14.4735 
         -25      17.1287  1.71928e-05  1.19561e-05      14.4732 
         -25      17.2557  1.70161e-05   1.1814e-05      14.4728 
         -25      17.3834  1.68506e-05  1.16722e-05      14.4724 
         -25      17.5115  1.66956e-05  1.15537e-05       14.472 
         -25      17.6399  1.65501e-05  1.14873e-05      14.4716 
         -25       17.769   1.6414e-05  1.15071e-05      14.4712 
         -25      17.8984  1.62494e-05  1.14369e-05      14.4708 
         -25      18.0284  1.60965e-05  1.11906e-05      14.4704 
         -25      18.1587  1.60235e-05  1.09562e-05        14.47 
         -25      18.2896  1.60471e-05  1.07545e-05      14.4696 
         -25       18.421  1.61765e-05  1.05992e-05      14.4692 
         -25      18.5528  1.64106e-05  1.04919e-05      14.4688 
         -25      18.6851  1.67348e-05  1.04167e-05      14.4683 
         -25      18.8178   1.7116e-05  1.03352e-05      14.4679 
         -25      18.9511  1.74723e-05  1.02261e-05      14.4675 
         -25      19.0847  1.77641e-05  1.00341e-05       14.467 
         -25      19.2189   1.7981e-05  9.75622e-06      14.4666 
         -25      19.3535  1.81068e-05  9.40763e-06      14.4661 
         -25      19.4886  1.81302e-05  9.00263e-06      14.4657 
         -25      19.6242  1.78966e-05  8.88758e-06      14.4652 
         -25      19.7602    1.739e-05  9.34247e-06      14.4648 
         -25      19.8968   1.6932e-05  9.75788e-06      14.4643 
         -25      20.0337  1.65329e-05  1.01072e-05      14.4639 
         -25      20.1712  1.61975e-05  1.03751e-05      14.4634 
         -25      20.3091  1.59274e-05  1.05534e-05      14.4629 
         -25      20.4475  1.57203e-05  1.06419e-05      14.4624 
         -25      20.5864   1.5572e-05  1.06456e-05      14.4619 
         -25      20.7257  1.54763e-05  1.05739e-05      14.4615 
         -25      20.8655  1.54256e-05  1.04394e-05       14.461 
         -25      21.0058  1.54118e-05  1.02567e-05      14.4605 
         -25      21.1465  1.54266e-05  1.00412e-05        14.46 
         -25      21.2877  1.54618e-05  9.80849e-06      14.4594 
         -25      21.4294  1.55099e-05  9.57271e-06      14.4589 
         -25      21.5716  1.55641e-05  9.34685e-06      14.4584 
         -25      21.7142  1.56189e-05  9.14153e-06      14.4579 
         -25      21.8573  1.56696e-05   8.9641e-06      14.4574 
         -25      22.0008  1.57127e-05  8.81933e-06      14.4568 
         -25      22.1449  1.57458e-05  8.70814e-06      14.4563 
         -25      22.2893  1.57671e-05  8.62845e-06      14.4558 
         -25      22.4344  1.57752e-05  8.57468e-06      14.4552 
         -25      22.5797  1.57688e-05  8.53855e-06      14.4547 
         -25      22.7257  1.57457e-05  8.50932e-06      14.4541 
         -25      22.8721  1.57023e-05  8.47475e-06      14.4536 
         -25      23.0189  1.56327e-05  8.42204e-06       14.453 
         -25      23.1663  1.55275e-05  8.33893e-06      14.4524 
         -25       23.314  1.53727e-05  8.21556e-06      14.4519 
         -25      23.4623  1.51478e-05  8.04568e-06      14.4513 
         -25       23.611  1.48252e-05   7.8295e-06      14.4507 
         -25      23.7602  1.50842e-05  8.03596e-06      14.4501 
         -25        23.91  1.58531e-05  8.53371e-06      14.4495 
         -25        24.06  1.62949e-05  8.77262e-06      14.4489 
         -25      24.2107  1.65016e-05  8.83878e-06      14.4483 
         -25      24.3617  1.65467e-05  8.79843e-06      14.4477 
         -25      24.5133  1.64886e-05   8.7011e-06      14.4471 
         -25      24.6653  1.63717e-05    8.582e-06      14.4465 
         -25      24.8178  1.62284e-05  8.46385e-06      14.4459 
         -25      24.9708  1.60813e-05  8.35958e-06      14.4453 
         -25      25.1242  1.59447e-05  8.27415e-06      14.4446 
         -25      25.2781  1.58254e-05  8.20625e-06       14.444 
         -25      25.4324  1.57257e-05  8.15063e-06      14.4433 
         -25      25.5873  1.56434e-05  8.09929e-06      14.4427 
         -25      25.7426  1.55743e-05  8.04336e-06      14.4421 
         -25      25.8984  1.55122e-05  7.97409e-06      14.4414 
         -25      26.0546  1.54507e-05  7.88436e-06      14.4407 
         -25      26.2114  1.53839e-05  7.76924e-06      14.4401 
         -25      26.3686  1.53069e-05  7.62707e-06      14.4394 
         -25      26.5262  1.52165e-05  7.45997e-06      14.4387 
         -25      26.6844  1.51115e-05  7.27349e-06       14.438 
         -25      26.8429   1.4993e-05  7.07767e-06      14.4374 
         -25       27.002  1.48637e-05  6.88552e-06      14.4367 
         -25      27.1615  1.47286e-05  6.71369e-06       14.436 
         -25      27.3216  1.45935e-05  6.58037e-06      14.4353 
         -25      27.4821  1.44648e-05   6.5051e-06      14.4346 
         -25       27.643  1.43485e-05  6.50654e-06      14.4339 
         -25      27.8044  1.42482e-05  6.60072e-06      14.4331 
         -25      27.9663   1.4164e-05  6.79853e-06      14.4324 
         -25      28.1287  1.40905e-05  7.10358e-06      14.4317 
         -25      28.2914  1.40143e-05  7.50775e-06       14.431 
         -25      28.4548  1.39115e-05  7.98944e-06      14.4302 
         -25      28.6185  1.37448e-05  8.50699e-06      14.4295 
         -25      28.7828  1.35776e-05  8.37056e-06      14.4287 
         -25      28.9475  1.34804e-05  6.47226e-06       14.428 
         -25      29.1126  1.33277e-05  3.49747e-06      14.4272 
         -25      29.2784  1.36687e-05  4.60972e-06      14.4265 
         -25      29.4444  1.37322e-05  5.22858e-06      14.4257 
         -25       29.611  1.39214e-05  5.79547e-06      14.4249 
         -25       29.778  1.41517e-05  6.42822e-06      14.4242 
         -25      29.9456  1.42449e-05   6.7886e-06      14.4234 
         -25      30.1137  1.42413e-05   6.9432e-06      14.4226 
         -25      30.2821  1.41742e-05  6.95019e-06      14.4218 
         -25      30.4511  1.40702e-05  6.85886e-06       14.421 
         -25      30.6204  1.39507e-05  6.71024e-06      14.4202 
         -25      30.7903  1.38315e-05    6.537e-06      14.4194 
         -25      30.9606  1.37247e-05   6.3648e-06      14.4186 
         -25      31.1315  1.36383e-05  6.21178e-06      14.4178 
         -25      31.3028  1.35775e-05  6.09011e-06      14.4169 
         -25      31.4745  1.35447e-05  6.00602e-06      14.4161 
         -25      31.6468  1.35404e-05  5.96047e-06      14.4153 
         -25      31.8194  1.35635e-05  5.95026e-06      14.4145 
         -25      31.9926  1.36115e-05  5.96853e-06      14.4136 
         -25      32.1662  1.36811e-05  6.00569e-06      14.4128 
         -25      32.3404  1.37683e-05  6.05049e-06      14.4119 
         -25      32.5149  1.38685e-05  6.09077e-06       14.411 
         -25        32.69  1.39769e-05  6.11479e-06      14.4102 
         -25      32.8655  1.40881e-05  6.11214e-06      14.4093 
         -25      33.0414  1.41964e-05  6.07514e-06      14.4084 
         -25       33.218  1.42954e-05  5.99995e-06      14.4076 
         -25      33.3948  1.43779e-05  5.88825e-06      14.4067 
         -25      33.5723  1.44357e-05  5.74815e-06      14.4058 
         -25        33.75  1.44585e-05  5.59649e-06      14.4049 
         -25      33.9284  1.44343e-05  5.45958e-06       14.404 
         -25      34.1073  1.43479e-05  5.37579e-06      14.4031 
         -25      34.2865  1.41807e-05  5.39675e-06      14.4022 
         -25      34.4663  1.40283e-05   5.5423e-06      14.4013 
         -25      34.6465  1.41598e-05  5.48275e-06      14.4003 
         -25      34.8272  1.41153e-05  5.28439e-06      14.3994 
         -25      35.0083  1.39912e-05  4.98479e-06      14.3985 
         -25        35.19  1.38516e-05  4.62265e-06      14.3975 
         -25      35.3721  1.37344e-05  4.23753e-06      14.3966 
         -25      35.5546  1.36566e-05  3.86744e-06      14.3957 
         -25      35.7377  1.36191e-05  3.54626e-06      14.3947 
         -25      35.9211  1.36121e-05  3.30415e-06      14.3938 
         -25      36.1052  1.36189e-05  3.16413e-06      14.3928 
         -25      36.2895  1.36206e-05  3.14218e-06      14.3918 
         -25      36.4745  1.35993e-05   3.2451e-06      14.3909 
         -25      36.6598  1.35414e-05  3.46946e-06      14.3899 
         -25      36.8457  1.34405e-05  3.80122e-06      14.3889 
         -25      37.0321  1.32993e-05  4.21373e-06      14.3879 
         -25      37.2188  1.31316e-05  4.66722e-06      14.3869 
         -25      37.4062  1.29631e-05  5.10949e-06      14.3859 
         -25      37.5938  1.28323e-05  5.47294e-06      14.3849 
         -25      37.7821    1.279e-05  5.67672e-06      14.3839 
         -25      37.9707  1.28988e-05  5.62462e-06      14.3829 
         -25      38.1599  1.32315e-05  5.20589e-06      14.3819 
         -25      38.3496  1.38691e-05  4.29524e-06      14.3809 
         -25      38.5396  1.41626e-05  3.87337e-06      14.3798 
         -25      38.7302   1.3647e-05  4.57626e-06      14.3788 
         -25      38.9211  1.32096e-05  5.03962e-06      14.3778 
         -25      39.1127  1.28425e-05  5.29543e-06      14.3767 
         -25      39.3046  1.25414e-05  5.37518e-06      14.3757 
         -25      39.4971  1.23045e-05   5.3112e-06      14.3746 
         -25      39.6899  1.21356e-05   5.1353e-06      14.3736 
         -25      39.8833  1.20439e-05  4.87765e-06      14.3725 
         -25      40.0772  1.20473e-05  4.56654e-06      14.3715 
         -25      40.2714  1.21734e-05  4.22693e-06      14.3704 
         -25      40.4663   1.2462e-05  3.87806e-06      14.3693 
         -25      40.6615   1.2967e-05  3.53373e-06      14.3682 
         -25      40.8573  1.37606e-05  3.19837e-06      14.3672 
         -25      41.0534  1.44455e-05  3.15068e-06      14.3661 
         -25      41.2501  1.44642e-05  3.52516e-06       14.365 
         -25      41.4473  1.43449e-05  3.92207e-06      14.3639 
         -25      41.6448  1.41362e-05  4.30951e-06      14.3628 
         -25      41.8429  1.38775e-05  4.66425e-06      14.3617 
         -25      42.0414   1.3601e-05  4.96887e-06      14.3606 
         -25      42.2405  1.33311e-05   5.2131e-06      14.3594 
         -25      42.4399  1.30866e-05  5.39117e-06      14.3583 
         -25      42.6399  1.28798e-05  5.50256e-06      14.3572 
         -25      42.8404  1.27185e-05  5.55014e-06      14.3561 
         -25      43.0412  1.26063e-05  5.54013e-06      14.3549 
         -25      43.2426  1.25426e-05  5.48114e-06      14.3538 
         -25      43.4444  1.25242e-05   5.3837e-06      14.3526 
         -25      43.6467  1.25454e-05  5.25928e-06      14.3515 
         -25      43.8494  1.25984e-05  5.12029e-06      14.3503 
         -25      44.0527  1.26745e-05   4.9788e-06      14.3492 
         -25      44.2563  1.27638e-05  4.84686e-06       14.348 
         -25      44.4606  1.28565e-05  4.73521e-06      14.3469 
         -25      44.6653  1.29427e-05  4.65359e-06      14.3457 
         -25      44.8704   1.3013e-05  4.60996e-06      14.3445 
         -25       45.076  1.30593e-05  4.61021e-06      14.3433 
         -25       45.282  1.30745e-05  4.65805e-06      14.3421 
         -25      45.4886  1.30531e-05  4.75482e-06       14.341 
         -25      45.6955  1.29917e-05  4.89904e-06      14.3398 
         -25       45.903  1.28886e-05  5.08696e-06      14.3386 
         -25      46.1111  1.27443e-05  5.31185e-06      14.3374 
         -25      46.3194   1.2562e-05  5.56423e-06      14.3362 
         -25      46.5283  1.23465e-05   5.8328e-06       14.335 
         -25      46.7376  1.21056e-05  6.10318e-06      14.3337 
         -25      46.9475  1.18484e-05  6.35989e-06      14.3325 
         -25      47.1577  1.15871e-05  6.58505e-06      14.3313 
         -25      47.3685  1.13347e-05   6.7604e-06      14.3301 
         -25      47.5798  1.11064e-05  6.86659e-06      14.3288 
         -25      47.7914  1.09185e-05  6.88456e-06      14.3276 
         -25      48.0037    1.083e-05  6.76698e-06      14.3264 