Variables = x, y, u, v, p

Zone, I=800, F=POINT
         -25            0 -2.53099e-19 -2.70094e-24       2.3526 
         -25     0.000234 -1.25634e-05 -1.37633e-10       2.3526 
         -25     0.000939 -4.76207e-05 -5.63226e-10       2.3526 
         -25     0.002113 -9.74152e-05  -1.2994e-09       2.3526 
         -25     0.003759 -0.000151534 -2.36032e-09       2.3526 
         -25     0.005872 -0.000199207  -3.7104e-09       2.3526 
         -25     0.008457 -0.000232666 -5.24403e-09       2.3526 
         -25      0.01151 -0.000248748 -6.75423e-09       2.3526 
         -25     0.015036 -0.000249826 -7.94433e-09       2.3526 
         -25     0.019031 -0.000242629 -8.44757e-09       2.3526 
         -25     0.023493 -0.000235645  -7.8873e-09       2.3526 
         -25     0.028429  -0.00023558 -5.94003e-09       2.3526 
         -25     0.033831 -0.000244309 -2.41041e-09       2.3526 
         -25     0.039706 -0.000257749   2.7323e-09       2.3526 
         -25     0.046047  -0.00026799  9.32465e-09       2.3526 
         -25     0.052863 -0.000268997  1.70601e-08       2.3526 
         -25      0.06015 -0.000263583  2.54904e-08       2.3526 
         -25       0.0679 -0.000265475   3.3982e-08       2.3526 
         -25     0.076126 -0.000283304  4.14279e-08       2.3526 
         -25     0.084816 -0.000277918  4.57961e-08       2.3526 
         -25     0.093982 -0.000285501   4.7967e-08       2.3526 
         -25     0.103611 -0.000290663  4.56798e-08       2.3526 
         -25     0.113718 -0.000294523  3.75273e-08       2.3526 
         -25     0.124286 -0.000297864  2.20899e-08       2.3526 
         -25     0.135333 -0.000301123 -2.09907e-09       2.3526 
         -25      0.14685 -0.000304398 -3.64531e-08       2.3526 
         -25     0.158827 -0.000307539 -8.23184e-08       2.3526 
         -25     0.171284 -0.000310303 -1.41112e-07       2.3526 
         -25     0.184201 -0.000312498 -2.14017e-07       2.3526 
         -25     0.197599 -0.000314146 -3.02349e-07       2.3526 
         -25     0.211455 -0.000315503 -4.07023e-07       2.3526 
         -25     0.225792 -0.000316886 -5.29075e-07       2.3526 
         -25       0.2406 -0.000318109 -6.68952e-07       2.3526 
         -25     0.255865 -0.000318358  -8.2676e-07       2.3526 
         -25     0.271613 -0.000318804 -1.00417e-06       2.3526 
         -25     0.287818 -0.000318952 -1.20092e-06       2.3526 
         -25     0.304506 -0.000318853  -1.4172e-06       2.3526 
         -25      0.32165 -0.000318553 -1.65255e-06       2.3526 
         -25     0.339278 -0.000318092  -1.9072e-06       2.3526 
         -25     0.357377 -0.000317503 -2.18076e-06       2.3526 
         -25      0.37593 -0.000316814 -2.47262e-06       2.3526 
         -25     0.394968 -0.000316045 -2.78278e-06       2.3526 
         -25     0.414461 -0.000315213 -3.11007e-06       2.3526 
         -25      0.43444 -0.000314327 -3.45405e-06       2.3526 
         -25     0.454872 -0.000313399 -3.81298e-06       2.3526 
         -25     0.475791 -0.000312433 -4.18602e-06      2.35259 
         -25     0.497163 -0.000311436 -4.57096e-06      2.35259 
         -25     0.519021 -0.000310411 -4.96674e-06      2.35259 
         -25      0.54135 -0.000309359 -5.37165e-06      2.35259 
         -25     0.564131 -0.000308274 -5.78442e-06      2.35259 
         -25       0.5874 -0.000307134 -6.20585e-06      2.35259 
         -25     0.611121 -0.000305904 -6.63765e-06      2.35259 
         -25      0.63533 -0.000304624   -7.072e-06      2.35259 
         -25      0.65999  -0.00030325 -7.49275e-06      2.35259 
         -25     0.685139 -0.000301761 -7.90308e-06      2.35259 
         -25     0.710759 -0.000300147 -8.30462e-06      2.35259 
         -25     0.736828 -0.000298401 -8.69832e-06      2.35259 
         -25     0.763387 -0.000296516 -9.08553e-06      2.35259 
         -25     0.790396 -0.000294496 -9.46584e-06      2.35259 
         -25     0.817896 -0.000292342 -9.83958e-06      2.35259 
         -25     0.845843 -0.000290066 -1.02055e-05      2.35259 
         -25     0.874283 -0.000287677 -1.05635e-05      2.35258 
         -25      0.90317 -0.000285193 -1.09118e-05      2.35258 
         -25     0.932551 -0.000282627 -1.12502e-05      2.35258 
         -25     0.962401     -0.00028 -1.15775e-05      2.35258 
         -25     0.992697 -0.000277332  -1.1893e-05      2.35258 
         -25      1.02349 -0.000274638  -1.2197e-05      2.35258 
         -25      1.05472 -0.000271938 -1.24894e-05      2.35258 
         -25      1.08645 -0.000269245 -1.27716e-05      2.35258 
         -25      1.11863 -0.000266575 -1.30445e-05      2.35258 
         -25       1.1513 -0.000263932 -1.33104e-05      2.35257 
         -25      1.18444 -0.000261323  -1.3571e-05      2.35257 
         -25      1.21802  -0.00025875 -1.38284e-05      2.35257 
         -25      1.25211 -0.000256206 -1.40846e-05      2.35257 
         -25      1.28663 -0.000253688 -1.43397e-05      2.35257 
         -25      1.32165 -0.000251181 -1.45931e-05      2.35257 
         -25      1.35712 -0.000248678 -1.48401e-05      2.35257 
         -25      1.39308 -0.000246166 -1.50729e-05      2.35257 
         -25      1.42951 -0.000243643 -1.52773e-05      2.35256 
         -25      1.46638 -0.000241115  -1.5431e-05      2.35256 
         -25      1.50375 -0.000238599 -1.55021e-05      2.35256 
         -25      1.54156 -0.000236057 -1.58021e-05      2.35256 
         -25      1.57987  -0.00023358 -1.60399e-05      2.35256 
         -25      1.61863 -0.000231171 -1.62072e-05      2.35256 
         -25      1.65788  -0.00022882 -1.63197e-05      2.35255 
         -25      1.69757 -0.000226525 -1.63914e-05      2.35255 
         -25      1.73776 -0.000224275 -1.64345e-05      2.35255 
         -25      1.77842 -0.000222068 -1.64592e-05      2.35255 
         -25      1.81952 -0.000219901 -1.64739e-05      2.35254 
         -25      1.86113 -0.000217767 -1.64851e-05      2.35254 
         -25      1.90316 -0.000215664 -1.64972e-05      2.35254 
         -25      1.94571 -0.000213588  -1.6513e-05      2.35254 
         -25      1.98869 -0.000211538 -1.65333e-05      2.35254 
         -25      2.03217 -0.000209511 -1.65572e-05      2.35253 
         -25      2.07612 -0.000207506  -1.6582e-05      2.35253 
         -25      2.12051 -0.000205524 -1.66036e-05      2.35253 
         -25       2.1654 -0.000203563 -1.66164e-05      2.35253 
         -25      2.21073 -0.000201626 -1.66136e-05      2.35252 
         -25      2.25656 -0.000199711 -1.65871e-05      2.35252 
         -25      2.30283 -0.000197822 -1.65284e-05      2.35252 
         -25       2.3496 -0.000195959 -1.64279e-05      2.35251 
         -25      2.39685 -0.000194126 -1.62758e-05      2.35251 
         -25      2.44452 -0.000192326 -1.60624e-05      2.35251 
         -25      2.49271  -0.00019056 -1.57774e-05       2.3525 
         -25      2.54132 -0.000188835  -1.5412e-05       2.3525 
         -25      2.59044 -0.000187151 -1.49568e-05       2.3525 
         -25         2.64 -0.000185517  -1.4405e-05      2.35249 
         -25      2.69006 -0.000183934 -1.37494e-05      2.35249 
         -25      2.74056 -0.000182409 -1.29862e-05      2.35248 
         -25      2.79156 -0.000180947 -1.21116e-05      2.35248 
         -25      2.84304 -0.000179555 -1.11254e-05      2.35248 
         -25      2.89494 -0.000178239 -1.00305e-05      2.35247 
         -25      2.94735 -0.000177007  -8.8298e-06      2.35247 
         -25       3.0002 -0.000175867 -7.53268e-06      2.35246 
         -25      3.05355 -0.000174828 -6.14773e-06      2.35246 
         -25      3.10733 -0.000173901 -4.69092e-06      2.35245 
         -25      3.16163 -0.000173096 -3.17701e-06      2.35245 
         -25      3.21639 -0.000172428  -1.6275e-06      2.35244 
         -25      3.27158 -0.000171913 -6.71372e-08      2.35244 
         -25      3.32729 -0.000171568  1.48009e-06      2.35243 
         -25      3.38342 -0.000171414  2.98261e-06      2.35243 
         -25      3.44007 -0.000171475  4.41132e-06      2.35242 
         -25      3.49714 -0.000171779  5.73084e-06      2.35242 
         -25      3.55472  -0.00017236  6.90901e-06      2.35241 
         -25      3.61273 -0.000173254  7.90962e-06       2.3524 
         -25      3.67125 -0.000174509  8.70069e-06       2.3524 
         -25      3.73025 -0.000176176  9.24997e-06      2.35239 
         -25      3.78967 -0.000177437  9.71582e-06      2.35239 
         -25      3.84961 -0.000178415  1.02652e-05      2.35238 
         -25      3.90996 -0.000179452  1.08274e-05      2.35237 
         -25      3.97084 -0.000180525  1.13764e-05      2.35237 
         -25      4.03214 -0.000181615  1.18926e-05      2.35236 
         -25      4.09395 -0.000182712  1.23648e-05      2.35235 
         -25      4.15624 -0.000183806  1.27863e-05      2.35234 
         -25      4.21895 -0.000184892  1.31549e-05      2.35234 
         -25      4.28217 -0.000185969  1.34726e-05      2.35233 
         -25      4.34582 -0.000187036  1.37429e-05      2.35232 
         -25      4.40998 -0.000188096  1.39711e-05      2.35231 
         -25      4.47457 -0.000189149  1.41624e-05       2.3523 
         -25      4.53968 -0.000190198   1.4322e-05      2.35229 
         -25      4.60525 -0.000191244  1.44537e-05      2.35229 
         -25      4.67125 -0.000192284  1.45594e-05      2.35228 
         -25      4.73777 -0.000193319  1.46395e-05      2.35227 
         -25       4.8047 -0.000194342  1.46921e-05      2.35226 
         -25      4.87216 -0.000195348  1.47134e-05      2.35225 
         -25      4.94003 -0.000196326  1.46987e-05      2.35224 
         -25      5.00843 -0.000197264  1.46423e-05      2.35223 
         -25      5.07724 -0.000198146  1.45401e-05      2.35222 
         -25      5.14658 -0.000198958  1.43901e-05      2.35221 
         -25      5.21639 -0.000199681  1.41955e-05       2.3522 
         -25      5.28661 -0.000200296  1.39677e-05      2.35219 
         -25      5.35736 -0.000200788  1.37286e-05      2.35218 
         -25      5.42852 -0.000201412   1.3513e-05      2.35217 
         -25      5.50021 -0.000202288  1.33397e-05      2.35215 
         -25      5.57231 -0.000203058  1.31394e-05      2.35214 
         -25      5.64493 -0.000203765  1.29252e-05      2.35213 
         -25      5.71803 -0.000204507  1.27282e-05      2.35212 
         -25      5.79154 -0.000205198  1.24534e-05      2.35211 
         -25      5.86558  -0.00020584  1.21568e-05      2.35209 
         -25      5.94003 -0.000206435  1.18748e-05      2.35208 
         -25      6.01501 -0.000206993  1.16249e-05      2.35207 
         -25       6.0904  -0.00020752  1.14108e-05      2.35205 
         -25      6.16632 -0.000208028  1.12246e-05      2.35204 
         -25      6.24271 -0.000208526  1.10507e-05      2.35203 
         -25       6.3195 -0.000208965  1.08947e-05      2.35201 
         -25      6.39683 -0.000209315  1.07322e-05        2.352 
         -25      6.47457 -0.000209664  1.05095e-05      2.35198 
         -25      6.55284 -0.000210025  1.02197e-05      2.35197 
         -25      6.63152 -0.000210406  9.86098e-06      2.35195 
         -25      6.71073 -0.000210814    9.435e-06      2.35194 
         -25      6.79034 -0.000211248  8.94921e-06      2.35192 
         -25      6.87049 -0.000211707  8.41388e-06      2.35191 
         -25      6.95111 -0.000212184  7.84402e-06      2.35189 
         -25      7.03214 -0.000212668  7.25736e-06      2.35188 
         -25       7.1137 -0.000213151  6.67145e-06      2.35186 
         -25      7.19566 -0.000213621  6.10508e-06      2.35184 
         -25      7.27816 -0.000214072  5.57234e-06      2.35182 
         -25      7.36106 -0.000214502  5.08327e-06      2.35181 
         -25      7.44451 -0.000214919  4.63714e-06      2.35179 
         -25      7.52842 -0.000215345  4.22116e-06      2.35177 
         -25      7.61273 -0.000215818  3.80452e-06      2.35175 
         -25      7.69758 -0.000216405  3.33198e-06      2.35173 
         -25      7.78283   -0.0002172  2.72016e-06      2.35171 
         -25      7.86862 -0.000217688  2.09048e-06       2.3517 
         -25      7.95481 -0.000217611  1.66472e-06      2.35168 
         -25      8.04155 -0.000217786  1.23079e-06      2.35166 
         -25      8.12868 -0.000218215  5.39091e-07      2.35163 
         -25      8.21635 -0.000218637 -3.84615e-07      2.35161 
         -25      8.30449 -0.000218965 -1.10867e-06      2.35159 
         -25      8.39303 -0.000219224 -1.66971e-06      2.35157 
         -25      8.48211 -0.000219439 -2.10365e-06      2.35155 
         -25      8.57159 -0.000219634 -2.44289e-06      2.35153 
         -25      8.66161 -0.000219837 -2.71908e-06      2.35151 
         -25      8.75203  -0.00022007 -2.96084e-06      2.35148 
         -25      8.84299 -0.000220046 -3.24355e-06      2.35146 
         -25      8.93443 -0.000219961 -3.67617e-06      2.35144 
         -25      9.02626  -0.00021996 -4.22588e-06      2.35141 
         -25      9.11863 -0.000220023 -4.85981e-06      2.35139 
         -25      9.21139 -0.000220134 -5.54686e-06      2.35136 
         -25      9.30471 -0.000220277 -6.26178e-06      2.35134 
         -25      9.39841 -0.000220436 -6.98091e-06      2.35131 
         -25      9.49267 -0.000220598 -7.68669e-06      2.35129 
         -25      9.58739 -0.000220754 -8.36368e-06      2.35126 
         -25      9.68251 -0.000220897 -9.00033e-06      2.35124 
         -25      9.77817 -0.000221022 -9.59032e-06      2.35121 
         -25      9.87422  -0.00022113  -1.0129e-05      2.35118 
         -25      9.97083 -0.000221222 -1.06169e-05      2.35116 
         -25      10.0678 -0.000221304 -1.10563e-05      2.35113 
         -25      10.1654 -0.000221382 -1.14535e-05       2.3511 
         -25      10.2633 -0.000221463 -1.18166e-05      2.35107 
         -25      10.3618 -0.000221555 -1.21566e-05      2.35104 
         -25      10.4607 -0.000221663 -1.24858e-05      2.35101 
         -25      10.5601 -0.000221789 -1.28173e-05      2.35098 
         -25        10.66 -0.000221926 -1.31661e-05      2.35095 
         -25      10.7603 -0.000222061 -1.35455e-05      2.35092 
         -25      10.8611 -0.000222168 -1.39695e-05      2.35089 
         -25      10.9623 -0.000222205 -1.44486e-05      2.35086 
         -25      11.0641  -0.00022211 -1.49924e-05      2.35083 
         -25      11.1663 -0.000222074 -1.53757e-05       2.3508 
         -25       11.269 -0.000222345 -1.55219e-05      2.35076 
         -25      11.3721 -0.000222494  -1.5832e-05      2.35073 
         -25      11.4757  -0.00022254  -1.6253e-05       2.3507 
         -25      11.5798 -0.000222504 -1.67407e-05      2.35066 
         -25      11.6844 -0.000222411 -1.72564e-05      2.35063 
         -25      11.7894 -0.000222283 -1.77708e-05      2.35059 
         -25       11.895 -0.000222143 -1.82613e-05      2.35056 
         -25      12.0009  -0.00022201 -1.87128e-05      2.35052 
         -25      12.1073 -0.000221897 -1.91188e-05      2.35049 
         -25      12.2142  -0.00022181 -1.94788e-05      2.35045 
         -25      12.3216 -0.000221749 -1.98002e-05      2.35041 
         -25      12.4294 -0.000221702 -2.00957e-05      2.35037 
         -25      12.5378 -0.000221646 -2.03843e-05      2.35034 
         -25      12.6465 -0.000221545 -2.06887e-05       2.3503 
         -25      12.7558 -0.000221413 -2.10877e-05      2.35026 
         -25      12.8656 -0.000221358  -2.1608e-05      2.35022 
         -25      12.9757 -0.000221287 -2.21017e-05      2.35018 
         -25      13.0864 -0.000221198 -2.25443e-05      2.35014 
         -25      13.1975 -0.000221089 -2.29202e-05       2.3501 
         -25      13.3092 -0.000220964 -2.32249e-05      2.35005 
         -25      13.4212  -0.00022083 -2.34619e-05      2.35001 
         -25      13.5338 -0.000220698 -2.36434e-05      2.34997 
         -25      13.6468 -0.000220577 -2.37871e-05      2.34993 
         -25      13.7603 -0.000220476 -2.39146e-05      2.34988 
         -25      13.8743 -0.000220402 -2.40481e-05      2.34984 
         -25      13.9886 -0.000220358 -2.42063e-05      2.34979 
         -25      14.1036 -0.000220336 -2.44006e-05      2.34975 
         -25      14.2189 -0.000220323  -2.4629e-05       2.3497 
         -25      14.3348 -0.000220289  -2.4871e-05      2.34966 
         -25       14.451 -0.000220187 -2.50792e-05      2.34961 
         -25      14.5678 -0.000219952 -2.51732e-05      2.34956 
         -25      14.6851 -0.000219761 -2.56702e-05      2.34952 
         -25      14.8028  -0.00021967 -2.62466e-05      2.34947 
         -25       14.921 -0.000219599 -2.67041e-05      2.34942 
         -25      15.0396 -0.000219531 -2.70665e-05      2.34937 
         -25      15.1588 -0.000219455 -2.73557e-05      2.34932 
         -25      15.2783 -0.000219363 -2.75901e-05      2.34927 
         -25      15.3984 -0.000219253 -2.77861e-05      2.34922 
         -25       15.519 -0.000219122 -2.79571e-05      2.34916 
         -25        15.64 -0.000218972 -2.81141e-05      2.34911 
         -25      15.7615 -0.000218807 -2.82664e-05      2.34906 
         -25      15.8834 -0.000218631 -2.84206e-05      2.34901 
         -25      16.0058 -0.000218448 -2.85818e-05      2.34895 
         -25      16.1286 -0.000218266 -2.87531e-05       2.3489 
         -25       16.252  -0.00021809 -2.89363e-05      2.34884 
         -25      16.3759 -0.000217924 -2.91317e-05      2.34879 
         -25      16.5002 -0.000217773 -2.93382e-05      2.34873 
         -25       16.625 -0.000217639 -2.95544e-05      2.34867 
         -25      16.7501 -0.000217524 -2.97772e-05      2.34862 
         -25      16.8759 -0.000217427  -3.0004e-05      2.34856 
         -25       17.002 -0.000217346 -3.02309e-05       2.3485 
         -25      17.1287 -0.000217275 -3.04547e-05      2.34844 
         -25      17.2557 -0.000217206 -3.06717e-05      2.34838 
         -25      17.3834 -0.000217132 -3.08793e-05      2.34832 
         -25      17.5115 -0.000217038 -3.10749e-05      2.34826 
         -25      17.6399 -0.000216911 -3.12568e-05       2.3482 
         -25       17.769 -0.000216735 -3.14251e-05      2.34813 
         -25      17.8984  -0.00021653 -3.17045e-05      2.34807 
         -25      18.0284 -0.000216338 -3.20855e-05      2.34801 
         -25      18.1587  -0.00021613 -3.24424e-05      2.34794 
         -25      18.2896 -0.000215894 -3.27759e-05      2.34788 
         -25       18.421 -0.000215622 -3.30954e-05      2.34781 
         -25      18.5528 -0.000215305 -3.34247e-05      2.34775 
         -25      18.6851 -0.000214936 -3.38068e-05      2.34768 
         -25      18.8178  -0.00021451 -3.43075e-05      2.34761 
         -25      18.9511 -0.000214515 -3.46471e-05      2.34754 
         -25      19.0847  -0.00021452 -3.48362e-05      2.34747 
         -25      19.2189  -0.00021438 -3.49401e-05       2.3474 
         -25      19.3535 -0.000214151 -3.49297e-05      2.34733 
         -25      19.4886 -0.000213887 -3.47857e-05      2.34726 
         -25      19.6242 -0.000213706 -3.49162e-05      2.34719 
         -25      19.7602 -0.000213666 -3.56522e-05      2.34712 
         -25      19.8968 -0.000213609  -3.6255e-05      2.34705 
         -25      20.0337 -0.000213524 -3.67309e-05      2.34697 
         -25      20.1712 -0.000213405  -3.7093e-05       2.3469 
         -25      20.3091 -0.000213251 -3.73563e-05      2.34682 
         -25      20.4475 -0.000213067 -3.75393e-05      2.34675 
         -25      20.5864 -0.000212859  -3.7661e-05      2.34667 
         -25      20.7257 -0.000212634 -3.77405e-05       2.3466 
         -25      20.8655 -0.000212402 -3.77965e-05      2.34652 
         -25      21.0058 -0.000212171  -3.7846e-05      2.34644 
         -25      21.1465 -0.000211948 -3.79037e-05      2.34636 
         -25      21.2877  -0.00021174 -3.79814e-05      2.34628 
         -25      21.4294 -0.000211551 -3.80881e-05       2.3462 
         -25      21.5716 -0.000211383 -3.82292e-05      2.34612 
         -25      21.7142 -0.000211234 -3.84065e-05      2.34604 
         -25      21.8573 -0.000211102 -3.86191e-05      2.34595 
         -25      22.0008 -0.000210979 -3.88625e-05      2.34587 
         -25      22.1449 -0.000210858 -3.91309e-05      2.34579 
         -25      22.2893  -0.00021073 -3.94158e-05       2.3457 
         -25      22.4344 -0.000210583 -3.97092e-05      2.34562 
         -25      22.5797 -0.000210407 -4.00032e-05      2.34553 
         -25      22.7257 -0.000210193 -4.02931e-05      2.34544 
         -25      22.8721 -0.000209935 -4.05778e-05      2.34536 
         -25      23.0189 -0.000209631 -4.08627e-05      2.34527 
         -25      23.1663 -0.000209286 -4.11626e-05      2.34518 
         -25       23.314 -0.000208915 -4.15036e-05      2.34509 
         -25      23.4623 -0.000208544 -4.19274e-05        2.345 
         -25       23.611 -0.000208213 -4.24931e-05      2.34491 
         -25      23.7602 -0.000207992 -4.28211e-05      2.34482 
         -25        23.91 -0.000207729 -4.28282e-05      2.34472 
         -25        24.06 -0.000207396 -4.29873e-05      2.34463 
         -25      24.2107 -0.000207045  -4.3238e-05      2.34453 
         -25      24.3617 -0.000206715 -4.35353e-05      2.34444 
         -25      24.5133 -0.000206428 -4.38491e-05      2.34434 
         -25      24.6653 -0.000206194 -4.41595e-05      2.34425 
         -25      24.8178 -0.000206013 -4.44574e-05      2.34415 
         -25      24.9708  -0.00020588 -4.47398e-05      2.34405 
         -25      25.1242 -0.000205781 -4.50093e-05      2.34395 
         -25      25.2781 -0.000205703 -4.52724e-05      2.34385 
         -25      25.4324 -0.000205627 -4.55369e-05      2.34375 
         -25      25.5873 -0.000205538 -4.58118e-05      2.34365 
         -25      25.7426  -0.00020542 -4.61044e-05      2.34355 
         -25      25.8984 -0.000205262  -4.6421e-05      2.34345 
         -25      26.0546 -0.000205055 -4.67644e-05      2.34334 
         -25      26.2114 -0.000204795 -4.71352e-05      2.34324 
         -25      26.3686 -0.000204484 -4.75293e-05      2.34313 
         -25      26.5262 -0.000204128 -4.79394e-05      2.34303 
         -25      26.6844 -0.000203738 -4.83554e-05      2.34292 
         -25      26.8429 -0.000203331 -4.87632e-05      2.34281 
         -25       27.002 -0.000202925 -4.91483e-05      2.34271 
         -25      27.1615 -0.000202545 -4.94938e-05       2.3426 
         -25      27.3216 -0.000202212 -4.97854e-05      2.34249 
         -25      27.4821 -0.000201951 -5.00103e-05      2.34238 
         -25       27.643  -0.00020178 -5.01615e-05      2.34227 
         -25      27.8044 -0.000201713 -5.02406e-05      2.34215 
         -25      27.9663 -0.000201755 -5.02601e-05      2.34204 
         -25      28.1287 -0.000201895 -5.02478e-05      2.34193 
         -25      28.2914 -0.000202108  -5.0251e-05      2.34181 
         -25      28.4548 -0.000202345 -5.03416e-05       2.3417 
         -25      28.6185 -0.000202529 -5.06205e-05      2.34158 
         -25      28.7828 -0.000202014 -5.13471e-05      2.34146 
         -25      28.9475 -0.000200362  -5.2698e-05      2.34135 
         -25      29.1126 -0.000198511 -5.45999e-05      2.34123 
         -25      29.2784 -0.000198829 -5.33703e-05      2.34111 
         -25      29.4444   -0.0001993 -5.20849e-05      2.34099 
         -25       29.611 -0.000199278 -5.17052e-05      2.34087 
         -25       29.778 -0.000199052 -5.19033e-05      2.34075 
         -25      29.9456  -0.00019879 -5.23528e-05      2.34062 
         -25      30.1137 -0.000198525 -5.29249e-05       2.3405 
         -25      30.2821 -0.000198277  -5.3523e-05      2.34038 
         -25      30.4511 -0.000198056 -5.40802e-05      2.34025 
         -25      30.6204 -0.000197863 -5.45524e-05      2.34013 
         -25      30.7903 -0.000197696 -5.49178e-05         2.34 
         -25      30.9606 -0.000197546 -5.51698e-05      2.33987 
         -25      31.1315 -0.000197403 -5.53165e-05      2.33974 
         -25      31.3028 -0.000197253  -5.5375e-05      2.33961 
         -25      31.4745 -0.000197086 -5.53699e-05      2.33949 
         -25      31.6468 -0.000196891 -5.53293e-05      2.33935 
         -25      31.8194 -0.000196659 -5.52825e-05      2.33922 
         -25      31.9926 -0.000196386 -5.52577e-05      2.33909 
         -25      32.1662 -0.000196068 -5.52794e-05      2.33896 
         -25      32.3404 -0.000195708 -5.53668e-05      2.33882 
         -25      32.5149 -0.000195311 -5.55321e-05      2.33869 
         -25        32.69 -0.000194887 -5.57796e-05      2.33855 
         -25      32.8655 -0.000194448 -5.61039e-05      2.33842 
         -25      33.0414  -0.00019401   -5.649e-05      2.33828 
         -25       33.218 -0.000193588 -5.69138e-05      2.33814 
         -25      33.3948   -0.0001932 -5.73405e-05      2.33801 
         -25      33.5723 -0.000192858 -5.77279e-05      2.33787 
         -25        33.75 -0.000192577 -5.80247e-05      2.33773 
         -25      33.9284 -0.000192359 -5.81748e-05      2.33758 
         -25      34.1073 -0.000192201 -5.81175e-05      2.33744 
         -25      34.2865 -0.000192088 -5.77919e-05       2.3373 
         -25      34.4663 -0.000191918 -5.74556e-05      2.33716 
         -25      34.6465 -0.000191439 -5.81407e-05      2.33701 
         -25      34.8272 -0.000190947 -5.86349e-05      2.33687 
         -25      35.0083 -0.000190457 -5.89964e-05      2.33672 
         -25        35.19 -0.000189981 -5.92699e-05      2.33658 
         -25      35.3721 -0.000189529 -5.94856e-05      2.33643 
         -25      35.5546 -0.000189109 -5.96634e-05      2.33628 
         -25      35.7377 -0.000188727 -5.98152e-05      2.33613 
         -25      35.9211 -0.000188388 -5.99456e-05      2.33598 
         -25      36.1052 -0.000188091  -6.0055e-05      2.33583 
         -25      36.2895 -0.000187837  -6.0141e-05      2.33568 
         -25      36.4745 -0.000187623 -6.02001e-05      2.33553 
         -25      36.6598 -0.000187444 -6.02294e-05      2.33537 
         -25      36.8457 -0.000187293 -6.02277e-05      2.33522 
         -25      37.0321 -0.000187164 -6.01969e-05      2.33507 
         -25      37.2188 -0.000187045 -6.01432e-05      2.33491 
         -25      37.4062 -0.000186926 -6.00775e-05      2.33475 
         -25      37.5938 -0.000186796 -6.00166e-05       2.3346 
         -25      37.7821 -0.000186642 -5.99833e-05      2.33444 
         -25      37.9707 -0.000186451 -6.00064e-05      2.33428 
         -25      38.1599 -0.000186212 -6.01215e-05      2.33412 
         -25      38.3496 -0.000185912 -6.03698e-05      2.33396 
         -25      38.5396 -0.000185558  -6.0603e-05       2.3338 
         -25      38.7302 -0.000185202 -6.06942e-05      2.33364 
         -25      38.9211 -0.000184845   -6.084e-05      2.33348 
         -25      39.1127  -0.00018449 -6.10054e-05      2.33331 
         -25      39.3046 -0.000184135 -6.11624e-05      2.33315 
         -25      39.4971 -0.000183774 -6.12935e-05      2.33298 
         -25      39.6899 -0.000183398 -6.13916e-05      2.33282 
         -25      39.8833 -0.000183001 -6.14639e-05      2.33265 
         -25      40.0772 -0.000182574 -6.15331e-05      2.33249 
         -25      40.2714 -0.000182113 -6.16406e-05      2.33232 
         -25      40.4663 -0.000181619   -6.185e-05      2.33215 
         -25      40.6615 -0.000181099 -6.22494e-05      2.33198 
         -25      40.8573 -0.000180569 -6.29565e-05      2.33181 
         -25      41.0534 -0.000180144 -6.34466e-05      2.33164 
         -25      41.2501 -0.000179899 -6.32552e-05      2.33147 
         -25      41.4473 -0.000179709 -6.31541e-05      2.33129 
         -25      41.6448  -0.00017955 -6.31264e-05      2.33112 
         -25      41.8429 -0.000179405 -6.31566e-05      2.33095 
         -25      42.0414 -0.000179257 -6.32306e-05      2.33077 
         -25      42.2405 -0.000179097 -6.33358e-05       2.3306 
         -25      42.4399 -0.000178916 -6.34607e-05      2.33042 
         -25      42.6399  -0.00017871 -6.35958e-05      2.33024 
         -25      42.8404 -0.000178476 -6.37326e-05      2.33007 
         -25      43.0412 -0.000178213 -6.38641e-05      2.32989 
         -25      43.2426 -0.000177923 -6.39852e-05      2.32971 
         -25      43.4444 -0.000177608 -6.40916e-05      2.32953 
         -25      43.6467 -0.000177271 -6.41809e-05      2.32935 
         -25      43.8494 -0.000176917 -6.42516e-05      2.32917 
         -25      44.0527 -0.000176551 -6.43039e-05      2.32899 
         -25      44.2563 -0.000176177 -6.43388e-05       2.3288 
         -25      44.4606 -0.000175801 -6.43585e-05      2.32862 
         -25      44.6653 -0.000175426 -6.43664e-05      2.32844 
         -25      44.8704 -0.000175058 -6.43663e-05      2.32825 
         -25       45.076   -0.0001747 -6.43631e-05      2.32807 
         -25       45.282 -0.000174354  -6.4362e-05      2.32788 
         -25      45.4886 -0.000174023 -6.43686e-05      2.32769 
         -25      45.6955 -0.000173707 -6.43887e-05       2.3275 
         -25       45.903 -0.000173406  -6.4428e-05      2.32732 
         -25      46.1111  -0.00017312 -6.44918e-05      2.32713 
         -25      46.3194 -0.000172846 -6.45848e-05      2.32694 
         -25      46.5283 -0.000172582 -6.47112e-05      2.32675 
         -25      46.7376 -0.000172324 -6.48734e-05      2.32656 
         -25      46.9475 -0.000172067 -6.50729e-05      2.32636 
         -25      47.1577 -0.000171807 -6.53089e-05      2.32617 
         -25      47.3685 -0.000171538 -6.55788e-05      2.32598 
         -25      47.5798 -0.000171256 -6.58769e-05      2.32579 
         -25      47.7914 -0.000170955 -6.61944e-05      2.32559 
         -25      48.0037 -0.000170605 -6.64724e-05       2.3254 