Variables = x, y, u, v, p

Zone, I=800, F=POINT
         750            0            0            0      8.33559 
         750     0.000234  7.66428e-06   8.3166e-11      8.33559 
         750     0.000939  2.91298e-05  1.33895e-09      8.33559 
         750     0.002113  5.98849e-05  6.77058e-09      8.33559 
         750     0.003759  9.38929e-05  2.13825e-08      8.33559 
         750     0.005872  0.000124917  5.20344e-08      8.33559 
         750     0.008457  0.000148494  1.07566e-07      8.33559 
         750      0.01151  0.000162808   1.9844e-07      8.33559 
         750     0.015036  0.000169206  3.37046e-07      8.33559 
         750     0.019031  0.000171406  5.37029e-07      8.33559 
         750     0.023493  0.000173931  8.13389e-07      8.33559 
         750     0.028429  0.000180019  1.18298e-06      8.33559 
         750     0.033831  0.000189838  1.66263e-06      8.33559 
         750     0.039706  0.000200003  2.27121e-06      8.33559 
         750     0.046047  0.000205025  3.02686e-06      8.33559 
         750     0.052863  0.000200917  3.94989e-06      8.33559 
         750      0.06015  0.000189426  5.05926e-06      8.33559 
         750       0.0679  0.000178954  6.37279e-06      8.33559 
         750     0.076126  0.000173838   7.9114e-06      8.33559 
         750     0.084816  0.000147771  9.69091e-06      8.33559 
         750     0.093982     0.000127  1.17309e-05      8.33559 
         750     0.103611  9.92349e-05  1.40442e-05      8.33559 
         750     0.113718  6.54018e-05  1.66489e-05      8.33559 
         750     0.124286  2.63231e-05  1.95533e-05      8.33559 
         750     0.135333 -1.75393e-05  2.27733e-05      8.33559 
         750      0.14685 -6.58418e-05  2.63152e-05      8.33559 
         750     0.158827  -0.00011837  3.01822e-05      8.33559 
         750     0.171284 -0.000175067  3.43854e-05      8.33559 
         750     0.184201 -0.000235581  3.89199e-05      8.33559 
         750     0.197599 -0.000299517   4.3793e-05      8.33559 
         750     0.211455 -0.000366023  4.89939e-05      8.33559 
         750     0.225792 -0.000434386  5.45265e-05      8.33559 
         750       0.2406 -0.000504171  6.03806e-05      8.33559 
         750     0.255865 -0.000575464  6.65415e-05      8.33559 
         750     0.271613 -0.000646742  7.30102e-05      8.33559 
         750     0.287818 -0.000717789  7.97643e-05      8.33559 
         750     0.304506 -0.000788138  8.68015e-05      8.33559 
         750      0.32165 -0.000857126  9.40963e-05      8.33559 
         750     0.339278 -0.000924355  0.000101646      8.33559 
         750     0.357377  -0.00098931  0.000109431      8.33559 
         750      0.37593  -0.00105152  0.000117429      8.33559 
         750     0.394968  -0.00111075  0.000125638      8.33559 
         750     0.414461  -0.00116659  0.000134031      8.33559 
         750      0.43444  -0.00121891  0.000142608      8.33559 
         750     0.454872  -0.00126741  0.000151342      8.33559 
         750     0.475791  -0.00131206  0.000160234      8.33559 
         750     0.497163  -0.00135266   0.00016926      8.33559 
         750     0.519021  -0.00138924  0.000178424      8.33559 
         750      0.54135  -0.00142174   0.00018771      8.33559 
         750     0.564131  -0.00145016  0.000197105      8.33559 
         750       0.5874  -0.00147458  0.000206618      8.33559 
         750     0.611121  -0.00149508  0.000216235      8.33559 
         750      0.63533  -0.00151169  0.000225963      8.33559 
         750      0.65999  -0.00152457  0.000235775      8.33559 
         750     0.685139  -0.00153382  0.000245691      8.33559 
         750     0.710759  -0.00153954  0.000255705      8.33559 
         750     0.736828  -0.00154182  0.000265813      8.33559 
         750     0.763387  -0.00154077  0.000276033      8.33559 
         750     0.790396   -0.0015365   0.00028635      8.33559 
         750     0.817896   -0.0015291  0.000296781      8.33559 
         750     0.845843  -0.00151869  0.000307311      8.33559 
         750     0.874283  -0.00150539  0.000317956      8.33559 
         750      0.90317  -0.00148933  0.000328696      8.33559 
         750     0.932551  -0.00147062  0.000339549      8.33559 
         750     0.962401  -0.00144942  0.000350501      8.33559 
         750     0.992697   -0.0014259  0.000361541      8.33559 
         750      1.02349  -0.00140019   0.00037268      8.33559 
         750      1.05472  -0.00137251  0.000383895      8.33559 
         750      1.08645  -0.00134303  0.000395198      8.33559 
         750      1.11863    -0.001312  0.000406562      8.33559 
         750       1.1513  -0.00127962  0.000417997      8.33559 
         750      1.18444  -0.00124616  0.000429483      8.33559 
         750      1.21802  -0.00121192  0.000440999      8.33559 
         750      1.25211  -0.00117712  0.000452551      8.33559 
         750      1.28663   -0.0011421  0.000464105      8.33559 
         750      1.32165  -0.00110709  0.000475663      8.33559 
         750      1.35712  -0.00107241  0.000487187      8.33559 
         750      1.39308  -0.00103825  0.000498674      8.33559 
         750      1.42951  -0.00100482   0.00051009      8.33559 
         750      1.46638 -0.000972257  0.000521395      8.33559 
         750      1.50375  -0.00094054  0.000532575      8.33559 
         750      1.54156 -0.000909378  0.000543732      8.33559 
         750      1.57987 -0.000879738  0.000554765      8.33559 
         750      1.61863 -0.000851503  0.000565641      8.33559 
         750      1.65788 -0.000824421  0.000576375      8.33559 
         750      1.69757 -0.000798341  0.000586944      8.33559 
         750      1.73776 -0.000773035  0.000597359      8.33559 
         750      1.77842 -0.000748353  0.000607606      8.33559 
         750      1.81952 -0.000724154  0.000617671      8.33559 
         750      1.86113 -0.000700255  0.000627564      8.33559 
         750      1.90316 -0.000676564  0.000637261      8.33559 
         750      1.94571 -0.000652926   0.00064677      8.33559 
         750      1.98869 -0.000629279  0.000656067      8.33559 
         750      2.03217 -0.000605498   0.00066516      8.33559 
         750      2.07612 -0.000581531  0.000674032      8.33559 
         750      2.12051 -0.000557342  0.000682666       8.3356 
         750       2.1654 -0.000532849  0.000691066       8.3356 
         750      2.21073 -0.000508063  0.000699211       8.3356 
         750      2.25656 -0.000482929  0.000707103       8.3356 
         750      2.30283 -0.000457485   0.00071472       8.3356 
         750       2.3496 -0.000431698  0.000722064       8.3356 
         750      2.39685 -0.000405608  0.000729119       8.3356 
         750      2.44452 -0.000379263   0.00073587       8.3356 
         750      2.49271 -0.000352658  0.000742318       8.3356 
         750      2.54132 -0.000325878  0.000748444      8.33561 
         750      2.59044 -0.000298926   0.00075425      8.33561 
         750         2.64 -0.000271899  0.000759717      8.33561 
         750      2.69006 -0.000244806  0.000764846      8.33561 
         750      2.74056 -0.000217745  0.000769623      8.33561 
         750      2.79156 -0.000190729  0.000774049      8.33561 
         750      2.84304  -0.00016383  0.000778112      8.33562 
         750      2.89494 -0.000137121  0.000781807      8.33562 
         750      2.94735 -0.000110604  0.000785134      8.33562 
         750       3.0002 -8.43636e-05  0.000788084      8.33562 
         750      3.05355 -5.83966e-05  0.000790659      8.33562 
         750      3.10733 -3.27755e-05  0.000792854      8.33563 
         750      3.16163 -7.48823e-06  0.000794669      8.33563 
         750      3.21639  1.74197e-05  0.000796103      8.33563 
         750      3.27158  4.19057e-05  0.000797153      8.33563 
         750      3.32729  6.59852e-05  0.000797821      8.33563 
         750      3.38342  8.95932e-05  0.000798107      8.33564 
         750      3.44007  0.000112732  0.000798008      8.33564 
         750      3.49714   0.00013532  0.000797525      8.33564 
         750      3.55472  0.000157327  0.000796655      8.33564 
         750      3.61273  0.000178628  0.000795393      8.33565 
         750      3.67125  0.000199134  0.000793734      8.33565 
         750      3.73025  0.000218658   0.00079167      8.33565 
         750      3.78967  0.000237855  0.000789422      8.33566 
         750      3.84961  0.000256475  0.000786884      8.33566 
         750      3.90996  0.000274111  0.000783963      8.33566 
         750      3.97084  0.000290805  0.000780675      8.33566 
         750      4.03214  0.000306543  0.000777045      8.33567 
         750      4.09395  0.000321363  0.000773084      8.33567 
         750      4.15624  0.000335268  0.000768815      8.33567 
         750      4.21895  0.000348263  0.000764259      8.33568 
         750      4.28217  0.000360386  0.000759426      8.33568 
         750      4.34582  0.000371633  0.000754342      8.33568 
         750      4.40998  0.000382042  0.000749014      8.33568 
         750      4.47457  0.000391612  0.000743467      8.33569 
         750      4.53968  0.000400381  0.000737709      8.33569 
         750      4.60525  0.000408358   0.00073176      8.33569 
         750      4.67125   0.00041556  0.000725637       8.3357 
         750      4.73777   0.00042202  0.000719347       8.3357 
         750       4.8047   0.00042775  0.000712912       8.3357 
         750      4.87216  0.000432782  0.000706336      8.33571 
         750      4.94003  0.000437131  0.000699641      8.33571 
         750      5.00843  0.000440829  0.000692829      8.33571 
         750      5.07724  0.000443895  0.000685922      8.33572 
         750      5.14658  0.000446359   0.00067892      8.33572 
         750      5.21639  0.000448246  0.000671838      8.33572 
         750      5.28661  0.000449581  0.000664691      8.33572 
         750      5.35736  0.000450394  0.000657478      8.33573 
         750      5.42852  0.000450711  0.000650219      8.33573 
         750      5.50021  0.000450561  0.000642909      8.33573 
         750      5.57231  0.000449973  0.000635568      8.33574 
         750      5.64493  0.000448976  0.000628191      8.33574 
         750      5.71803  0.000447599   0.00062079      8.33574 
         750      5.79154  0.000445873  0.000613376      8.33575 
         750      5.86558  0.000443825  0.000605943      8.33575 
         750      5.94003  0.000441488  0.000598508      8.33575 
         750      6.01501  0.000438887  0.000591061      8.33576 
         750       6.0904  0.000436057  0.000583619      8.33576 
         750      6.16632  0.000433021  0.000576172      8.33576 
         750      6.24271   0.00042981  0.000568729      8.33576 
         750       6.3195  0.000426454  0.000561297      8.33577 
         750      6.39683   0.00042296   0.00055398      8.33577 
         750      6.47457  0.000419355   0.00054675      8.33577 
         750      6.55284   0.00041566  0.000539561      8.33578 
         750      6.63152  0.000411904  0.000532425      8.33578 
         750      6.71073  0.000408101  0.000525331      8.33578 
         750      6.79034  0.000404277  0.000518288      8.33578 
         750      6.87049  0.000400438  0.000511282      8.33579 
         750      6.95111  0.000396602  0.000504318      8.33579 
         750      7.03214  0.000392777  0.000497396      8.33579 
         750       7.1137  0.000388963  0.000490501      8.33579 
         750      7.19566  0.000385165  0.000483641       8.3358 
         750      7.27816   0.00038137  0.000476801       8.3358 
         750      7.36106  0.000377572  0.000469985       8.3358 
         750      7.44451  0.000373748  0.000463178      8.33581 
         750      7.52842  0.000369874  0.000456382      8.33581 
         750      7.61273   0.00036592  0.000449599      8.33581 
         750      7.69758  0.000362234  0.000443149      8.33581 
         750      7.78283   0.00035861  0.000436809      8.33582 
         750      7.86862  0.000354955  0.000430484      8.33582 
         750      7.95481  0.000351291  0.000424189      8.33582 
         750      8.04155  0.000347623  0.000417922      8.33582 
         750      8.12868  0.000343969  0.000411699      8.33583 
         750      8.21635  0.000340334  0.000405518      8.33583 
         750      8.30449  0.000336729   0.00039939      8.33583 
         750      8.39303  0.000333165  0.000393327      8.33583 
         750      8.48211  0.000329645  0.000387322      8.33583 
         750      8.57159  0.000326181  0.000381391      8.33584 
         750      8.66161  0.000322773  0.000375527      8.33584 
         750      8.75203  0.000319434   0.00036974      8.33584 
         750      8.84299  0.000316118  0.000364004      8.33584 
         750      8.93443   0.00031272  0.000358297      8.33585 
         750      9.02626  0.000309381  0.000352687      8.33585 
         750      9.11863  0.000306093  0.000347157      8.33585 
         750      9.21139  0.000302859  0.000341709      8.33585 
         750      9.30471  0.000299671  0.000336328      8.33586 
         750      9.39841  0.000296532  0.000331017      8.33586 
         750      9.49267  0.000293435  0.000325761      8.33586 
         750      9.58739  0.000290379   0.00032056      8.33586 
         750      9.68251  0.000287366  0.000315414      8.33586 
         750      9.77817  0.000284387  0.000310313      8.33587 
         750      9.87422  0.000281447  0.000305263      8.33587 
         750      9.97083  0.000278537  0.000300256      8.33587 
         750      10.0678  0.000275661  0.000295301      8.33587 
         750      10.1654  0.000272812  0.000290392      8.33587 
         750      10.2633  0.000269994   0.00028554      8.33588 
         750      10.3618  0.000267201  0.000280739      8.33588 
         750      10.4607  0.000264435  0.000275997      8.33588 
         750      10.5601  0.000261696  0.000271321      8.33588 
         750        10.66   0.00025898  0.000266706      8.33588 
         750      10.7603  0.000256291  0.000262159      8.33588 
         750      10.8611  0.000253625   0.00025767      8.33589 
         750      10.9623  0.000250987  0.000253241      8.33589 
         750      11.0641  0.000248373  0.000248855      8.33589 
         750      11.1663  0.000245786  0.000244499      8.33589 
         750       11.269   0.00024323  0.000240153      8.33589 
         750      11.3721   0.00024081  0.000235902       8.3359 
         750      11.4757  0.000238606  0.000231905       8.3359 
         750      11.5798  0.000236336  0.000227883       8.3359 
         750      11.6844  0.000234032  0.000223867       8.3359 
         750      11.7894  0.000231715  0.000219873       8.3359 
         750       11.895  0.000229406  0.000215918       8.3359 
         750      12.0009   0.00022712   0.00021202      8.33591 
         750      12.1073  0.000224865  0.000208179      8.33591 
         750      12.2142  0.000222651  0.000204407      8.33591 
         750      12.3216  0.000220477    0.0002007      8.33591 
         750      12.4294  0.000218348  0.000197063      8.33591 
         750      12.5378  0.000216259  0.000193489      8.33591 
         750      12.6465  0.000214211  0.000189978      8.33591 
         750      12.7558  0.000212195  0.000186521      8.33592 
         750      12.8656  0.000210208  0.000183113      8.33592 
         750      12.9757  0.000208246  0.000179752      8.33592 
         750      13.0864    0.0002063  0.000176427      8.33592 
         750      13.1975  0.000204367  0.000173138      8.33592 
         750      13.3092   0.00020244  0.000169877      8.33592 
         750      13.4212  0.000200517  0.000166648      8.33592 
         750      13.5338  0.000198593  0.000163449      8.33593 
         750      13.6468  0.000196668  0.000160287      8.33593 
         750      13.7603  0.000194868  0.000157087      8.33593 
         750      13.8743  0.000193129  0.000153957      8.33593 
         750      13.9886  0.000191433  0.000150915      8.33593 
         750      14.1036  0.000189774  0.000147952      8.33593 
         750      14.2189   0.00018815  0.000145066      8.33593 
         750      14.3348  0.000186555  0.000142245      8.33594 
         750       14.451  0.000184988  0.000139483      8.33594 
         750      14.5678  0.000183445   0.00013677      8.33594 
         750      14.6851  0.000181924  0.000134096      8.33594 
         750      14.8028  0.000180426  0.000131459      8.33594 
         750       14.921  0.000178949  0.000128846      8.33594 
         750      15.0396  0.000177493  0.000126262      8.33594 
         750      15.1588  0.000176058  0.000123702      8.33594 
         750      15.2783  0.000174646  0.000121177      8.33594 
         750      15.3984  0.000173256  0.000118699      8.33595 
         750       15.519  0.000171889   0.00011629      8.33595 
         750        15.64   0.00017054  0.000113983      8.33595 
         750      15.7615  0.000169102  0.000111667      8.33595 
         750      15.8834  0.000167712  0.000109397      8.33595 
         750      16.0058  0.000166365  0.000107167      8.33595 
         750      16.1286  0.000165057  0.000104977      8.33595 
         750       16.252  0.000163782   0.00010282      8.33595 
         750      16.3759  0.000162538  0.000100696      8.33595 
         750      16.5002  0.000161323  9.86046e-05      8.33596 
         750       16.625  0.000160131  9.65411e-05      8.33596 
         750      16.7501  0.000158964   9.4508e-05      8.33596 
         750      16.8759  0.000157817  9.25015e-05      8.33596 
         750       17.002  0.000156691  9.05245e-05      8.33596 
         750      17.1287  0.000155583  8.85741e-05      8.33596 
         750      17.2557  0.000154495   8.6654e-05      8.33596 
         750      17.3834  0.000153424  8.47618e-05      8.33596 
         750      17.5115  0.000152371  8.29003e-05      8.33596 
         750      17.6399  0.000151339  8.10721e-05      8.33596 
         750       17.769  0.000150325  7.92759e-05      8.33597 
         750      17.8984  0.000149332  7.75162e-05      8.33597 
         750      18.0284  0.000148361  7.57922e-05      8.33597 
         750      18.1587  0.000147412  7.41085e-05      8.33597 
         750      18.2896  0.000146488  7.24647e-05      8.33597 
         750       18.421  0.000145589  7.08642e-05      8.33597 
         750      18.5528  0.000144718  6.93104e-05      8.33597 
         750      18.6851  0.000143875  6.78033e-05      8.33597 
         750      18.8178  0.000143064  6.63474e-05      8.33597 
         750      18.9511  0.000142285  6.49425e-05      8.33597 
         750      19.0847  0.000141488  6.35404e-05      8.33597 
         750      19.2189  0.000140617  6.20808e-05      8.33597 
         750      19.3535  0.000139768  6.06566e-05      8.33598 
         750      19.4886  0.000138941  5.92629e-05      8.33598 
         750      19.6242  0.000138136  5.78985e-05      8.33598 
         750      19.7602  0.000137354  5.65625e-05      8.33598 
         750      19.8968  0.000136594  5.52511e-05      8.33598 
         750      20.0337  0.000135857  5.39655e-05      8.33598 
         750      20.1712  0.000135142  5.27029e-05      8.33598 
         750      20.3091  0.000134451  5.14653e-05      8.33598 
         750      20.4475  0.000133782  5.02509e-05      8.33598 
         750      20.5864  0.000133135  4.90616e-05      8.33598 
         750      20.7257   0.00013251  4.78993e-05      8.33598 
         750      20.8655  0.000131904  4.67633e-05      8.33598 
         750      21.0058  0.000131317  4.56571e-05      8.33598 
         750      21.1465  0.000130746  4.45802e-05      8.33599 
         750      21.2877  0.000130188  4.35358e-05      8.33599 
         750      21.4294  0.000129638  4.25231e-05      8.33599 
         750      21.5716  0.000129094  4.15434e-05      8.33599 
         750      21.7142  0.000128549  4.05971e-05      8.33599 
         750      21.8573  0.000127995  3.96811e-05      8.33599 
         750      22.0008  0.000127427  3.87943e-05      8.33599 
         750      22.1449  0.000126832  3.79306e-05      8.33599 
         750      22.2893  0.000126202  3.70846e-05      8.33599 
         750      22.4344  0.000125522  3.62459e-05      8.33599 
         750      22.5797  0.000124838  3.54038e-05      8.33599 
         750      22.7257  0.000124493  3.45523e-05      8.33599 
         750      22.8721  0.000124137  3.36984e-05      8.33599 
         750      23.0189  0.000123769  3.28479e-05      8.33599 
         750      23.1663  0.000123389  3.20041e-05        8.336 
         750       23.314  0.000122998  3.11723e-05        8.336 
         750      23.4623  0.000122596  3.03545e-05        8.336 
         750       23.611  0.000122186  2.95548e-05        8.336 
         750      23.7602  0.000121769  2.87744e-05        8.336 
         750        23.91  0.000121348  2.80159e-05        8.336 
         750        24.06  0.000120926  2.72814e-05        8.336 
         750      24.2107  0.000120507  2.65709e-05        8.336 
         750      24.3617  0.000120095  2.58866e-05        8.336 
         750      24.5133  0.000119692  2.52279e-05        8.336 
         750      24.6653  0.000119304  2.45965e-05        8.336 
         750      24.8178  0.000118933  2.39917e-05        8.336 
         750      24.9708  0.000118585  2.34141e-05        8.336 
         750      25.1242  0.000118264  2.28645e-05        8.336 
         750      25.2781  0.000117974   2.2342e-05        8.336 
         750      25.4324   0.00011772  2.18477e-05        8.336 
         750      25.5873  0.000117449  2.13015e-05      8.33601 
         750      25.7426  0.000117137  2.06994e-05      8.33601 
         750      25.8984   0.00011683  2.01199e-05      8.33601 
         750      26.0546  0.000116528  1.95631e-05      8.33601 
         750      26.2114  0.000116232  1.90276e-05      8.33601 
         750      26.3686  0.000115942  1.85129e-05      8.33601 
         750      26.5262  0.000115659  1.80182e-05      8.33601 
         750      26.6844  0.000115382  1.75417e-05      8.33601 
         750      26.8429  0.000115111  1.70827e-05      8.33601 
         750       27.002  0.000114848  1.66393e-05      8.33601 
         750      27.1615  0.000114591  1.62107e-05      8.33601 
         750      27.3216  0.000114341  1.57946e-05      8.33601 
         750      27.4821  0.000114097  1.53901e-05      8.33601 
         750       27.643   0.00011386  1.49959e-05      8.33601 
         750      27.8044  0.000113629    1.461e-05      8.33601 
         750      27.9663  0.000113404  1.42317e-05      8.33602 
         750      28.1287  0.000113184  1.38593e-05      8.33602 
         750      28.2914   0.00011297  1.34923e-05      8.33602 
         750      28.4548  0.000112761  1.31293e-05      8.33602 
         750      28.6185  0.000112557  1.27703e-05      8.33602 
         750      28.7828  0.000112358  1.24146e-05      8.33602 
         750      28.9475  0.000112163  1.20624e-05      8.33602 
         750      29.1126  0.000111974  1.17146e-05      8.33602 
         750      29.2784   0.00011179  1.13716e-05      8.33602 
         750      29.4444  0.000111612  1.10353e-05      8.33602 
         750       29.611  0.000111441  1.07073e-05      8.33602 
         750       29.778  0.000111276  1.03907e-05      8.33602 
         750      29.9456  0.000111121  1.00886e-05      8.33602 
         750      30.1137  0.000110976  9.80526e-06      8.33602 
         750      30.2821  0.000110843    9.546e-06      8.33602 
         750      30.4511  0.000110725  9.31637e-06      8.33602 
         750      30.6204  0.000110624  9.12374e-06      8.33603 
         750      30.7903  0.000110545  8.97592e-06      8.33603 
         750      30.9606  0.000110491  8.88244e-06      8.33603 
         750      31.1315  0.000110276  8.57422e-06      8.33603 
         750      31.3028  0.000110017  8.17281e-06      8.33603 
         750      31.4745  0.000109808  7.81819e-06      8.33603 
         750      31.6468  0.000109641  7.50382e-06      8.33603 
         750      31.8194  0.000109504   7.2247e-06      8.33603 
         750      31.9926  0.000109391  6.97536e-06      8.33603 
         750      32.1662  0.000109295  6.75164e-06      8.33603 
         750      32.3404   0.00010921  6.54906e-06      8.33603 
         750      32.5149  0.000109132  6.36425e-06      8.33603 
         750        32.69  0.000109056  6.19362e-06      8.33603 
         750      32.8655   0.00010898  6.03439e-06      8.33603 
         750      33.0414  0.000108903  5.88416e-06      8.33604 
         750       33.218  0.000108822  5.74049e-06      8.33604 
         750      33.3948  0.000108737  5.60176e-06      8.33604 
         750      33.5723  0.000108649  5.46618e-06      8.33604 
         750        33.75  0.000108556  5.33274e-06      8.33604 
         750      33.9284   0.00010846  5.20024e-06      8.33604 
         750      34.1073  0.000108362  5.06807e-06      8.33604 
         750      34.2865  0.000108263  4.93585e-06      8.33604 
         750      34.4663  0.000108164  4.80311e-06      8.33604 
         750      34.6465  0.000108067  4.67001e-06      8.33604 
         750      34.8272  0.000107973  4.53645e-06      8.33604 
         750      35.0083  0.000107882  4.40295e-06      8.33604 
         750        35.19  0.000107798  4.26972e-06      8.33604 
         750      35.3721  0.000107719  4.13744e-06      8.33604 
         750      35.5546  0.000107649   4.0069e-06      8.33605 
         750      35.7377  0.000107586  3.87867e-06      8.33605 
         750      35.9211  0.000107531  3.75382e-06      8.33605 
         750      36.1052  0.000107484  3.63307e-06      8.33605 
         750      36.2895  0.000107446  3.51759e-06      8.33605 
         750      36.4745  0.000107415  3.40821e-06      8.33605 
         750      36.6598  0.000107389  3.30614e-06      8.33605 
         750      36.8457  0.000107369  3.21226e-06      8.33605 
         750      37.0321  0.000107351  3.12769e-06      8.33605 
         750      37.2188  0.000107333  3.05352e-06      8.33605 
         750      37.4062  0.000107313  2.99062e-06      8.33605 
         750      37.5938  0.000107287  2.94007e-06      8.33605 
         750      37.7821  0.000107253  2.90269e-06      8.33605 
         750      37.9707  0.000107206  2.87943e-06      8.33606 
         750      38.1599  0.000107143  2.87105e-06      8.33606 
         750      38.3496   0.00010706  2.87834e-06      8.33606 
         750      38.5396  0.000106952  2.90194e-06      8.33606 
         750      38.7302  0.000106834  2.90912e-06      8.33606 
         750      38.9211  0.000106797   2.7618e-06      8.33606 
         750      39.1127  0.000106766  2.62127e-06      8.33606 
         750      39.3046   0.00010674  2.48981e-06      8.33606 
         750      39.4971   0.00010672  2.36905e-06      8.33606 
         750      39.6899  0.000106707  2.26073e-06      8.33606 
         750      39.8833  0.000106701  2.16596e-06      8.33606 
         750      40.0772  0.000106709  2.08574e-06      8.33606 
         750      40.2714  0.000106735  2.02064e-06      8.33607 
         750      40.4663  0.000106787  1.97063e-06      8.33607 
         750      40.6615  0.000106878   1.9354e-06      8.33607 
         750      40.8573   0.00010702  1.91394e-06      8.33607 
         750      41.0534  0.000107232  1.90475e-06      8.33607 
         750      41.2501  0.000107049  1.88701e-06      8.33607 
         750      41.4473  0.000106457    1.834e-06      8.33607 
         750      41.6448  0.000106041  1.76259e-06      8.33607 
         750      41.8429  0.000105775   1.6761e-06      8.33607 
         750      42.0414  0.000105639  1.57799e-06      8.33607 
         750      42.2405   0.00010561  1.47135e-06      8.33607 
         750      42.4399  0.000105667  1.35945e-06      8.33608 
         750      42.6399  0.000105792  1.24506e-06      8.33608 
         750      42.8404  0.000105966  1.13107e-06      8.33608 
         750      43.0412  0.000106171  1.02019e-06      8.33608 
         750      43.2426  0.000106394  9.14664e-07      8.33608 
         750      43.4444  0.000106578  8.68613e-07      8.33608 
         750      43.6467  0.000106667  9.16116e-07      8.33608 
         750      43.8494   0.00010672  9.60697e-07      8.33608 
         750      44.0527  0.000106738   1.0005e-06      8.33608 
         750      44.2563  0.000106724  1.03404e-06      8.33608 
         750      44.4606  0.000106683  1.06035e-06      8.33609 
         750      44.6653  0.000106617   1.0788e-06      8.33609 
         750      44.8704  0.000106532   1.0891e-06      8.33609 
         750       45.076  0.000106434  1.09131e-06      8.33609 
         750       45.282  0.000106326  1.08571e-06      8.33609 
         750      45.4886  0.000106214   1.0728e-06      8.33609 
         750      45.6955  0.000106104  1.05327e-06      8.33609 
         750       45.903     0.000106  1.02792e-06      8.33609 
         750      46.1111  0.000105905  9.97674e-07      8.33609 
         750      46.3194  0.000105823  9.63544e-07      8.33609 
         750      46.5283  0.000105758  9.26488e-07       8.3361 
         750      46.7376   0.00010571  8.87576e-07       8.3361 
         750      46.9475  0.000105682  8.47727e-07       8.3361 
         750      47.1577  0.000105674  8.07925e-07       8.3361 
         750      47.3685  0.000105685  7.68949e-07       8.3361 
         750      47.5798  0.000105714  7.31565e-07       8.3361 
         750      47.7914  0.000105759  6.96411e-07       8.3361 
         750      48.0037  0.000105816  6.63898e-07       8.3361 