Variables = x, y, u, v, p

Zone, I=800, F=POINT
          -5            0            0            0      49.4968 
          -5     0.000234  5.42792e-06 -5.17357e-10      49.4968 
          -5     0.000939  2.04873e-05 -2.03054e-09      49.4968 
          -5     0.002113  4.16037e-05 -4.42503e-09      49.4968 
          -5     0.003759  6.40148e-05 -7.60305e-09      49.4968 
          -5     0.005872  8.28985e-05 -1.15515e-08      49.4968 
          -5     0.008457  9.49232e-05 -1.64617e-08      49.4968 
          -5      0.01151  9.90028e-05 -2.27381e-08      49.4968 
          -5     0.015036  9.66366e-05 -3.10152e-08      49.4968 
          -5     0.019031  9.12681e-05 -4.20341e-08      49.4968 
          -5     0.023493  8.69329e-05 -5.65265e-08      49.4968 
          -5     0.028429   8.6527e-05  -7.5112e-08      49.4968 
          -5     0.033831  9.03948e-05 -9.81427e-08      49.4968 
          -5     0.039706  9.59651e-05 -1.25878e-07      49.4968 
          -5     0.046047  9.90765e-05 -1.58585e-07      49.4968 
          -5     0.052863  9.70429e-05 -1.97002e-07      49.4968 
          -5      0.06015  9.21514e-05 -2.42369e-07      49.4968 
          -5       0.0679  9.21367e-05 -2.95942e-07      49.4968 
          -5     0.076126  0.000100536 -3.56998e-07      49.4968 
          -5     0.084816  9.38466e-05 -4.18389e-07      49.4968 
          -5     0.093982  9.75845e-05 -4.96371e-07      49.4968 
          -5     0.103611  9.93944e-05 -5.88815e-07      49.4968 
          -5     0.113718  0.000100322 -6.85574e-07      49.4968 
          -5     0.124286  0.000101105 -7.82889e-07      49.4968 
          -5     0.135333  0.000102149  -8.8307e-07      49.4968 
          -5      0.14685  0.000103548 -9.91635e-07      49.4968 
          -5     0.158827  0.000105163  -1.1142e-06      49.4968 
          -5     0.171284  0.000106764 -1.25307e-06      49.4968 
          -5     0.184201  0.000108171 -1.40362e-06      49.4968 
          -5     0.197599  0.000109396 -1.55496e-06      49.4968 
          -5     0.211455  0.000110669 -1.69422e-06      49.4968 
          -5     0.225792   0.00011228 -1.82214e-06      49.4968 
          -5       0.2406  0.000114055 -1.98143e-06      49.4968 
          -5     0.255865  0.000115154 -2.22529e-06      49.4968 
          -5     0.271613  0.000116586 -2.42992e-06      49.4968 
          -5     0.287818  0.000117921 -2.61738e-06      49.4968 
          -5     0.304506  0.000119192 -2.79749e-06      49.4968 
          -5      0.32165  0.000120423 -2.98114e-06      49.4968 
          -5     0.339278  0.000121612 -3.16899e-06      49.4968 
          -5     0.357377  0.000122754 -3.36124e-06      49.4968 
          -5      0.37593  0.000123842 -3.55794e-06      49.4968 
          -5     0.394968  0.000124876  -3.7596e-06      49.4968 
          -5     0.414461  0.000125849 -3.96598e-06      49.4968 
          -5      0.43444  0.000126758  -4.1774e-06      49.4968 
          -5     0.454872    0.0001276 -4.39338e-06      49.4968 
          -5     0.475791  0.000128372 -4.61408e-06      49.4969 
          -5     0.497163   0.00012907 -4.83882e-06      49.4969 
          -5     0.519021  0.000129691 -5.06754e-06      49.4969 
          -5      0.54135  0.000130234 -5.29961e-06      49.4969 
          -5     0.564131  0.000130695 -5.53428e-06      49.4969 
          -5       0.5874  0.000131075 -5.77134e-06      49.4969 
          -5     0.611121  0.000131371 -6.00979e-06      49.4969 
          -5      0.63533  0.000131583  -6.2494e-06      49.4969 
          -5      0.65999  0.000131712 -6.48919e-06      49.4969 
          -5     0.685139  0.000131758 -6.72901e-06      49.4969 
          -5     0.710759  0.000131723 -6.96822e-06      49.4969 
          -5     0.736828  0.000131608 -7.20624e-06       49.497 
          -5     0.763387  0.000131417  -7.4432e-06       49.497 
          -5     0.790396  0.000131152 -7.67859e-06       49.497 
          -5     0.817896  0.000130818 -7.91275e-06       49.497 
          -5     0.845843  0.000130417 -8.14537e-06       49.497 
          -5     0.874283  0.000129955 -8.37691e-06       49.497 
          -5      0.90317  0.000129435 -8.60708e-06      49.4971 
          -5     0.932551   0.00012886  -8.8362e-06      49.4971 
          -5     0.962401  0.000128234  -9.0637e-06      49.4971 
          -5     0.992697  0.000127559 -9.28861e-06      49.4971 
          -5      1.02349  0.000126834 -9.50974e-06      49.4971 
          -5      1.05472  0.000126056 -9.72411e-06      49.4972 
          -5      1.08645  0.000125218   -9.928e-06      49.4972 
          -5      1.11863  0.000124311 -1.01151e-05      49.4972 
          -5       1.1513  0.000123335 -1.02882e-05      49.4972 
          -5      1.18444  0.000122365 -1.04832e-05      49.4972 
          -5      1.21802  0.000121337  -1.0658e-05      49.4973 
          -5      1.25211  0.000120245 -1.08175e-05      49.4973 
          -5      1.28663  0.000119095 -1.09652e-05      49.4973 
          -5      1.32165  0.000117891 -1.11037e-05      49.4974 
          -5      1.35712  0.000116646 -1.12343e-05      49.4974 
          -5      1.39308  0.000115369 -1.13582e-05      49.4974 
          -5      1.42951  0.000114075 -1.14751e-05      49.4975 
          -5      1.46638  0.000112781 -1.15844e-05      49.4975 
          -5      1.50375  0.000111498 -1.16855e-05      49.4975 
          -5      1.54156  0.000110242 -1.17769e-05      49.4976 
          -5      1.57987  0.000109023 -1.18575e-05      49.4976 
          -5      1.61863  0.000107849 -1.19261e-05      49.4976 
          -5      1.65788  0.000106724 -1.19816e-05      49.4977 
          -5      1.69757  0.000105651 -1.20236e-05      49.4977 
          -5      1.73776  0.000104625 -1.20518e-05      49.4978 
          -5      1.77842  0.000103639 -1.20667e-05      49.4978 
          -5      1.81952  0.000102656  -1.2093e-05      49.4978 
          -5      1.86113  0.000101677    -1.21e-05      49.4979 
          -5      1.90316  0.000100681 -1.20872e-05      49.4979 
          -5      1.94571  9.96412e-05 -1.20606e-05       49.498 
          -5      1.98869  9.85363e-05 -1.20303e-05       49.498 
          -5      2.03217  9.73497e-05  -1.2011e-05      49.4981 
          -5      2.07612  9.60819e-05 -1.20222e-05      49.4981 
          -5      2.12051  9.47718e-05 -1.20235e-05      49.4982 
          -5       2.1654  9.33973e-05 -1.20045e-05      49.4982 
          -5      2.21073  9.19372e-05 -1.20136e-05      49.4983 
          -5      2.25656  9.03998e-05 -1.20452e-05      49.4984 
          -5      2.30283  8.88066e-05 -1.20897e-05      49.4984 
          -5       2.3496  8.71835e-05 -1.21333e-05      49.4985 
          -5      2.39685  8.55556e-05 -1.21803e-05      49.4985 
          -5      2.44452  8.39715e-05 -1.22375e-05      49.4986 
          -5      2.49271    8.247e-05 -1.22797e-05      49.4986 
          -5      2.54132  8.10793e-05 -1.22928e-05      49.4987 
          -5      2.59044  7.98219e-05 -1.22626e-05      49.4988 
          -5         2.64  7.87234e-05 -1.21757e-05      49.4988 
          -5      2.69006  7.78034e-05 -1.20193e-05      49.4989 
          -5      2.74056  7.70817e-05 -1.17828e-05       49.499 
          -5      2.79156  7.65718e-05 -1.14569e-05       49.499 
          -5      2.84304   7.6285e-05 -1.10353e-05      49.4991 
          -5      2.89494  7.62264e-05 -1.05144e-05      49.4992 
          -5      2.94735  7.63955e-05 -9.89189e-06      49.4993 
          -5       3.0002  7.67854e-05 -9.16943e-06      49.4993 
          -5      3.05355  7.73832e-05 -8.34817e-06      49.4994 
          -5      3.10733  7.81673e-05 -7.43241e-06      49.4995 
          -5      3.16163  7.91106e-05 -6.42325e-06      49.4995 
          -5      3.21639   8.0177e-05 -5.32183e-06      49.4996 
          -5      3.27158  8.13219e-05 -4.12526e-06      49.4997 
          -5      3.32729  8.24966e-05 -2.82085e-06      49.4998 
          -5      3.38342  8.36212e-05 -1.51466e-06      49.4998 
          -5      3.44007  8.47559e-05 -2.72161e-07      49.4999 
          -5      3.49714  8.58407e-05  1.01975e-06         49.5 
          -5      3.55472  8.67639e-05  2.30399e-06      49.5001 
          -5      3.61273   8.7467e-05  3.54083e-06      49.5002 
          -5      3.67125  8.79428e-05  4.71129e-06      49.5002 
          -5      3.73025  8.82239e-05  5.80637e-06      49.5003 
          -5      3.78967  8.83772e-05  6.82704e-06      49.5004 
          -5      3.84961   8.8496e-05  7.78446e-06      49.5005 
          -5      3.90996  8.86921e-05  8.69357e-06      49.5006 
          -5      3.97084  8.86442e-05  9.56969e-06      49.5006 
          -5      4.03214  8.86143e-05  1.03757e-05      49.5007 
          -5      4.09395  8.85975e-05  1.11438e-05      49.5008 
          -5      4.15624  8.85859e-05  1.18913e-05      49.5009 
          -5      4.21895  8.85737e-05  1.26243e-05       49.501 
          -5      4.28217  8.85577e-05  1.33432e-05       49.501 
          -5      4.34582   8.8537e-05  1.40412e-05      49.5011 
          -5      4.40998  8.85125e-05  1.47114e-05      49.5012 
          -5      4.47457  8.84868e-05  1.53451e-05      49.5013 
          -5      4.53968  8.84634e-05  1.59372e-05      49.5013 
          -5      4.60525  8.84469e-05  1.64847e-05      49.5014 
          -5      4.67125  8.84417e-05  1.69888e-05      49.5015 
          -5      4.73777  8.84513e-05  1.74559e-05      49.5016 
          -5       4.8047  8.84783e-05  1.78945e-05      49.5016 
          -5      4.87216  8.85222e-05  1.83162e-05      49.5017 
          -5      4.94003  8.85795e-05  1.87302e-05      49.5018 
          -5      5.00843  8.86418e-05   1.9142e-05      49.5019 
          -5      5.07724  8.86944e-05  1.95456e-05      49.5019 
          -5      5.14658  8.87151e-05  1.99188e-05       49.502 
          -5      5.21639   8.8685e-05   2.0368e-05      49.5021 
          -5      5.28661  8.85306e-05  2.09357e-05      49.5021 
          -5      5.35736  8.82197e-05  2.10874e-05      49.5022 
          -5      5.42852  8.79893e-05  2.13925e-05      49.5023 
          -5      5.50021  8.77699e-05  2.16807e-05      49.5023 
          -5      5.57231  8.75577e-05   2.1976e-05      49.5024 
          -5      5.64493  8.73663e-05  2.22855e-05      49.5024 
          -5      5.71803  8.72047e-05   2.2607e-05      49.5025 
          -5      5.79154  8.70772e-05  2.29335e-05      49.5025 
          -5      5.86558  8.69841e-05  2.32561e-05      49.5026 
          -5      5.94003   8.6923e-05  2.35645e-05      49.5026 
          -5      6.01501  8.68893e-05  2.38514e-05      49.5027 
          -5       6.0904  8.68772e-05  2.41117e-05      49.5027 
          -5      6.16632  8.68797e-05  2.43458e-05      49.5028 
          -5      6.24271  8.68902e-05  2.45578e-05      49.5028 
          -5       6.3195  8.69022e-05  2.47567e-05      49.5029 
          -5      6.39683  8.69103e-05  2.49555e-05      49.5029 
          -5      6.47457  8.69103e-05  2.51682e-05      49.5029 
          -5      6.55284  8.68993e-05  2.54081e-05       49.503 
          -5      6.63152  8.68763e-05  2.56832e-05       49.503 
          -5      6.71073  8.68415e-05  2.59917e-05       49.503 
          -5      6.79034  8.67967e-05  2.63149e-05       49.503 
          -5      6.87049   8.6744e-05  2.66103e-05       49.503 
          -5      6.95111  8.66859e-05  2.68013e-05      49.5031 
          -5      7.03214  8.66081e-05  2.67955e-05      49.5031 
          -5       7.1137  8.62352e-05  2.72997e-05      49.5031 
          -5      7.19566  8.60405e-05  2.76763e-05      49.5031 
          -5      7.27816  8.59453e-05  2.79656e-05      49.5031 
          -5      7.36106  8.58943e-05  2.81965e-05      49.5031 
          -5      7.44451  8.58513e-05  2.83902e-05      49.5031 
          -5      7.52842  8.57971e-05  2.85603e-05      49.5031 
          -5      7.61273  8.57252e-05  2.87144e-05       49.503 
          -5      7.69758  8.56387e-05  2.88563e-05       49.503 
          -5      7.78283  8.55479e-05  2.89865e-05       49.503 
          -5      7.86862  8.54659e-05  2.91046e-05       49.503 
          -5      7.95481   8.5407e-05  2.92099e-05      49.5029 
          -5      8.04155  8.53827e-05  2.93042e-05      49.5029 
          -5      8.12868     8.54e-05  2.93922e-05      49.5029 
          -5      8.21635  8.54589e-05   2.9484e-05      49.5028 
          -5      8.30449  8.55498e-05  2.95959e-05      49.5028 
          -5      8.39303  8.56527e-05  2.97525e-05      49.5027 
          -5      8.48211  8.57351e-05  2.99881e-05      49.5027 
          -5      8.57159   8.5833e-05  2.99995e-05      49.5026 
          -5      8.66161  8.59434e-05   2.9735e-05      49.5025 
          -5      8.75203  8.60166e-05  2.95027e-05      49.5025 
          -5      8.84299  8.60718e-05   2.9368e-05      49.5024 
          -5      8.93443  8.61251e-05  2.94559e-05      49.5023 
          -5      9.02626  8.61844e-05  2.99667e-05      49.5022 
          -5      9.11863  8.64063e-05  2.97331e-05      49.5021 
          -5      9.21139  8.64902e-05  2.92922e-05       49.502 
          -5      9.30471  8.63985e-05  2.91653e-05      49.5019 
          -5      9.39841  8.62144e-05  2.91713e-05      49.5018 
          -5      9.49267  8.59946e-05  2.91789e-05      49.5017 
          -5      9.58739  8.57718e-05  2.91011e-05      49.5016 
          -5      9.68251  8.55795e-05  2.89132e-05      49.5015 
          -5      9.77817  8.54798e-05  2.87335e-05      49.5013 
          -5      9.87422  8.53255e-05  2.84644e-05      49.5012 
          -5      9.97083  8.51406e-05  2.81476e-05       49.501 
          -5      10.0678  8.49462e-05  2.78222e-05      49.5009 
          -5      10.1654  8.47587e-05  2.75186e-05      49.5007 
          -5      10.2633  8.45908e-05  2.72573e-05      49.5006 
          -5      10.3618    8.445e-05  2.70455e-05      49.5004 
          -5      10.4607  8.43396e-05  2.68773e-05      49.5002 
          -5      10.5601  8.42592e-05  2.67346e-05      49.5001 
          -5        10.66  8.42054e-05  2.65891e-05      49.4999 
          -5      10.7603  8.41732e-05  2.64073e-05      49.4997 
          -5      10.8611   8.4158e-05  2.61562e-05      49.4995 
          -5      10.9623  8.41576e-05  2.58128e-05      49.4993 
          -5      11.0641  8.41753e-05  2.53729e-05      49.4991 
          -5      11.1663  8.42231e-05  2.48666e-05      49.4989 
          -5       11.269  8.41618e-05  2.44642e-05      49.4986 
          -5      11.3721  8.38454e-05  2.42951e-05      49.4984 
          -5      11.4757  8.36466e-05  2.41086e-05      49.4982 
          -5      11.5798  8.35426e-05  2.38887e-05      49.4979 
          -5      11.6844  8.35116e-05  2.36291e-05      49.4977 
          -5      11.7894  8.35324e-05  2.33304e-05      49.4974 
          -5       11.895  8.35846e-05      2.3e-05      49.4972 
          -5      12.0009  8.36489e-05  2.26497e-05      49.4969 
          -5      12.1073  8.37074e-05  2.22937e-05      49.4966 
          -5      12.2142  8.37435e-05  2.19484e-05      49.4963 
          -5      12.3216  8.37422e-05  2.16294e-05       49.496 
          -5      12.4294  8.36905e-05   2.1352e-05      49.4957 
          -5      12.5378  8.35769e-05   2.1128e-05      49.4954 
          -5      12.6465  8.33921e-05  2.09667e-05      49.4951 
          -5      12.7558  8.31284e-05  2.08717e-05      49.4948 
          -5      12.8656  8.33223e-05  2.06697e-05      49.4944 
          -5      12.9757  8.35557e-05  2.04768e-05      49.4941 
          -5      13.0864  8.37423e-05  2.02991e-05      49.4938 
          -5      13.1975  8.38556e-05  2.01296e-05      49.4934 
          -5      13.3092  8.38796e-05   1.9962e-05       49.493 
          -5      13.4212  8.38087e-05  1.97905e-05      49.4927 
          -5      13.5338  8.36488e-05  1.96068e-05      49.4923 
          -5      13.6468  8.34167e-05  1.94002e-05      49.4919 
          -5      13.7603  8.31399e-05  1.91547e-05      49.4915 
          -5      13.8743  8.28546e-05  1.88478e-05      49.4911 
          -5      13.9886  8.26049e-05  1.84493e-05      49.4907 
          -5      14.1036  8.24385e-05  1.79187e-05      49.4903 
          -5      14.2189  8.27782e-05  1.75847e-05      49.4899 
          -5      14.3348   8.3338e-05  1.76426e-05      49.4894 
          -5       14.451  8.35182e-05  1.76027e-05       49.489 
          -5      14.5678  8.34722e-05  1.75092e-05      49.4885 
          -5      14.6851  8.33154e-05  1.73955e-05      49.4881 
          -5      14.8028  8.31308e-05  1.72856e-05      49.4876 
          -5       14.921   8.2973e-05  1.71946e-05      49.4871 
          -5      15.0396   8.2873e-05  1.71303e-05      49.4867 
          -5      15.1588  8.28426e-05  1.70947e-05      49.4862 
          -5      15.2783  8.28782e-05  1.70844e-05      49.4857 
          -5      15.3984  8.29651e-05  1.70923e-05      49.4852 
          -5       15.519   8.3081e-05  1.71087e-05      49.4846 
          -5        15.64  8.31995e-05  1.71218e-05      49.4841 
          -5      15.7615  8.32933e-05  1.71196e-05      49.4836 
          -5      15.8834  8.33365e-05  1.70901e-05       49.483 
          -5      16.0058  8.33077e-05  1.70226e-05      49.4825 
          -5      16.1286  8.31838e-05  1.69376e-05      49.4819 
          -5       16.252  8.30734e-05  1.68412e-05      49.4813 
          -5      16.3759  8.30071e-05  1.67421e-05      49.4808 
          -5      16.5002  8.29795e-05  1.66605e-05      49.4802 
          -5       16.625  8.29801e-05    1.661e-05      49.4796 
          -5      16.7501  8.29957e-05  1.65973e-05       49.479 
          -5      16.8759   8.3012e-05  1.66206e-05      49.4784 
          -5       17.002  8.30172e-05  1.66689e-05      49.4777 
          -5      17.1287  8.30052e-05  1.67215e-05      49.4771 
          -5      17.2557   8.2981e-05  1.67477e-05      49.4764 
          -5      17.3834  8.29653e-05  1.67061e-05      49.4758 
          -5      17.5115   8.3002e-05  1.65454e-05      49.4751 
          -5      17.6399  8.31646e-05  1.62045e-05      49.4745 
          -5       17.769  8.35659e-05  1.56124e-05      49.4738 
          -5      17.8984  8.34668e-05  1.57725e-05      49.4731 
          -5      18.0284  8.33262e-05  1.58576e-05      49.4724 
          -5      18.1587  8.32098e-05  1.58306e-05      49.4717 
          -5      18.2896  8.31122e-05  1.57494e-05      49.4709 
          -5       18.421  8.30337e-05  1.56552e-05      49.4702 
          -5      18.5528  8.29776e-05  1.55734e-05      49.4695 
          -5      18.6851  8.29487e-05  1.55153e-05      49.4687 
          -5      18.8178  8.29512e-05  1.54798e-05       49.468 
          -5      18.9511  8.29868e-05  1.54554e-05      49.4672 
          -5      19.0847  8.30528e-05  1.54217e-05      49.4664 
          -5      19.2189  8.30113e-05  1.54999e-05      49.4656 
          -5      19.3535  8.28537e-05  1.57793e-05      49.4648 
          -5      19.4886  8.28179e-05  1.59975e-05       49.464 
          -5      19.6242  8.28638e-05   1.6161e-05      49.4632 
          -5      19.7602  8.29565e-05  1.62794e-05      49.4624 
          -5      19.8968  8.30668e-05  1.63641e-05      49.4615 
          -5      20.0337   8.3172e-05  1.64267e-05      49.4607 
          -5      20.1712  8.32557e-05  1.64785e-05      49.4598 
          -5      20.3091  8.33082e-05  1.65292e-05      49.4589 
          -5      20.4475  8.33254e-05  1.65864e-05      49.4581 
          -5      20.5864  8.33086e-05  1.66548e-05      49.4572 
          -5      20.7257  8.32631e-05  1.67359e-05      49.4563 
          -5      20.8655  8.31964e-05  1.68276e-05      49.4554 
          -5      21.0058  8.31166e-05  1.69241e-05      49.4544 
          -5      21.1465  8.30295e-05  1.70164e-05      49.4535 
          -5      21.2877  8.29362e-05  1.70917e-05      49.4526 
          -5      21.4294   8.2829e-05  1.71351e-05      49.4516 
          -5      21.5716  8.26881e-05  1.71295e-05      49.4506 
          -5      21.7142  8.28145e-05  1.70378e-05      49.4497 
          -5      21.8573  8.29707e-05  1.69313e-05      49.4487 
          -5      22.0008  8.30684e-05  1.68479e-05      49.4477 
          -5      22.1449  8.31068e-05  1.68017e-05      49.4467 
          -5      22.2893  8.30921e-05  1.67957e-05      49.4457 
          -5      22.4344  8.30352e-05  1.68245e-05      49.4446 
          -5      22.5797  8.29504e-05   1.6877e-05      49.4436 
          -5      22.7257  8.28534e-05  1.69382e-05      49.4426 
          -5      22.8721  8.27608e-05   1.6991e-05      49.4415 
          -5      23.0189  8.26886e-05  1.70174e-05      49.4404 
          -5      23.1663  8.26509e-05  1.69994e-05      49.4393 
          -5       23.314  8.26602e-05  1.69189e-05      49.4382 
          -5      23.4623  8.27035e-05  1.68732e-05      49.4371 
          -5       23.611  8.26094e-05  1.72488e-05       49.436 
          -5      23.7602  8.24414e-05  1.75338e-05      49.4349 
          -5        23.91  8.22365e-05  1.77216e-05      49.4338 
          -5        24.06  8.20283e-05  1.78172e-05      49.4326 
          -5      24.2107  8.18446e-05  1.78353e-05      49.4315 
          -5      24.3617  8.17082e-05  1.77975e-05      49.4303 
          -5      24.5133  8.16343e-05  1.77301e-05      49.4291 
          -5      24.6653  8.16314e-05  1.76615e-05      49.4279 
          -5      24.8178  8.16994e-05  1.76193e-05      49.4267 
          -5      24.9708  8.18301e-05  1.76273e-05      49.4255 
          -5      25.1242   8.2006e-05  1.77019e-05      49.4243 
          -5      25.2781   8.2201e-05  1.78489e-05       49.423 
          -5      25.4324  8.23792e-05  1.80586e-05      49.4218 
          -5      25.5873  8.24963e-05  1.83033e-05      49.4205 
          -5      25.7426  8.24989e-05  1.85307e-05      49.4192 
          -5      25.8984  8.23253e-05  1.86613e-05       49.418 
          -5      26.0546  8.19065e-05  1.85815e-05      49.4167 
          -5      26.2114  8.19279e-05  1.86954e-05      49.4154 
          -5      26.3686  8.21757e-05  1.89512e-05       49.414 
          -5      26.5262  8.22404e-05  1.90768e-05      49.4127 
          -5      26.6844  8.21879e-05  1.91112e-05      49.4114 
          -5      26.8429  8.20698e-05  1.90882e-05        49.41 
          -5       27.002  8.19248e-05  1.90359e-05      49.4086 
          -5      27.1615  8.17808e-05   1.8977e-05      49.4073 
          -5      27.3216  8.16555e-05  1.89284e-05      49.4059 
          -5      27.4821  8.15589e-05  1.89019e-05      49.4045 
          -5       27.643  8.14939e-05  1.89037e-05      49.4031 
          -5      27.8044  8.14582e-05  1.89351e-05      49.4016 
          -5      27.9663  8.14457e-05  1.89932e-05      49.4002 
          -5      28.1287  8.14474e-05  1.90708e-05      49.3988 
          -5      28.2914  8.14535e-05   1.9158e-05      49.3973 
          -5      28.4548  8.14538e-05  1.92424e-05      49.3958 
          -5      28.6185  8.14395e-05  1.93103e-05      49.3944 
          -5      28.7828  8.14043e-05  1.93483e-05      49.3929 
          -5      28.9475  8.13452e-05  1.93442e-05      49.3914 
          -5      29.1126  8.12638e-05  1.92887e-05      49.3898 
          -5      29.2784  8.11669e-05  1.91772e-05      49.3883 
          -5      29.4444  8.10679e-05  1.90118e-05      49.3868 
          -5       29.611  8.09871e-05   1.8803e-05      49.3852 
          -5       29.778  8.09525e-05  1.85731e-05      49.3836 
          -5      29.9456  8.10006e-05  1.83574e-05      49.3821 
          -5      30.1137  8.11764e-05  1.82081e-05      49.3805 
          -5      30.2821  8.15339e-05  1.81969e-05      49.3789 
          -5      30.4511  8.20849e-05  1.84012e-05      49.3773 
          -5      30.6204  8.16923e-05  1.83948e-05      49.3756 
          -5      30.7903  8.13513e-05  1.84119e-05       49.374 
          -5      30.9606  8.10631e-05  1.84543e-05      49.3724 
          -5      31.1315  8.08255e-05  1.85245e-05      49.3707 
          -5      31.3028  8.06346e-05  1.86253e-05       49.369 
          -5      31.4745  8.04847e-05  1.87586e-05      49.3673 
          -5      31.6468  8.03686e-05   1.8926e-05      49.3656 
          -5      31.8194  8.02786e-05  1.91266e-05      49.3639 
          -5      31.9926  8.02065e-05  1.93577e-05      49.3622 
          -5      32.1662  8.01449e-05  1.96128e-05      49.3605 
          -5      32.3404  8.00872e-05  1.98814e-05      49.3587 
          -5      32.5149   8.0029e-05  2.01474e-05       49.357 
          -5        32.69  7.99683e-05  2.03891e-05      49.3552 
          -5      32.8655  8.00368e-05  2.05384e-05      49.3534 
          -5      33.0414   8.0181e-05  2.05944e-05      49.3516 
          -5       33.218  8.02894e-05  2.06005e-05      49.3498 
          -5      33.3948   8.0365e-05  2.05669e-05       49.348 
          -5      33.5723  8.04109e-05  2.05025e-05      49.3462 
          -5        33.75    8.043e-05  2.04152e-05      49.3443 
          -5      33.9284  8.04252e-05  2.03114e-05      49.3425 
          -5      34.1073  8.03991e-05  2.01966e-05      49.3406 
          -5      34.2865  8.03545e-05  2.00757e-05      49.3387 
          -5      34.4663  8.02938e-05  1.99523e-05      49.3368 
          -5      34.6465  8.02195e-05  1.98298e-05      49.3349 
          -5      34.8272  8.01339e-05  1.97105e-05       49.333 
          -5      35.0083  8.00392e-05  1.95965e-05      49.3311 
          -5        35.19  7.99373e-05  1.94894e-05      49.3292 
          -5      35.3721  7.98302e-05  1.93904e-05      49.3272 
          -5      35.5546  7.97197e-05  1.93006e-05      49.3252 
          -5      35.7377  7.96072e-05  1.92204e-05      49.3233 
          -5      35.9211  7.94941e-05  1.91506e-05      49.3213 
          -5      36.1052  7.93814e-05  1.90916e-05      49.3193 
          -5      36.2895  7.92701e-05  1.90436e-05      49.3173 
          -5      36.4745  7.91607e-05  1.90069e-05      49.3152 
          -5      36.6598  7.90536e-05  1.89819e-05      49.3132 
          -5      36.8457  7.89485e-05  1.89687e-05      49.3111 
          -5      37.0321  7.88453e-05  1.89675e-05      49.3091 
          -5      37.2188  7.87432e-05  1.89785e-05       49.307 
          -5      37.4062  7.86409e-05  1.90016e-05      49.3049 
          -5      37.5938  7.85368e-05  1.90369e-05      49.3028 
          -5      37.7821  7.84286e-05  1.90841e-05      49.3007 
          -5      37.9707  7.83137e-05  1.91427e-05      49.2986 
          -5      38.1599  7.83888e-05  1.91325e-05      49.2965 
          -5      38.3496  7.83808e-05  1.91034e-05      49.2943 
          -5      38.5396  7.83065e-05  1.90637e-05      49.2922 
          -5      38.7302  7.81823e-05   1.9023e-05        49.29 
          -5      38.9211  7.80246e-05  1.89925e-05      49.2878 
          -5      39.1127  7.78486e-05  1.89837e-05      49.2856 
          -5      39.3046    7.767e-05  1.90079e-05      49.2834 
          -5      39.4971  7.75038e-05  1.90757e-05      49.2812 
          -5      39.6899  7.73655e-05   1.9195e-05      49.2789 
          -5      39.8833  7.72703e-05  1.93716e-05      49.2767 
          -5      40.0772  7.72346e-05  1.96064e-05      49.2745 
          -5      40.2714  7.72753e-05  1.98949e-05      49.2722 
          -5      40.4663   7.7411e-05  2.02267e-05      49.2699 
          -5      40.6615  7.76614e-05  2.05822e-05      49.2676 
          -5      40.8573  7.80493e-05  2.09329e-05      49.2653 
          -5      41.0534  7.78528e-05  2.05849e-05       49.263 
          -5      41.2501  7.75684e-05  2.01426e-05      49.2607 
          -5      41.4473  7.74108e-05  1.98261e-05      49.2583 
          -5      41.6448  7.73564e-05  1.96337e-05       49.256 
          -5      41.8429  7.73784e-05  1.95753e-05      49.2536 
          -5      42.0414  7.74472e-05  1.96737e-05      49.2513 
          -5      42.2405  7.75315e-05  1.99652e-05      49.2489 
          -5      42.4399  7.75086e-05    2.031e-05      49.2465 
          -5      42.6399  7.71721e-05  2.00588e-05      49.2441 
          -5      42.8404   7.6894e-05  1.98227e-05      49.2416 
          -5      43.0412   7.6666e-05   1.9611e-05      49.2392 
          -5      43.2426  7.64803e-05  1.94296e-05      49.2368 
          -5      43.4444    7.633e-05  1.92827e-05      49.2343 
          -5      43.6467  7.62085e-05  1.91715e-05      49.2319 
          -5      43.8494  7.61101e-05  1.90958e-05      49.2294 
          -5      44.0527  7.60294e-05  1.90537e-05      49.2269 
          -5      44.2563  7.59618e-05   1.9042e-05      49.2244 
          -5      44.4606  7.59032e-05  1.90568e-05      49.2219 
          -5      44.6653  7.58501e-05  1.90933e-05      49.2194 
          -5      44.8704  7.57995e-05  1.91463e-05      49.2168 
          -5       45.076  7.57488e-05  1.92106e-05      49.2143 
          -5       45.282  7.56963e-05  1.92811e-05      49.2117 
          -5      45.4886  7.56404e-05  1.93527e-05      49.2092 
          -5      45.6955    7.558e-05   1.9421e-05      49.2066 
          -5       45.903  7.55146e-05   1.9482e-05       49.204 
          -5      46.1111   7.5444e-05  1.95326e-05      49.2014 
          -5      46.3194  7.53685e-05  1.95702e-05      49.1988 
          -5      46.5283  7.52883e-05  1.95936e-05      49.1962 
          -5      46.7376  7.52044e-05  1.96021e-05      49.1935 
          -5      46.9475  7.51178e-05  1.95959e-05      49.1909 
          -5      47.1577  7.50297e-05  1.95765e-05      49.1882 
          -5      47.3685  7.49414e-05  1.95458e-05      49.1856 
          -5      47.5798  7.48545e-05  1.95068e-05      49.1829 
          -5      47.7914  7.47703e-05  1.94629e-05      49.1802 
          -5      48.0037  7.46904e-05   1.9418e-05      49.1775 