Variables = x, y, u, v, p

Zone, I=800, F=POINT
         -25            0 -1.24098e-19 -8.24403e-24     -50.1172 
         -25     0.000234 -6.14854e-06 -4.16195e-10     -50.1172 
         -25     0.000939 -2.31717e-05 -1.66151e-09     -50.1172 
         -25     0.002113 -4.69241e-05 -3.71639e-09     -50.1172 
         -25     0.003759 -7.18831e-05 -6.58961e-09     -50.1172 
         -25     0.005872 -9.24708e-05 -1.03326e-08     -50.1172 
         -25     0.008457 -0.000104849 -1.51081e-08     -50.1172 
         -25      0.01151 -0.000107818 -2.11822e-08     -50.1172 
         -25     0.015036 -0.000103206 -2.89648e-08     -50.1172 
         -25     0.019031  -9.5145e-05  -3.8953e-08     -50.1172 
         -25     0.023493 -8.84842e-05 -5.17082e-08     -50.1172 
         -25     0.028429 -8.67595e-05 -6.78251e-08     -50.1172 
         -25     0.033831 -9.05168e-05 -8.78035e-08     -50.1172 
         -25     0.039706 -9.68163e-05 -1.12115e-07     -50.1172 
         -25     0.046047 -0.000100701 -1.41108e-07     -50.1172 
         -25     0.052863 -9.87074e-05 -1.75187e-07     -50.1172 
         -25      0.06015 -9.29788e-05 -2.14746e-07     -50.1172 
         -25       0.0679 -9.20989e-05 -2.60195e-07     -50.1172 
         -25     0.076126 -0.000100607 -3.11843e-07     -50.1172 
         -25     0.084816 -9.30212e-05 -3.69119e-07     -50.1171 
         -25     0.093982 -9.54759e-05 -4.33309e-07     -50.1171 
         -25     0.103611 -9.58682e-05 -5.03852e-07     -50.1171 
         -25     0.113718 -9.52291e-05 -5.80974e-07     -50.1171 
         -25     0.124286 -9.42989e-05 -6.64594e-07     -50.1171 
         -25     0.135333 -9.34924e-05 -7.54851e-07     -50.1171 
         -25      0.14685 -9.29256e-05 -8.51632e-07     -50.1171 
         -25     0.158827 -9.24916e-05 -9.54793e-07     -50.1171 
         -25     0.171284 -9.19865e-05 -1.06446e-06     -50.1171 
         -25     0.184201 -9.12602e-05 -1.18043e-06     -50.1171 
         -25     0.197599  -9.0338e-05 -1.30296e-06     -50.1171 
         -25     0.211455 -8.94568e-05 -1.43193e-06     -50.1171 
         -25     0.225792 -8.88927e-05 -1.56771e-06     -50.1171 
         -25       0.2406 -8.84563e-05 -1.71033e-06     -50.1171 
         -25     0.255865  -8.7404e-05 -1.86047e-06     -50.1171 
         -25     0.271613 -8.68074e-05  -2.0184e-06     -50.1171 
         -25     0.287818 -8.61781e-05 -2.18346e-06     -50.1171 
         -25     0.304506 -8.55451e-05 -2.35683e-06     -50.1171 
         -25      0.32165 -8.49335e-05 -2.53863e-06     -50.1171 
         -25     0.339278 -8.43609e-05 -2.72911e-06     -50.1171 
         -25     0.357377 -8.38408e-05 -2.92772e-06     -50.1171 
         -25      0.37593 -8.33824e-05 -3.13357e-06     -50.1171 
         -25     0.394968 -8.29903e-05 -3.34623e-06     -50.1171 
         -25     0.414461 -8.26682e-05 -3.56463e-06     -50.1171 
         -25      0.43444 -8.24186e-05 -3.78865e-06     -50.1171 
         -25     0.454872 -8.22457e-05 -4.01786e-06     -50.1171 
         -25     0.475791 -8.21553e-05 -4.25315e-06     -50.1171 
         -25     0.497163 -8.21565e-05 -4.49524e-06     -50.1171 
         -25     0.519021 -8.22602e-05 -4.74623e-06     -50.1171 
         -25      0.54135 -8.24778e-05 -5.00803e-06     -50.1171 
         -25     0.564131 -8.28155e-05 -5.28246e-06      -50.117 
         -25       0.5874 -8.32689e-05 -5.57126e-06      -50.117 
         -25     0.611121 -8.38108e-05 -5.87197e-06      -50.117 
         -25      0.63533 -8.44743e-05 -6.17689e-06      -50.117 
         -25      0.65999 -8.52617e-05  -6.5025e-06      -50.117 
         -25     0.685139 -8.61585e-05 -6.84489e-06      -50.117 
         -25     0.710759 -8.71469e-05 -7.19998e-06      -50.117 
         -25     0.736828 -8.82075e-05 -7.56423e-06      -50.117 
         -25     0.763387  -8.9323e-05 -7.93558e-06      -50.117 
         -25     0.790396 -9.04718e-05 -8.31139e-06      -50.117 
         -25     0.817896 -9.16359e-05 -8.69065e-06     -50.1169 
         -25     0.845843 -9.27938e-05 -9.07162e-06     -50.1169 
         -25     0.874283 -9.39285e-05 -9.45412e-06     -50.1169 
         -25      0.90317 -9.50207e-05 -9.83697e-06     -50.1169 
         -25     0.932551 -9.60561e-05 -1.02204e-05     -50.1169 
         -25     0.962401 -9.70198e-05 -1.06036e-05     -50.1169 
         -25     0.992697 -9.78999e-05 -1.09859e-05     -50.1168 
         -25      1.02349 -9.86894e-05  -1.1367e-05     -50.1168 
         -25      1.05472 -9.93818e-05 -1.17455e-05     -50.1168 
         -25      1.08645 -9.99766e-05 -1.21206e-05     -50.1168 
         -25      1.11863 -0.000100475 -1.24901e-05     -50.1168 
         -25       1.1513 -0.000100882 -1.28524e-05     -50.1167 
         -25      1.18444 -0.000101206 -1.32053e-05     -50.1167 
         -25      1.21802 -0.000101459 -1.35463e-05     -50.1167 
         -25      1.25211 -0.000101654 -1.38743e-05     -50.1167 
         -25      1.28663 -0.000101803 -1.41879e-05     -50.1166 
         -25      1.32165 -0.000101921 -1.44884e-05     -50.1166 
         -25      1.35712 -0.000102017 -1.47784e-05     -50.1166 
         -25      1.39308 -0.000102096 -1.50652e-05     -50.1165 
         -25      1.42951 -0.000102152 -1.53601e-05     -50.1165 
         -25      1.46638 -0.000102169 -1.56813e-05     -50.1165 
         -25      1.50375 -0.000102113 -1.60565e-05     -50.1164 
         -25      1.54156  -0.00010261 -1.63878e-05     -50.1164 
         -25      1.57987 -0.000102891 -1.66231e-05     -50.1164 
         -25      1.61863 -0.000102998 -1.67921e-05     -50.1163 
         -25      1.65788 -0.000103023 -1.69188e-05     -50.1163 
         -25      1.69757 -0.000103044 -1.70232e-05     -50.1162 
         -25      1.73776 -0.000103126 -1.71217e-05     -50.1162 
         -25      1.77842 -0.000103321 -1.72271e-05     -50.1162 
         -25      1.81952 -0.000103666 -1.73482e-05     -50.1161 
         -25      1.86113 -0.000104189 -1.74905e-05     -50.1161 
         -25      1.90316 -0.000104902 -1.76556e-05      -50.116 
         -25      1.94571 -0.000105808 -1.78424e-05      -50.116 
         -25      1.98869 -0.000106897 -1.80461e-05     -50.1159 
         -25      2.03217  -0.00010815 -1.82596e-05     -50.1158 
         -25      2.07612 -0.000109541 -1.84729e-05     -50.1158 
         -25      2.12051  -0.00011103 -1.86738e-05     -50.1157 
         -25       2.1654 -0.000112579 -1.88489e-05     -50.1157 
         -25      2.21073 -0.000114138 -1.89828e-05     -50.1156 
         -25      2.25656 -0.000115658 -1.90597e-05     -50.1155 
         -25      2.30283 -0.000117087 -1.90632e-05     -50.1155 
         -25       2.3496 -0.000118374  -1.8977e-05     -50.1154 
         -25      2.39685 -0.000119467 -1.87855e-05     -50.1153 
         -25      2.44452  -0.00012032 -1.84744e-05     -50.1153 
         -25      2.49271 -0.000120892 -1.80307e-05     -50.1152 
         -25      2.54132  -0.00012115 -1.74445e-05     -50.1151 
         -25      2.59044 -0.000121067 -1.67071e-05      -50.115 
         -25         2.64 -0.000120631  -1.5815e-05      -50.115 
         -25      2.69006 -0.000119835  -1.4766e-05     -50.1149 
         -25      2.74056 -0.000118691 -1.35645e-05     -50.1148 
         -25      2.79156 -0.000117219 -1.22158e-05     -50.1147 
         -25      2.84304 -0.000115455 -1.07324e-05     -50.1146 
         -25      2.89494 -0.000113452 -9.13131e-06     -50.1145 
         -25      2.94735 -0.000111267 -7.43032e-06     -50.1144 
         -25       3.0002 -0.000108979 -5.65632e-06     -50.1143 
         -25      3.05355 -0.000106666 -3.83429e-06     -50.1142 
         -25      3.10733 -0.000104422 -1.99769e-06     -50.1141 
         -25      3.16163 -0.000102335  -1.7617e-07      -50.114 
         -25      3.21639 -0.000100498  1.59555e-06     -50.1139 
         -25      3.27158  -9.8995e-05   3.2838e-06     -50.1138 
         -25      3.32729  -9.7889e-05  4.86176e-06     -50.1137 
         -25      3.38342  -9.7224e-05  6.30258e-06     -50.1135 
         -25      3.44007 -9.70059e-05   7.5921e-06     -50.1134 
         -25      3.49714 -9.71942e-05  8.72311e-06     -50.1133 
         -25      3.55472 -9.76864e-05  9.70725e-06     -50.1132 
         -25      3.61273 -9.83003e-05  1.05723e-05      -50.113 
         -25      3.67125 -9.87575e-05  1.13737e-05     -50.1129 
         -25      3.73025 -9.86583e-05  1.21951e-05     -50.1128 
         -25      3.78967 -9.82265e-05  1.28074e-05     -50.1126 
         -25      3.84961 -9.80796e-05   1.3365e-05     -50.1125 
         -25      3.90996 -9.80572e-05  1.39687e-05     -50.1123 
         -25      3.97084 -9.81246e-05  1.45705e-05     -50.1122 
         -25      4.03214 -9.82518e-05  1.51341e-05      -50.112 
         -25      4.09395 -9.84137e-05  1.56372e-05     -50.1119 
         -25      4.15624 -9.85894e-05  1.60666e-05     -50.1117 
         -25      4.21895  -9.8762e-05   1.6418e-05     -50.1116 
         -25      4.28217 -9.89193e-05  1.66949e-05     -50.1114 
         -25      4.34582 -9.90522e-05  1.69051e-05     -50.1112 
         -25      4.40998 -9.91551e-05  1.70611e-05      -50.111 
         -25      4.47457 -9.92255e-05  1.71767e-05     -50.1109 
         -25      4.53968 -9.92634e-05  1.72669e-05     -50.1107 
         -25      4.60525 -9.92711e-05  1.73461e-05     -50.1105 
         -25      4.67125 -9.92525e-05  1.74268e-05     -50.1103 
         -25      4.73777 -9.92126e-05  1.75194e-05     -50.1101 
         -25       4.8047 -9.91572e-05  1.76309e-05     -50.1099 
         -25      4.87216 -9.90918e-05  1.77653e-05     -50.1097 
         -25      4.94003 -9.90217e-05  1.79235e-05     -50.1095 
         -25      5.00843 -9.89506e-05  1.81039e-05     -50.1093 
         -25      5.07724 -9.88805e-05  1.83035e-05      -50.109 
         -25      5.14658 -9.88103e-05  1.85201e-05     -50.1088 
         -25      5.21639 -9.87357e-05  1.87541e-05     -50.1086 
         -25      5.28661 -9.86482e-05  1.90115e-05     -50.1084 
         -25      5.35736 -9.85339e-05   1.9309e-05     -50.1081 
         -25      5.42852 -9.85775e-05  1.96863e-05     -50.1079 
         -25      5.50021 -9.88683e-05  2.00731e-05     -50.1076 
         -25      5.57231 -9.91705e-05  2.02858e-05     -50.1074 
         -25      5.64493 -9.92223e-05  2.05807e-05     -50.1071 
         -25      5.71803 -9.89653e-05  2.10499e-05     -50.1069 
         -25      5.79154 -9.87847e-05  2.11919e-05     -50.1066 
         -25      5.86558 -9.86673e-05  2.11239e-05     -50.1063 
         -25      5.94003 -9.85992e-05  2.09376e-05     -50.1061 
         -25      6.01501 -9.85657e-05  2.07013e-05     -50.1058 
         -25       6.0904 -9.85521e-05  2.04636e-05     -50.1055 
         -25      6.16632 -9.85444e-05  2.02548e-05     -50.1052 
         -25      6.24271 -9.85296e-05  2.00911e-05     -50.1049 
         -25       6.3195 -9.84732e-05  1.99038e-05     -50.1046 
         -25      6.39683 -9.83424e-05  1.96398e-05     -50.1043 
         -25      6.47457 -9.81661e-05  1.93738e-05      -50.104 
         -25      6.55284 -9.79516e-05  1.90876e-05     -50.1037 
         -25      6.63152 -9.77085e-05  1.87703e-05     -50.1034 
         -25      6.71073  -9.7446e-05  1.84171e-05      -50.103 
         -25      6.79034 -9.71743e-05  1.80319e-05     -50.1027 
         -25      6.87049  -9.6902e-05  1.76252e-05     -50.1023 
         -25      6.95111 -9.66371e-05  1.72155e-05      -50.102 
         -25      7.03214 -9.63868e-05  1.68263e-05     -50.1016 
         -25       7.1137 -9.61565e-05  1.64828e-05     -50.1013 
         -25      7.19566  -9.5952e-05  1.62099e-05     -50.1009 
         -25      7.27816 -9.57786e-05  1.60258e-05     -50.1005 
         -25      7.36106 -9.56435e-05  1.59369e-05     -50.1002 
         -25      7.44451 -9.55567e-05  1.59291e-05     -50.0998 
         -25      7.52842 -9.55333e-05  1.59597e-05     -50.0994 
         -25      7.61273  -9.5596e-05  1.59456e-05      -50.099 
         -25      7.69758 -9.57779e-05  1.57514e-05     -50.0986 
         -25      7.78283 -9.61264e-05  1.51746e-05     -50.0982 
         -25      7.86862 -9.64255e-05  1.48755e-05     -50.0977 
         -25      7.95481  -9.6442e-05  1.52209e-05     -50.0973 
         -25      8.04155 -9.65376e-05  1.49806e-05     -50.0969 
         -25      8.12868 -9.64922e-05  1.43648e-05     -50.0965 
         -25      8.21635 -9.59478e-05  1.43734e-05      -50.096 
         -25      8.30449 -9.54995e-05  1.43635e-05     -50.0956 
         -25      8.39303 -9.51417e-05  1.43292e-05     -50.0951 
         -25      8.48211 -9.48694e-05  1.42697e-05     -50.0946 
         -25      8.57159 -9.46794e-05  1.41891e-05     -50.0941 
         -25      8.66161 -9.45675e-05  1.40958e-05     -50.0937 
         -25      8.75203 -9.45289e-05  1.40021e-05     -50.0932 
         -25      8.84299 -9.47332e-05  1.37774e-05     -50.0927 
         -25      8.93443 -9.49573e-05  1.34817e-05     -50.0922 
         -25      9.02626 -9.50955e-05  1.31842e-05     -50.0917 
         -25      9.11863 -9.51556e-05  1.28872e-05     -50.0911 
         -25      9.21139 -9.51477e-05  1.25929e-05     -50.0906 
         -25      9.30471  -9.5083e-05   1.2302e-05     -50.0901 
         -25      9.39841 -9.49737e-05  1.20164e-05     -50.0895 
         -25      9.49267 -9.48319e-05  1.17372e-05      -50.089 
         -25      9.58739 -9.46693e-05  1.14664e-05     -50.0884 
         -25      9.68251 -9.44966e-05  1.12068e-05     -50.0878 
         -25      9.77817 -9.43228e-05   1.0961e-05     -50.0873 
         -25      9.87422 -9.41555e-05  1.07326e-05     -50.0867 
         -25      9.97083     -9.4e-05  1.05247e-05     -50.0861 
         -25      10.0678 -9.38604e-05  1.03408e-05     -50.0855 
         -25      10.1654  -9.3738e-05  1.01825e-05     -50.0849 
         -25      10.2633 -9.36336e-05  1.00506e-05     -50.0842 
         -25      10.3618  -9.3546e-05  9.94261e-06     -50.0836 
         -25      10.4607 -9.34744e-05  9.85249e-06      -50.083 
         -25      10.5601  -9.3418e-05  9.76895e-06     -50.0823 
         -25        10.66 -9.33777e-05  9.67358e-06     -50.0817 
         -25      10.7603 -9.33575e-05  9.53951e-06      -50.081 
         -25      10.8611  -9.3366e-05  9.32849e-06     -50.0803 
         -25      10.9623 -9.34183e-05  8.98939e-06     -50.0797 
         -25      11.0641 -9.35384e-05  8.45391e-06      -50.079 
         -25      11.1663 -9.35185e-05  8.11297e-06     -50.0783 
         -25       11.269 -9.32403e-05  8.31992e-06     -50.0775 
         -25      11.3721 -9.30896e-05  8.33078e-06     -50.0768 
         -25      11.4757 -9.30066e-05  8.21952e-06     -50.0761 
         -25      11.5798 -9.29458e-05  8.04536e-06     -50.0754 
         -25      11.6844 -9.28749e-05  7.85376e-06     -50.0746 
         -25      11.7894 -9.27742e-05  7.67607e-06     -50.0738 
         -25       11.895 -9.26352e-05  7.53111e-06     -50.0731 
         -25      12.0009 -9.24597e-05  7.42527e-06     -50.0723 
         -25      12.1073 -9.22587e-05  7.35306e-06     -50.0715 
         -25      12.2142 -9.20514e-05  7.29846e-06     -50.0707 
         -25      12.3216 -9.18637e-05  7.23515e-06     -50.0699 
         -25      12.4294 -9.17282e-05  7.12788e-06     -50.0691 
         -25      12.5378  -9.1682e-05  6.93281e-06     -50.0682 
         -25      12.6465 -9.17663e-05  6.59938e-06     -50.0674 
         -25      12.7558 -9.19043e-05  6.20212e-06     -50.0665 
         -25      12.8656 -9.18526e-05  5.94193e-06     -50.0657 
         -25      12.9757 -9.17739e-05  5.64367e-06     -50.0648 
         -25      13.0864 -9.16709e-05  5.34029e-06     -50.0639 
         -25      13.1975 -9.15508e-05  5.05662e-06      -50.063 
         -25      13.3092 -9.14246e-05  4.80766e-06     -50.0621 
         -25      13.4212 -9.13067e-05  4.60064e-06     -50.0612 
         -25      13.5338 -9.12121e-05  4.43414e-06     -50.0603 
         -25      13.6468 -9.11558e-05  4.30031e-06     -50.0593 
         -25      13.7603 -9.11495e-05  4.18564e-06     -50.0584 
         -25      13.8743 -9.11991e-05  4.07252e-06     -50.0574 
         -25      13.9886 -9.13006e-05  3.94208e-06     -50.0564 
         -25      14.1036  -9.1437e-05  3.77598e-06     -50.0555 
         -25      14.2189 -9.15722e-05  3.56044e-06     -50.0545 
         -25      14.3348 -9.16472e-05  3.28869e-06     -50.0534 
         -25       14.451 -9.15723e-05  2.96654e-06     -50.0524 
         -25      14.5678 -9.12215e-05  2.61538e-06     -50.0514 
         -25      14.6851 -9.13276e-05  2.44909e-06     -50.0503 
         -25      14.8028 -9.15662e-05    2.392e-06     -50.0493 
         -25       14.921 -9.16748e-05  2.35252e-06     -50.0482 
         -25      15.0396 -9.16835e-05  2.30817e-06     -50.0471 
         -25      15.1588 -9.16174e-05  2.24309e-06      -50.046 
         -25      15.2783 -9.14972e-05  2.14751e-06     -50.0449 
         -25      15.3984 -9.13391e-05  2.01629e-06     -50.0438 
         -25       15.519 -9.11567e-05  1.84858e-06     -50.0427 
         -25        15.64 -9.09605e-05  1.64683e-06     -50.0415 
         -25      15.7615 -9.07588e-05  1.41537e-06     -50.0404 
         -25      15.8834 -9.05584e-05  1.16083e-06     -50.0392 
         -25      16.0058 -9.03646e-05  8.90002e-07      -50.038 
         -25      16.1286 -9.01824e-05  6.10756e-07     -50.0368 
         -25       16.252 -9.00154e-05  3.29798e-07     -50.0356 
         -25      16.3759 -8.98678e-05  5.37084e-08     -50.0344 
         -25      16.5002 -8.97432e-05 -2.12153e-07     -50.0332 
         -25       16.625 -8.96452e-05 -4.64579e-07     -50.0319 
         -25      16.7501 -8.95776e-05  -7.0126e-07     -50.0307 
         -25      16.8759 -8.95439e-05 -9.22489e-07     -50.0294 
         -25       17.002 -8.95472e-05 -1.12962e-06     -50.0281 
         -25      17.1287 -8.95902e-05 -1.32632e-06     -50.0268 
         -25      17.2557  -8.9674e-05 -1.51696e-06     -50.0255 
         -25      17.3834 -8.97985e-05 -1.70739e-06     -50.0242 
         -25      17.5115 -8.99609e-05 -1.90327e-06     -50.0228 
         -25      17.6399 -9.01549e-05 -2.10972e-06     -50.0215 
         -25       17.769 -9.03701e-05 -2.33084e-06     -50.0201 
         -25      17.8984 -9.04632e-05 -2.77575e-06     -50.0187 
         -25      18.0284 -9.04738e-05 -3.24049e-06     -50.0173 
         -25      18.1587 -9.04976e-05 -3.46463e-06     -50.0159 
         -25      18.2896 -9.04759e-05 -3.46678e-06     -50.0145 
         -25       18.421 -9.03352e-05 -3.28859e-06     -50.0131 
         -25      18.5528 -8.99848e-05 -3.00113e-06     -50.0116 
         -25      18.6851  -8.9314e-05 -2.70941e-06     -50.0101 
         -25      18.8178 -8.81919e-05  -2.5603e-06     -50.0087 
         -25      18.9511 -8.77929e-05 -2.51139e-06     -50.0072 
         -25      19.0847 -8.78607e-05 -2.63737e-06     -50.0057 
         -25      19.2189  -8.8028e-05 -2.94235e-06     -50.0041 
         -25      19.3535 -8.83182e-05 -3.35904e-06     -50.0026 
         -25      19.4886 -8.87372e-05 -3.82082e-06      -50.001 
         -25      19.6242 -8.90853e-05 -4.16558e-06     -49.9995 
         -25      19.7602 -8.90865e-05 -4.39167e-06     -49.9979 
         -25      19.8968 -8.90354e-05 -4.69312e-06     -49.9963 
         -25      20.0337 -8.89501e-05 -5.03983e-06     -49.9947 
         -25      20.1712 -8.88452e-05 -5.40762e-06      -49.993 
         -25      20.3091  -8.8733e-05  -5.7759e-06     -49.9914 
         -25      20.4475 -8.86227e-05 -6.12965e-06     -49.9897 
         -25      20.5864 -8.85212e-05 -6.45707e-06      -49.988 
         -25      20.7257 -8.84334e-05 -6.75028e-06     -49.9864 
         -25      20.8655 -8.83616e-05  -7.0056e-06     -49.9847 
         -25      21.0058 -8.83067e-05 -7.22159e-06     -49.9829 
         -25      21.1465 -8.82679e-05 -7.40035e-06     -49.9812 
         -25      21.2877 -8.82429e-05 -7.54571e-06     -49.9794 
         -25      21.4294 -8.82285e-05 -7.66401e-06     -49.9777 
         -25      21.5716 -8.82209e-05 -7.76273e-06     -49.9759 
         -25      21.7142 -8.82156e-05 -7.85049e-06     -49.9741 
         -25      21.8573 -8.82079e-05 -7.93668e-06     -49.9723 
         -25      22.0008 -8.81936e-05 -8.03046e-06     -49.9704 
         -25      22.1449 -8.81687e-05 -8.14085e-06     -49.9686 
         -25      22.2893 -8.81303e-05 -8.27545e-06     -49.9667 
         -25      22.4344 -8.80768e-05 -8.44069e-06     -49.9648 
         -25      22.5797 -8.80081e-05 -8.64026e-06      -49.963 
         -25      22.7257 -8.79263e-05 -8.87556e-06      -49.961 
         -25      22.8721 -8.78362e-05 -9.14398e-06     -49.9591 
         -25      23.0189 -8.77455e-05 -9.43857e-06     -49.9572 
         -25      23.1663  -8.7665e-05 -9.74814e-06     -49.9552 
         -25       23.314 -8.76101e-05 -1.00548e-05     -49.9532 
         -25      23.4623 -8.76001e-05 -1.03352e-05     -49.9512 
         -25       23.611 -8.76596e-05 -1.05575e-05     -49.9492 
         -25      23.7602 -8.75542e-05 -1.04354e-05     -49.9472 
         -25        23.91 -8.71131e-05 -1.02047e-05     -49.9452 
         -25        24.06 -8.66506e-05 -1.01997e-05     -49.9431 
         -25      24.2107 -8.62117e-05 -1.03435e-05      -49.941 
         -25      24.3617 -8.58279e-05 -1.05753e-05     -49.9389 
         -25      24.5133 -8.55166e-05 -1.08495e-05     -49.9368 
         -25      24.6653 -8.52858e-05 -1.11321e-05     -49.9347 
         -25      24.8178 -8.51341e-05 -1.14009e-05     -49.9325 
         -25      24.9708 -8.50541e-05 -1.16418e-05     -49.9304 
         -25      25.1242 -8.50338e-05 -1.18484e-05     -49.9282 
         -25      25.2781 -8.50578e-05 -1.20204e-05      -49.926 
         -25      25.4324 -8.51097e-05 -1.21613e-05     -49.9238 
         -25      25.5873 -8.51728e-05 -1.22781e-05     -49.9216 
         -25      25.7426  -8.5232e-05 -1.23791e-05     -49.9193 
         -25      25.8984 -8.52741e-05 -1.24737e-05     -49.9171 
         -25      26.0546 -8.52893e-05 -1.25708e-05     -49.9148 
         -25      26.2114 -8.52715e-05 -1.26783e-05     -49.9125 
         -25      26.3686 -8.52187e-05 -1.28024e-05     -49.9102 
         -25      26.5262 -8.51333e-05  -1.2947e-05     -49.9078 
         -25      26.6844 -8.50216e-05 -1.31142e-05     -49.9055 
         -25      26.8429 -8.48942e-05 -1.33029e-05     -49.9031 
         -25       27.002 -8.47642e-05 -1.35104e-05     -49.9007 
         -25      27.1615 -8.46474e-05 -1.37317e-05     -49.8983 
         -25      27.3216 -8.45599e-05  -1.3961e-05     -49.8959 
         -25      27.4821  -8.4517e-05 -1.41918e-05     -49.8935 
         -25       27.643 -8.45312e-05 -1.44185e-05      -49.891 
         -25      27.8044 -8.46093e-05 -1.46383e-05     -49.8886 
         -25      27.9663 -8.47499e-05 -1.48521e-05     -49.8861 
         -25      28.1287   -8.494e-05 -1.50673e-05     -49.8836 
         -25      28.2914 -8.51511e-05 -1.52996e-05     -49.8811 
         -25      28.4548 -8.53356e-05 -1.55768e-05     -49.8785 
         -25      28.6185 -8.54208e-05 -1.59404e-05      -49.876 
         -25      28.7828 -8.52102e-05 -1.61836e-05     -49.8734 
         -25      28.9475  -8.4691e-05 -1.59126e-05     -49.8708 
         -25      29.1126 -8.41696e-05 -1.55276e-05     -49.8682 
         -25      29.2784 -8.31085e-05 -1.49903e-05     -49.8655 
         -25      29.4444 -8.27544e-05 -1.46851e-05     -49.8629 
         -25       29.611 -8.28596e-05 -1.46097e-05     -49.8602 
         -25       29.778 -8.28951e-05 -1.46769e-05     -49.8576 
         -25      29.9456 -8.28754e-05 -1.48195e-05     -49.8549 
         -25      30.1137  -8.2816e-05 -1.50107e-05     -49.8521 
         -25      30.2821 -8.27295e-05 -1.52264e-05     -49.8494 
         -25      30.4511 -8.26258e-05 -1.54464e-05     -49.8466 
         -25      30.6204 -8.25129e-05 -1.56537e-05     -49.8439 
         -25      30.7903 -8.23971e-05 -1.58358e-05     -49.8411 
         -25      30.9606 -8.22836e-05 -1.59837e-05     -49.8383 
         -25      31.1315 -8.21762e-05 -1.60929e-05     -49.8355 
         -25      31.3028 -8.20784e-05 -1.61625e-05     -49.8326 
         -25      31.4745 -8.19928e-05 -1.61957e-05     -49.8298 
         -25      31.6468 -8.19216e-05 -1.61989e-05     -49.8269 
         -25      31.8194 -8.18663e-05 -1.61815e-05      -49.824 
         -25      31.9926 -8.18279e-05 -1.61552e-05     -49.8211 
         -25      32.1662 -8.18064e-05 -1.61331e-05     -49.8181 
         -25      32.3404 -8.18005e-05 -1.61288e-05     -49.8152 
         -25      32.5149 -8.18077e-05 -1.61555e-05     -49.8122 
         -25        32.69 -8.18231e-05 -1.62245e-05     -49.8092 
         -25      32.8655  -8.1839e-05 -1.63437e-05     -49.8062 
         -25      33.0414 -8.18444e-05 -1.65161e-05     -49.8032 
         -25       33.218 -8.18239e-05 -1.67379e-05     -49.8002 
         -25      33.3948 -8.17566e-05 -1.69961e-05     -49.7971 
         -25      33.5723 -8.16149e-05 -1.72672e-05     -49.7941 
         -25        33.75 -8.13639e-05 -1.75131e-05      -49.791 
         -25      33.9284 -8.09584e-05   -1.768e-05     -49.7879 
         -25      34.1073  -8.0343e-05 -1.76942e-05     -49.7847 
         -25      34.2865 -7.94501e-05 -1.74595e-05     -49.7816 
         -25      34.4663 -7.88419e-05 -1.72315e-05     -49.7784 
         -25      34.6465 -8.01722e-05 -1.80843e-05     -49.7753 
         -25      34.8272 -8.07517e-05 -1.85627e-05     -49.7721 
         -25      35.0083 -8.08142e-05 -1.88081e-05     -49.7688 
         -25        35.19 -8.05509e-05 -1.89292e-05     -49.7656 
         -25      35.3721 -8.01134e-05 -1.90038e-05     -49.7624 
         -25      35.5546 -7.96179e-05 -1.90841e-05     -49.7591 
         -25      35.7377 -7.91471e-05 -1.92006e-05     -49.7558 
         -25      35.9211 -7.87569e-05 -1.93655e-05     -49.7525 
         -25      36.1052 -7.84774e-05 -1.95776e-05     -49.7492 
         -25      36.2895 -7.83186e-05 -1.98247e-05     -49.7459 
         -25      36.4745  -7.8273e-05 -2.00884e-05     -49.7425 
         -25      36.6598 -7.83195e-05 -2.03458e-05     -49.7391 
         -25      36.8457 -7.84274e-05  -2.0575e-05     -49.7357 
         -25      37.0321 -7.85592e-05 -2.07556e-05     -49.7323 
         -25      37.2188 -7.86743e-05 -2.08733e-05     -49.7289 
         -25      37.4062 -7.87329e-05 -2.09215e-05     -49.7255 
         -25      37.5938 -7.86985e-05 -2.09042e-05      -49.722 
         -25      37.7821 -7.85415e-05 -2.08374e-05     -49.7185 
         -25      37.9707 -7.82425e-05 -2.07514e-05     -49.7151 
         -25      38.1599 -7.77943e-05 -2.06922e-05     -49.7115 
         -25      38.3496 -7.72059e-05 -2.07224e-05      -49.708 
         -25      38.5396 -7.70761e-05    -2.09e-05     -49.7045 
         -25      38.7302 -7.75008e-05 -2.10436e-05     -49.7009 
         -25      38.9211 -7.76802e-05 -2.10947e-05     -49.6973 
         -25      39.1127 -7.76518e-05 -2.10609e-05     -49.6937 
         -25      39.3046 -7.74586e-05 -2.09578e-05     -49.6901 
         -25      39.4971 -7.71474e-05 -2.08076e-05     -49.6865 
         -25      39.6899 -7.67701e-05 -2.06398e-05     -49.6829 
         -25      39.8833 -7.63803e-05  -2.0489e-05     -49.6792 
         -25      40.0772 -7.60351e-05 -2.03946e-05     -49.6755 
         -25      40.2714 -7.57934e-05 -2.03991e-05     -49.6718 
         -25      40.4663 -7.57144e-05  -2.0546e-05     -49.6681 
         -25      40.6615 -7.58586e-05 -2.08776e-05     -49.6644 
         -25      40.8573 -7.62868e-05 -2.14336e-05     -49.6607 
         -25      41.0534 -7.64468e-05 -2.19174e-05     -49.6569 
         -25      41.2501 -7.59877e-05 -2.20396e-05     -49.6531 
         -25      41.4473 -7.56491e-05 -2.21611e-05     -49.6493 
         -25      41.6448 -7.54051e-05 -2.22734e-05     -49.6455 
         -25      41.8429 -7.52333e-05 -2.23704e-05     -49.6417 
         -25      42.0414 -7.51154e-05 -2.24482e-05     -49.6379 
         -25      42.2405 -7.50356e-05 -2.25047e-05      -49.634 
         -25      42.4399 -7.49814e-05 -2.25393e-05     -49.6301 
         -25      42.6399 -7.49425e-05 -2.25528e-05     -49.6263 
         -25      42.8404  -7.4911e-05 -2.25469e-05     -49.6223 
         -25      43.0412  -7.4881e-05 -2.25241e-05     -49.6184 
         -25      43.2426 -7.48482e-05 -2.24876e-05     -49.6145 
         -25      43.4444 -7.48097e-05 -2.24409e-05     -49.6106 
         -25      43.6467 -7.47636e-05 -2.23873e-05     -49.6066 
         -25      43.8494 -7.47094e-05 -2.23306e-05     -49.6026 
         -25      44.0527 -7.46468e-05 -2.22741e-05     -49.5986 
         -25      44.2563 -7.45763e-05 -2.22208e-05     -49.5946 
         -25      44.4606 -7.44983e-05 -2.21732e-05     -49.5906 
         -25      44.6653 -7.44137e-05 -2.21335e-05     -49.5865 
         -25      44.8704 -7.43233e-05 -2.21031e-05     -49.5825 
         -25       45.076 -7.42272e-05 -2.20827e-05     -49.5784 
         -25       45.282 -7.41258e-05 -2.20725e-05     -49.5743 
         -25      45.4886 -7.40185e-05 -2.20719e-05     -49.5702 
         -25      45.6955 -7.39045e-05 -2.20798e-05     -49.5661 
         -25       45.903  -7.3782e-05 -2.20945e-05      -49.562 
         -25      46.1111 -7.36489e-05 -2.21138e-05     -49.5578 
         -25      46.3194 -7.35024e-05 -2.21353e-05     -49.5537 
         -25      46.5283 -7.33386e-05 -2.21564e-05     -49.5495 
         -25      46.7376 -7.31535e-05 -2.21744e-05     -49.5453 
         -25      46.9475 -7.29419e-05 -2.21873e-05     -49.5411 
         -25      47.1577 -7.26988e-05 -2.21934e-05     -49.5369 
         -25      47.3685 -7.24179e-05  -2.2192e-05     -49.5327 
         -25      47.5798 -7.20935e-05 -2.21838e-05     -49.5284 
         -25      47.7914 -7.17197e-05  -2.2171e-05     -49.5242 
         -25      48.0037 -7.12969e-05 -2.21705e-05     -49.5199 