Variables = x, y, u, v, p

Zone, I=800, F=POINT
        1000            0           -0           -0     0.472856 
        1000     0.000234  8.16319e-06 -7.36684e-11     0.472856 
        1000     0.000939  3.11812e-05 -9.10567e-10     0.472856 
        1000     0.002113  6.46847e-05 -4.34099e-09     0.472856 
        1000     0.003759  0.000102884  -1.3393e-08     0.472856 
        1000     0.005872  0.000139858 -3.21697e-08     0.472856 
        1000     0.008457   0.00017156  -6.5882e-08     0.472856 
        1000      0.01151  0.000196634 -1.20578e-07     0.472856 
        1000     0.015036   0.00021697 -2.03263e-07     0.472856 
        1000     0.019031  0.000236839 -3.21426e-07     0.472856 
        1000     0.023493  0.000261342 -4.83038e-07     0.472856 
        1000     0.028429   0.00029435 -6.96759e-07     0.472856 
        1000     0.033831  0.000336577 -9.70781e-07     0.472856 
        1000     0.039706  0.000385245 -1.31395e-06     0.472856 
        1000     0.046047  0.000435335 -1.73409e-06     0.472856 
        1000     0.052863  0.000483386 -2.23966e-06     0.472856 
        1000      0.06015    0.0005315 -2.83763e-06     0.472856 
        1000       0.0679    0.0005883 -3.53372e-06     0.472856 
        1000     0.076126  0.000658428 -4.33456e-06     0.472856 
        1000     0.084816   0.00071555 -5.24336e-06     0.472856 
        1000     0.093982  0.000785983 -6.26449e-06     0.472856 
        1000     0.103611  0.000857151 -7.39828e-06     0.472856 
        1000     0.113718  0.000929846 -8.64693e-06     0.472856 
        1000     0.124286    0.0010043 -1.00073e-05     0.472856 
        1000     0.135333   0.00108065  -1.1479e-05     0.472856 
        1000      0.14685   0.00115849  -1.3057e-05     0.472856 
        1000     0.158827    0.0012372 -1.47342e-05     0.472856 
        1000     0.171284   0.00131621 -1.65066e-05     0.472856 
        1000     0.184201   0.00139476 -1.83632e-05     0.472856 
        1000     0.197599   0.00147251 -2.02978e-05     0.472856 
        1000     0.211455   0.00154907 -2.22966e-05     0.472856 
        1000     0.225792   0.00162437 -2.43519e-05     0.472856 
        1000       0.2406    0.0016977 -2.64502e-05     0.472856 
        1000     0.255865   0.00176785  -2.8577e-05     0.472856 
        1000     0.271613   0.00183558  -3.0724e-05     0.472856 
        1000     0.287818   0.00189996  -3.2875e-05     0.472856 
        1000     0.304506   0.00196081 -3.50203e-05     0.472856 
        1000      0.32165   0.00201779 -3.71443e-05     0.472856 
        1000     0.339278    0.0020708 -3.92385e-05     0.472856 
        1000     0.357377   0.00211964 -4.12903e-05     0.472856 
        1000      0.37593   0.00216417 -4.32879e-05     0.472856 
        1000     0.394968   0.00220441 -4.52254e-05     0.472856 
        1000     0.414461   0.00224028 -4.70918e-05     0.472856 
        1000      0.43444   0.00227189 -4.88829e-05     0.472856 
        1000     0.454872   0.00229927   -5.059e-05     0.472857 
        1000     0.475791   0.00232258 -5.22111e-05     0.472857 
        1000     0.497163   0.00234194   -5.374e-05     0.472857 
        1000     0.519021   0.00235759 -5.51766e-05     0.472857 
        1000      0.54135    0.0023697 -5.65191e-05     0.472857 
        1000     0.564131   0.00237851 -5.77673e-05     0.472857 
        1000       0.5874   0.00238425 -5.89266e-05     0.472857 
        1000     0.611121   0.00238713 -6.00017e-05     0.472857 
        1000      0.63533   0.00238744 -6.09918e-05     0.472857 
        1000      0.65999   0.00238538 -6.18941e-05     0.472857 
        1000     0.685139   0.00238119 -6.27192e-05     0.472857 
        1000     0.710759   0.00237505 -6.34756e-05     0.472858 
        1000     0.736828   0.00236716 -6.41719e-05     0.472858 
        1000     0.763387   0.00235768 -6.48181e-05     0.472858 
        1000     0.790396   0.00234674 -6.54221e-05     0.472858 
        1000     0.817896   0.00233444 -6.59937e-05     0.472858 
        1000     0.845843   0.00232087 -6.65403e-05     0.472858 
        1000     0.874283   0.00230608 -6.70715e-05     0.472858 
        1000      0.90317   0.00229012 -6.75945e-05     0.472858 
        1000     0.932551   0.00227296 -6.81185e-05     0.472858 
        1000     0.962401   0.00225461 -6.86511e-05     0.472858 
        1000     0.992697   0.00223505 -6.91999e-05     0.472858 
        1000      1.02349   0.00221421 -6.97737e-05     0.472859 
        1000      1.05472   0.00219207 -7.03794e-05     0.472859 
        1000      1.08645   0.00216855 -7.10258e-05     0.472859 
        1000      1.11863   0.00214362  -7.1719e-05     0.472859 
        1000       1.1513    0.0021172 -7.24672e-05     0.472859 
        1000      1.18444   0.00208928 -7.32762e-05     0.472859 
        1000      1.21802   0.00205987 -7.41504e-05     0.472859 
        1000      1.25211   0.00202892 -7.50953e-05     0.472858 
        1000      1.28663   0.00199653 -7.61112e-05     0.472858 
        1000      1.32165   0.00196268 -7.71988e-05     0.472858 
        1000      1.35712   0.00192754 -7.83519e-05     0.472858 
        1000      1.39308   0.00189113 -7.95629e-05     0.472858 
        1000      1.42951   0.00185364 -8.08155e-05     0.472858 
        1000      1.46638   0.00181521 -8.20852e-05     0.472857 
        1000      1.50375   0.00177592 -8.33404e-05     0.472857 
        1000      1.54156   0.00173548 -8.47101e-05     0.472857 
        1000      1.57987     0.001695 -8.61299e-05     0.472856 
        1000      1.61863   0.00165464 -8.75743e-05     0.472856 
        1000      1.65788   0.00161439 -8.90323e-05     0.472856 
        1000      1.69757   0.00157433 -9.04893e-05     0.472855 
        1000      1.73776   0.00153442  -9.1937e-05     0.472854 
        1000      1.77842   0.00149472 -9.33647e-05     0.472854 
        1000      1.81952   0.00145524 -9.47632e-05     0.472853 
        1000      1.86113   0.00141594 -9.61279e-05     0.472852 
        1000      1.90316   0.00137686 -9.74509e-05     0.472852 
        1000      1.94571   0.00133792   -9.873e-05     0.472851 
        1000      1.98869   0.00129915 -9.99598e-05      0.47285 
        1000      2.03217   0.00126048  -0.00010114     0.472849 
        1000      2.07612   0.00122189 -0.000102268     0.472848 
        1000      2.12051   0.00118337 -0.000103343     0.472846 
        1000       2.1654   0.00114482 -0.000104367     0.472845 
        1000      2.21073   0.00110626 -0.000105339     0.472844 
        1000      2.25656   0.00106758 -0.000106261     0.472842 
        1000      2.30283   0.00102879 -0.000107133     0.472841 
        1000       2.3496  0.000989805 -0.000107959     0.472839 
        1000      2.39685  0.000950598 -0.000108739     0.472838 
        1000      2.44452  0.000911167 -0.000109474     0.472836 
        1000      2.49271  0.000871421 -0.000110166     0.472834 
        1000      2.54132  0.000831397 -0.000110815     0.472832 
        1000      2.59044  0.000791012 -0.000111421      0.47283 
        1000         2.64  0.000750325 -0.000111982     0.472828 
        1000      2.69006  0.000709273 -0.000112499     0.472825 
        1000      2.74056  0.000667932 -0.000112966     0.472823 
        1000      2.79156  0.000626261 -0.000113382     0.472821 
        1000      2.84304  0.000584329 -0.000113742     0.472818 
        1000      2.89494  0.000542217 -0.000114041     0.472815 
        1000      2.94735  0.000499916 -0.000114274     0.472812 
        1000       3.0002  0.000457565 -0.000114435      0.47281 
        1000      3.05355  0.000415179 -0.000114518     0.472807 
        1000      3.10733  0.000372915 -0.000114518     0.472803 
        1000      3.16163  0.000330801 -0.000114431       0.4728 
        1000      3.21639  0.000288974 -0.000114254     0.472797 
        1000      3.27158  0.000247567 -0.000113987     0.472793 
        1000      3.32729  0.000206614 -0.000113633      0.47279 
        1000      3.38342   0.00016627   -0.0001132     0.472786 
        1000      3.44007  0.000126546 -0.000112702     0.472782 
        1000      3.49714  8.75595e-05  -0.00011216     0.472778 
        1000      3.55472  4.92717e-05 -0.000111605     0.472774 
        1000      3.61273  1.17268e-05 -0.000111078      0.47277 
        1000      3.67125 -2.52009e-05 -0.000110634     0.472766 
        1000      3.73025 -6.16134e-05 -0.000110346     0.472762 
        1000      3.78967 -9.85333e-05 -0.000109562     0.472757 
        1000      3.84961 -0.000134807 -0.000108443     0.472753 
        1000      3.90996 -0.000169755 -0.000107307     0.472748 
        1000      3.97084 -0.000203413 -0.000106148     0.472744 
        1000      4.03214 -0.000235711 -0.000104965     0.472739 
        1000      4.09395 -0.000266685 -0.000103753     0.472734 
        1000      4.15624 -0.000296298 -0.000102511     0.472729 
        1000      4.21895 -0.000324521 -0.000101237     0.472724 
        1000      4.28217 -0.000351392  -9.9927e-05     0.472719 
        1000      4.34582 -0.000376867 -9.85821e-05     0.472714 
        1000      4.40998 -0.000400988 -9.71987e-05     0.472709 
        1000      4.47457  -0.00042372  -9.5778e-05     0.472704 
        1000      4.53968 -0.000445106 -9.43172e-05     0.472699 
        1000      4.60525 -0.000465138  -9.2817e-05     0.472694 
        1000      4.67125 -0.000483814 -9.12788e-05     0.472688 
        1000      4.73777  -0.00050118 -8.97004e-05     0.472683 
        1000       4.8047 -0.000517225  -8.8085e-05     0.472677 
        1000      4.87216 -0.000531998 -8.64309e-05     0.472672 
        1000      4.94003 -0.000545497 -8.47419e-05     0.472667 
        1000      5.00843  -0.00055777 -8.30168e-05     0.472661 
        1000      5.07724 -0.000568827   -8.126e-05     0.472656 
        1000      5.14658 -0.000578716 -7.94705e-05      0.47265 
        1000      5.21639  -0.00058746 -7.76517e-05     0.472644 
        1000      5.28661 -0.000595088 -7.58075e-05     0.472639 
        1000      5.35736  -0.00060165 -7.39372e-05     0.472633 
        1000      5.42852 -0.000607172 -7.20463e-05     0.472628 
        1000      5.50021 -0.000611704 -7.01345e-05     0.472622 
        1000      5.57231  -0.00061528 -6.82075e-05     0.472616 
        1000      5.64493 -0.000617946  -6.6265e-05     0.472611 
        1000      5.71803 -0.000619745 -6.43113e-05     0.472605 
        1000      5.79154 -0.000620718 -6.23507e-05       0.4726 
        1000      5.86558 -0.000620912 -6.03828e-05     0.472594 
        1000      5.94003 -0.000620371 -5.84136e-05     0.472588 
        1000      6.01501 -0.000619141 -5.64423e-05     0.472583 
        1000       6.0904 -0.000617266 -5.44748e-05     0.472577 
        1000      6.16632  -0.00061479 -5.25101e-05     0.472572 
        1000      6.24271 -0.000611758 -5.05521e-05     0.472566 
        1000       6.3195 -0.000608217 -4.86043e-05     0.472561 
        1000      6.39683 -0.000604202 -4.66654e-05     0.472555 
        1000      6.47457 -0.000599763   -4.474e-05      0.47255 
        1000      6.55284 -0.000594933 -4.28263e-05     0.472544 
        1000      6.63152 -0.000589758 -4.09285e-05     0.472539 
        1000      6.71073 -0.000584267 -3.90441e-05     0.472533 
        1000      6.79034 -0.000578505 -3.71767e-05     0.472528 
        1000      6.87049 -0.000572495 -3.53232e-05     0.472522 
        1000      6.95111 -0.000566275 -3.34851e-05     0.472517 
        1000      7.03214 -0.000559878 -3.16632e-05     0.472512 
        1000       7.1137 -0.000553322 -2.98537e-05     0.472506 
        1000      7.19566 -0.000546641 -2.80584e-05     0.472501 
        1000      7.27816 -0.000539848 -2.62729e-05     0.472496 
        1000      7.36106 -0.000532974 -2.44984e-05     0.472491 
        1000      7.44451 -0.000526162 -2.27071e-05     0.472485 
        1000      7.52842 -0.000519335 -2.09167e-05      0.47248 
        1000      7.61273 -0.000512488 -1.91319e-05     0.472475 
        1000      7.69758  -0.00050562  -1.7349e-05      0.47247 
        1000      7.78283  -0.00049875 -1.55703e-05     0.472465 
        1000      7.86862 -0.000491871 -1.37921e-05      0.47246 
        1000      7.95481 -0.000484999 -1.20166e-05     0.472455 
        1000      8.04155 -0.000478121 -1.02404e-05      0.47245 
        1000      8.12868 -0.000471246 -8.46589e-06     0.472445 
        1000      8.21635  -0.00046436 -6.68986e-06      0.47244 
        1000      8.30449 -0.000457462 -4.91357e-06     0.472435 
        1000      8.39303  -0.00045055 -3.13841e-06      0.47243 
        1000      8.48211 -0.000443605 -1.36183e-06     0.472426 
        1000      8.57159 -0.000436627   4.1285e-07     0.472421 
        1000      8.66161 -0.000429598  2.18762e-06     0.472416 
        1000      8.75203 -0.000422518  3.95842e-06     0.472411 
        1000      8.84299 -0.000415368   5.7265e-06     0.472406 
        1000      8.93443 -0.000408688   7.2788e-06     0.472402 
        1000      9.02626 -0.000402087  8.82827e-06     0.472397 
        1000      9.11863 -0.000395521  1.03888e-05     0.472392 
        1000      9.21139 -0.000389001  1.19534e-05     0.472388 
        1000      9.30471  -0.00038252  1.35206e-05     0.472383 
        1000      9.39841  -0.00037609  1.50843e-05     0.472379 
        1000      9.49267 -0.000369702  1.66441e-05     0.472374 
        1000      9.58739 -0.000363362   1.8196e-05      0.47237 
        1000      9.68251 -0.000357076  1.97367e-05     0.472366 
        1000      9.77817 -0.000350836  2.12669e-05     0.472361 
        1000      9.87422 -0.000344652  2.27829e-05     0.472357 
        1000      9.97083 -0.000338514  2.42862e-05     0.472353 
        1000      10.0678 -0.000332434   2.5774e-05     0.472348 
        1000      10.1654 -0.000326401  2.72485e-05     0.472344 
        1000      10.2633 -0.000320426  2.87078e-05      0.47234 
        1000      10.3618 -0.000314498  3.01549e-05     0.472336 
        1000      10.4607 -0.000308673  3.15684e-05     0.472332 
        1000      10.5601 -0.000302943  3.29389e-05     0.472328 
        1000        10.66 -0.000297247  3.42854e-05     0.472323 
        1000      10.7603 -0.000291595  3.56063e-05     0.472319 
        1000      10.8611  -0.00028598  3.69045e-05     0.472315 
        1000      10.9623 -0.000280412  3.81785e-05     0.472311 
        1000      11.0641 -0.000274883  3.94313e-05     0.472308 
        1000      11.1663 -0.000269398  4.06624e-05     0.472304 
        1000       11.269 -0.000263964  4.18717e-05       0.4723 
        1000      11.3721 -0.000258573  4.30619e-05     0.472296 
        1000      11.4757 -0.000253234  4.42319e-05     0.472292 
        1000      11.5798  -0.00024794  4.53843e-05     0.472288 
        1000      11.6844 -0.000242701  4.65181e-05     0.472285 
        1000      11.7894 -0.000237508  4.76358e-05     0.472281 
        1000       11.895 -0.000232367   4.8737e-05     0.472277 
        1000      12.0009 -0.000227282  4.98217e-05     0.472274 
        1000      12.1073 -0.000222245  5.08922e-05      0.47227 
        1000      12.2142 -0.000217264  5.19471e-05     0.472266 
        1000      12.3216 -0.000212332  5.29887e-05     0.472263 
        1000      12.4294 -0.000207456  5.40156e-05     0.472259 
        1000      12.5378 -0.000202627  5.50297e-05     0.472256 
        1000      12.6465 -0.000197854  5.60294e-05     0.472253 
        1000      12.7558 -0.000193127  5.70165e-05     0.472249 
        1000      12.8656  -0.00018845  5.79899e-05     0.472246 
        1000      12.9757 -0.000183825  5.89487e-05     0.472242 
        1000      13.0864 -0.000179245  5.98939e-05     0.472239 
        1000      13.1975 -0.000174715  6.08234e-05     0.472236 
        1000      13.3092 -0.000170228  6.17379e-05     0.472233 
        1000      13.4212  -0.00016579   6.2635e-05     0.472229 
        1000      13.5338 -0.000161394  6.35149e-05     0.472226 
        1000      13.6468 -0.000157043  6.43754e-05     0.472223 
        1000      13.7603 -0.000152741  6.52144e-05      0.47222 
        1000      13.8743 -0.000148482  6.60311e-05     0.472217 
        1000      13.9886 -0.000144274  6.68222e-05     0.472214 
        1000      14.1036 -0.000140112  6.75865e-05     0.472211 
        1000      14.2189 -0.000136007  6.83202e-05     0.472208 
        1000      14.3348 -0.000131955  6.90213e-05     0.472205 
        1000       14.451  -0.00012797  6.96855e-05     0.472202 
        1000      14.5678  -0.00012405  7.03103e-05     0.472199 
        1000      14.6851 -0.000120208  7.08911e-05     0.472196 
        1000      14.8028 -0.000116369  7.14791e-05     0.472193 
        1000       14.921 -0.000112384  7.21773e-05     0.472191 
        1000      15.0396   -0.0001085  7.28373e-05     0.472188 
        1000      15.1588 -0.000104698  7.34643e-05     0.472185 
        1000      15.2783 -0.000100973   7.4061e-05     0.472182 
        1000      15.3984 -9.73102e-05  7.46319e-05      0.47218 
        1000       15.519 -9.37044e-05  7.51797e-05     0.472177 
        1000        15.64 -9.01517e-05   7.5707e-05     0.472174 
        1000      15.7615  -8.6641e-05  7.62172e-05     0.472172 
        1000      15.8834 -8.31738e-05  7.67117e-05     0.472169 
        1000      16.0058 -7.97413e-05  7.71934e-05     0.472167 
        1000      16.1286 -7.63468e-05  7.76629e-05     0.472164 
        1000       16.252 -7.29834e-05  7.81224e-05     0.472162 
        1000      16.3759 -6.96531e-05  7.85723e-05     0.472159 
        1000      16.5002 -6.63587e-05   7.9013e-05     0.472157 
        1000       16.625 -6.30951e-05  7.94455e-05     0.472155 
        1000      16.7501 -5.98687e-05  7.98689e-05     0.472152 
        1000      16.8759 -5.66753e-05  8.02837e-05      0.47215 
        1000       17.002 -5.35215e-05  8.06885e-05     0.472148 
        1000      17.1287 -5.04039e-05  8.10833e-05     0.472145 
        1000      17.2557 -4.73289e-05  8.14663e-05     0.472143 
        1000      17.3834 -4.42931e-05   8.1837e-05     0.472141 
        1000      17.5115 -4.13006e-05  8.21935e-05     0.472139 
        1000      17.6399 -3.83546e-05  8.25342e-05     0.472136 
        1000       17.769 -3.54514e-05  8.28582e-05     0.472134 
        1000      17.8984 -3.25961e-05  8.31633e-05     0.472132 
        1000      18.0284 -2.97843e-05  8.34489e-05      0.47213 
        1000      18.1587 -2.70201e-05   8.3713e-05     0.472128 
        1000      18.2896 -2.42982e-05  8.39552e-05     0.472126 
        1000       18.421 -2.16194e-05  8.41746e-05     0.472124 
        1000      18.5528 -1.89838e-05  8.43708e-05     0.472122 
        1000      18.6851 -1.63846e-05  8.45444e-05      0.47212 
        1000      18.8178 -1.38229e-05   8.4696e-05     0.472118 
        1000      18.9511 -1.12909e-05  8.48276e-05     0.472116 
        1000      19.0847 -8.78848e-06  8.49416e-05     0.472114 
        1000      19.2189 -6.30681e-06  8.50418e-05     0.472112 
        1000      19.3535 -3.84478e-06  8.51328e-05      0.47211 
        1000      19.4886 -1.39291e-06  8.52211e-05     0.472109 
        1000      19.6242  1.02179e-06   8.5352e-05     0.472107 
        1000      19.7602  3.37451e-06   8.5526e-05     0.472105 
        1000      19.8968  5.69207e-06  8.56928e-05     0.472103 
        1000      20.0337  7.96628e-06  8.58449e-05     0.472101 
        1000      20.1712  1.03348e-05  8.58407e-05       0.4721 
        1000      20.3091  1.26737e-05  8.58349e-05     0.472098 
        1000      20.4475  1.49735e-05  8.58338e-05     0.472096 
        1000      20.5864  1.72294e-05  8.58344e-05     0.472094 
        1000      20.7257  1.94377e-05  8.58337e-05     0.472093 
        1000      20.8655  2.16011e-05  8.58296e-05     0.472091 
        1000      21.0058  2.37162e-05  8.58199e-05      0.47209 
        1000      21.1465  2.57872e-05  8.58029e-05     0.472088 
        1000      21.2877  2.78123e-05  8.57773e-05     0.472086 
        1000      21.4294  2.97967e-05  8.57421e-05     0.472085 
        1000      21.5716  3.17412e-05  8.56964e-05     0.472083 
        1000      21.7142  3.36468e-05  8.56397e-05     0.472082 
        1000      21.8573  3.55196e-05  8.55717e-05      0.47208 
        1000      22.0008  3.73593e-05  8.54924e-05     0.472079 
        1000      22.1449  3.91718e-05  8.54018e-05     0.472078 
        1000      22.2893  4.09569e-05  8.53001e-05     0.472076 
        1000      22.4344  4.27199e-05  8.51878e-05     0.472075 
        1000      22.5797  4.44602e-05  8.50654e-05     0.472073 
        1000      22.7257  4.61825e-05  8.49334e-05     0.472072 
        1000      22.8721  4.78868e-05  8.47925e-05     0.472071 
        1000      23.0189   4.9573e-05  8.46435e-05     0.472069 
        1000      23.1663  5.12441e-05   8.4487e-05     0.472068 
        1000       23.314  5.28978e-05  8.43238e-05     0.472067 
        1000      23.4623  5.45362e-05  8.41544e-05     0.472066 
        1000       23.611   5.6156e-05  8.39796e-05     0.472064 
        1000      23.7602  5.77584e-05  8.37996e-05     0.472063 
        1000        23.91  5.93406e-05   8.3615e-05     0.472062 
        1000        24.06  6.08995e-05  8.34262e-05     0.472061 
        1000      24.2107  6.24353e-05  8.32329e-05     0.472059 
        1000      24.3617  6.39436e-05  8.30355e-05     0.472058 
        1000      24.5133  6.54246e-05  8.28331e-05     0.472057 
        1000      24.6653  6.68739e-05  8.26256e-05     0.472056 
        1000      24.8178  6.82923e-05  8.24118e-05     0.472055 
        1000      24.9708  6.96778e-05  8.21908e-05     0.472054 
        1000      25.1242   7.1029e-05  8.19613e-05     0.472053 
        1000      25.2781  7.23493e-05  8.17212e-05     0.472052 
        1000      25.4324  7.36387e-05  8.14688e-05      0.47205 
        1000      25.5873  7.49035e-05  8.12012e-05     0.472049 
        1000      25.7426  7.61479e-05  8.09159e-05     0.472048 
        1000      25.8984  7.73825e-05  8.06092e-05     0.472047 
        1000      26.0546  7.86169e-05  8.02779e-05     0.472046 
        1000      26.2114  7.98295e-05  7.99693e-05     0.472045 
        1000      26.3686  8.10137e-05  7.96945e-05     0.472044 
        1000      26.5262  8.21891e-05  7.94163e-05     0.472043 
        1000      26.6844  8.33535e-05   7.9132e-05     0.472043 
        1000      26.8429  8.45018e-05  7.88404e-05     0.472042 
        1000       27.002  8.56338e-05   7.8539e-05     0.472041 
        1000      27.1615  8.67464e-05  7.82268e-05      0.47204 
        1000      27.3216  8.78409e-05  7.79015e-05     0.472039 
        1000      27.4821  8.89162e-05  7.75618e-05     0.472038 
        1000       27.643  8.99717e-05  7.72062e-05     0.472037 
        1000      27.8044  9.10095e-05  7.68326e-05     0.472036 
        1000      27.9663  9.20283e-05  7.64397e-05     0.472035 
        1000      28.1287    9.303e-05  7.60252e-05     0.472035 
        1000      28.2914  9.40147e-05   7.5601e-05     0.472034 
        1000      28.4548  9.49938e-05   7.5305e-05     0.472033 
        1000      28.6185  9.59397e-05  7.49873e-05     0.472032 
        1000      28.7828  9.68572e-05  7.46513e-05     0.472031 
        1000      28.9475  9.77484e-05  7.43005e-05     0.472031 
        1000      29.1126  9.86153e-05  7.39384e-05      0.47203 
        1000      29.2784  9.94616e-05  7.35671e-05     0.472029 
        1000      29.4444  0.000100288  7.31894e-05     0.472028 
        1000       29.611  0.000101098  7.28067e-05     0.472028 
        1000       29.778  0.000101891  7.24212e-05     0.472027 
        1000      29.9456  0.000102671  7.20336e-05     0.472026 
        1000      30.1137  0.000103438  7.16454e-05     0.472026 
        1000      30.2821  0.000104192  7.12576e-05     0.472025 
        1000      30.4511  0.000104935  7.08702e-05     0.472024 
        1000      30.6204  0.000105667  7.04843e-05     0.472024 
        1000      30.7903  0.000106389  7.00994e-05     0.472023 
        1000      30.9606  0.000107101  6.97161e-05     0.472022 
        1000      31.1315  0.000107804  6.93339e-05     0.472022 
        1000      31.3028  0.000108497  6.89527e-05     0.472021 
        1000      31.4745  0.000109181  6.85726e-05      0.47202 
        1000      31.6468  0.000109855  6.81925e-05      0.47202 
        1000      31.8194  0.000110518  6.78127e-05     0.472019 
        1000      31.9926  0.000111172  6.74321e-05     0.472019 
        1000      32.1662  0.000111814  6.70507e-05     0.472018 
        1000      32.3404  0.000112447  6.66675e-05     0.472018 
        1000      32.5149  0.000113067  6.62826e-05     0.472017 
        1000        32.69  0.000113676   6.5895e-05     0.472016 
        1000      32.8655  0.000114273  6.55044e-05     0.472016 
        1000      33.0414  0.000114856   6.5111e-05     0.472015 
        1000       33.218  0.000115428  6.47138e-05     0.472015 
        1000      33.3948  0.000115985  6.43132e-05     0.472014 
        1000      33.5723   0.00011653  6.39085e-05     0.472014 
        1000        33.75   0.00011706  6.35004e-05     0.472013 
        1000      33.9284  0.000117576  6.30882e-05     0.472013 
        1000      34.1073  0.000118079  6.26727e-05     0.472012 
        1000      34.2865  0.000118567  6.22543e-05     0.472012 
        1000      34.4663  0.000119042   6.1833e-05     0.472011 
        1000      34.6465  0.000119503  6.14099e-05     0.472011 
        1000      34.8272  0.000119951  6.09851e-05     0.472011 
        1000      35.0083  0.000120387  6.05601e-05      0.47201 
        1000        35.19  0.000120811  6.01351e-05      0.47201 
        1000      35.3721  0.000121225  5.97114e-05     0.472009 
        1000      35.5546  0.000121628  5.92904e-05     0.472009 
        1000      35.7377  0.000122024  5.88727e-05     0.472008 
        1000      35.9211  0.000122412  5.84601e-05     0.472008 
        1000      36.1052  0.000122796  5.80532e-05     0.472008 
        1000      36.2895  0.000123086  5.76677e-05     0.472007 
        1000      36.4745  0.000123386  5.72701e-05     0.472007 
        1000      36.6598  0.000123706  5.68613e-05     0.472006 
        1000      36.8457  0.000124045   5.6443e-05     0.472006 
        1000      37.0321  0.000124406  5.60178e-05     0.472006 
        1000      37.2188  0.000124789  5.55875e-05     0.472005 
        1000      37.4062  0.000125197  5.51513e-05     0.472005 
        1000      37.5938  0.000125632  5.47079e-05     0.472005 
        1000      37.7821  0.000126102  5.42516e-05     0.472004 
        1000      37.9707   0.00012661  5.37744e-05     0.472004 
        1000      38.1599   0.00012674  5.34126e-05     0.472004 
        1000      38.3496  0.000126874  5.30447e-05     0.472003 
        1000      38.5396  0.000127058  5.26555e-05     0.472003 
        1000      38.7302  0.000127279  5.22497e-05     0.472003 
        1000      38.9211   0.00012753  5.18327e-05     0.472002 
        1000      39.1127  0.000127805  5.14083e-05     0.472002 
        1000      39.3046  0.000128103  5.09808e-05     0.472002 
        1000      39.4971  0.000128422   5.0553e-05     0.472002 
        1000      39.6899  0.000128764  5.01281e-05     0.472001 
        1000      39.8833   0.00012913  4.97074e-05     0.472001 
        1000      40.0772  0.000129259  4.92961e-05     0.472001 
        1000      40.2714  0.000129361  4.88831e-05        0.472 
        1000      40.4663  0.000129476  4.84672e-05        0.472 
        1000      40.6615  0.000129604  4.80495e-05        0.472 
        1000      40.8573  0.000129744  4.76301e-05        0.472 
        1000      41.0534  0.000129895  4.72101e-05     0.471999 
        1000      41.2501  0.000130057  4.67895e-05     0.471999 
        1000      41.4473  0.000130227  4.63693e-05     0.471999 
        1000      41.6448  0.000130404  4.59502e-05     0.471999 
        1000      41.8429  0.000130584  4.55322e-05     0.471998 
        1000      42.0414  0.000130767  4.51164e-05     0.471998 
        1000      42.2405   0.00013095  4.47026e-05     0.471998 
        1000      42.4399  0.000131131  4.42918e-05     0.471998 
        1000      42.6399  0.000131308  4.38837e-05     0.471998 
        1000      42.8404   0.00013148  4.34789e-05     0.471997 
        1000      43.0412  0.000131643  4.30781e-05     0.471997 
        1000      43.2426  0.000131798  4.26806e-05     0.471997 
        1000      43.4444  0.000131943  4.22873e-05     0.471997 
        1000      43.6467  0.000132077  4.18977e-05     0.471997 
        1000      43.8494    0.0001322  4.15122e-05     0.471997 
        1000      44.0527  0.000132312  4.11303e-05     0.471996 
        1000      44.2563  0.000132413  4.07524e-05     0.471996 
        1000      44.4606  0.000132504  4.03777e-05     0.471996 
        1000      44.6653  0.000132586  4.00064e-05     0.471996 
        1000      44.8704   0.00013266  3.96385e-05     0.471996 
        1000       45.076  0.000132727  3.92732e-05     0.471996 
        1000       45.282   0.00013279  3.89107e-05     0.471995 
        1000      45.4886  0.000132851  3.85501e-05     0.471995 
        1000      45.6955   0.00013291  3.81917e-05     0.471995 
        1000       45.903  0.000132972  3.78347e-05     0.471995 
        1000      46.1111  0.000133037   3.7479e-05     0.471995 
        1000      46.3194  0.000133107  3.71249e-05     0.471995 
        1000      46.5283  0.000133185  3.67714e-05     0.471995 
        1000      46.7376   0.00013327  3.64193e-05     0.471994 
        1000      46.9475  0.000133364  3.60679e-05     0.471994 
        1000      47.1577  0.000133467   3.5718e-05     0.471994 
        1000      47.3685  0.000133577  3.53695e-05     0.471994 
        1000      47.5798  0.000133693   3.5023e-05     0.471994 
        1000      47.7914   0.00013381  3.46797e-05     0.471994 
        1000      48.0037  0.000133925    3.434e-05     0.471994 