Variables = x, y, u, v, p

Zone, I=800, F=POINT
         -50            0            0            0      7.68926 
         -50     0.000234 -1.54871e-05 -3.65807e-10      7.68926 
         -50     0.000939 -5.84855e-05 -1.59228e-09      7.68926 
         -50     0.002113 -0.000118867 -4.02827e-09      7.68926 
         -50     0.003759 -0.000183103 -8.20291e-09      7.68926 
         -50     0.005872 -0.000237414 -1.47104e-08      7.68926 
         -50     0.008457 -0.000272154 -2.41657e-08      7.68926 
         -50      0.01151 -0.000283964 -3.70646e-08      7.68926 
         -50     0.015036 -0.000276816 -5.37955e-08      7.68926 
         -50     0.019031 -0.000260307 -7.45469e-08      7.68926 
         -50     0.023493  -0.00024596 -9.93759e-08      7.68926 
         -50     0.028429 -0.000242382  -1.2831e-07      7.68926 
         -50     0.033831 -0.000251238 -1.61274e-07      7.68926 
         -50     0.039706 -0.000265981  -1.9831e-07      7.68926 
         -50     0.046047 -0.000275222 -2.39419e-07      7.68926 
         -50     0.052863  -0.00027094 -2.84735e-07      7.68926 
         -50      0.06015 -0.000258193 -3.34345e-07      7.68926 
         -50       0.0679 -0.000257217 -3.88534e-07      7.68926 
         -50     0.076126 -0.000278987 -4.48616e-07      7.68926 
         -50     0.084816 -0.000263928 -5.16914e-07      7.68926 
         -50     0.093982  -0.00027171 -5.88297e-07      7.68926 
         -50     0.103611 -0.000275153 -6.65858e-07      7.68926 
         -50     0.113718 -0.000276452 -7.49412e-07      7.68926 
         -50     0.124286 -0.000277172 -8.38782e-07      7.68926 
         -50     0.135333 -0.000278193  -9.3434e-07      7.68926 
         -50      0.14685  -0.00027975 -1.03644e-06      7.68926 
         -50     0.158827 -0.000281602 -1.14557e-06      7.68926 
         -50     0.171284 -0.000283309  -1.2625e-06      7.68926 
         -50     0.184201 -0.000284535 -1.38762e-06      7.68925 
         -50     0.197599 -0.000285329 -1.52173e-06      7.68925 
         -50     0.211455 -0.000286182 -1.66542e-06      7.68925 
         -50     0.225792 -0.000287679 -1.82052e-06      7.68925 
         -50       0.2406 -0.000289408 -1.99034e-06      7.68925 
         -50     0.255865 -0.000289762 -2.17385e-06      7.68925 
         -50     0.271613 -0.000291006  -2.3681e-06      7.68925 
         -50     0.287818 -0.000292098 -2.59068e-06      7.68925 
         -50     0.304506 -0.000293088 -2.84703e-06      7.68925 
         -50      0.32165 -0.000294017 -3.13756e-06      7.68924 
         -50     0.339278 -0.000294916 -3.45945e-06      7.68924 
         -50     0.357377 -0.000295804 -3.80558e-06      7.68924 
         -50      0.37593 -0.000296691 -4.16588e-06      7.68924 
         -50     0.394968 -0.000297583 -4.52942e-06      7.68924 
         -50     0.414461 -0.000298479 -4.88355e-06      7.68923 
         -50      0.43444 -0.000299374 -5.21764e-06      7.68923 
         -50     0.454872 -0.000300266 -5.52228e-06      7.68923 
         -50     0.475791 -0.000301154 -5.79285e-06      7.68923 
         -50     0.497163 -0.000302039 -6.02863e-06      7.68922 
         -50     0.519021 -0.000302927 -6.23516e-06      7.68922 
         -50      0.54135 -0.000303821 -6.42272e-06      7.68922 
         -50     0.564131 -0.000304719 -6.60548e-06      7.68921 
         -50       0.5874 -0.000305601 -6.79898e-06      7.68921 
         -50     0.611121  -0.00030641 -7.05034e-06      7.68921 
         -50      0.63533 -0.000307173   -7.669e-06       7.6892 
         -50      0.65999 -0.000307889 -8.26118e-06       7.6892 
         -50     0.685139 -0.000308552 -8.82708e-06      7.68919 
         -50     0.710759 -0.000309154 -9.36648e-06      7.68919 
         -50     0.736828 -0.000309687 -9.88007e-06      7.68918 
         -50     0.763387 -0.000310143 -1.03706e-05      7.68918 
         -50     0.790396 -0.000310508 -1.08398e-05      7.68917 
         -50     0.817896 -0.000310774 -1.12917e-05      7.68917 
         -50     0.845843 -0.000310927 -1.17291e-05      7.68916 
         -50     0.874283 -0.000310956 -1.21563e-05      7.68916 
         -50      0.90317 -0.000310849 -1.25766e-05      7.68915 
         -50     0.932551 -0.000310595 -1.29941e-05      7.68914 
         -50     0.962401 -0.000310185 -1.34116e-05      7.68914 
         -50     0.992697 -0.000309609 -1.38311e-05      7.68913 
         -50      1.02349 -0.000308861 -1.42549e-05      7.68912 
         -50      1.05472 -0.000307937 -1.46827e-05      7.68911 
         -50      1.08645 -0.000306833 -1.51146e-05       7.6891 
         -50      1.11863 -0.000305552 -1.55477e-05       7.6891 
         -50       1.1513 -0.000304094 -1.59792e-05      7.68909 
         -50      1.18444 -0.000302465 -1.64042e-05      7.68908 
         -50      1.21802 -0.000300673 -1.68165e-05      7.68907 
         -50      1.25211 -0.000298724 -1.72104e-05      7.68906 
         -50      1.28663 -0.000296628 -1.75784e-05      7.68905 
         -50      1.32165 -0.000294389  -1.7915e-05      7.68904 
         -50      1.35712 -0.000292015 -1.82152e-05      7.68902 
         -50      1.39308 -0.000289499 -1.84779e-05      7.68901 
         -50      1.42951 -0.000286832 -1.87057e-05        7.689 
         -50      1.46638 -0.000283993 -1.89081e-05      7.68899 
         -50      1.50375 -0.000280937 -1.91046e-05      7.68897 
         -50      1.54156 -0.000276926 -1.94265e-05      7.68896 
         -50      1.57987 -0.000273252  -1.9733e-05      7.68894 
         -50      1.61863 -0.000269909 -2.00128e-05      7.68893 
         -50      1.65788 -0.000266811 -2.02661e-05      7.68891 
         -50      1.69757 -0.000263891 -2.04932e-05       7.6889 
         -50      1.73776 -0.000261081 -2.06955e-05      7.68888 
         -50      1.77842 -0.000258332 -2.08744e-05      7.68886 
         -50      1.81952 -0.000255603 -2.10322e-05      7.68885 
         -50      1.86113 -0.000252855 -2.11715e-05      7.68883 
         -50      1.90316 -0.000250069  -2.1295e-05      7.68881 
         -50      1.94571 -0.000247225 -2.14061e-05      7.68879 
         -50      1.98869 -0.000244321 -2.15075e-05      7.68877 
         -50      2.03217 -0.000241354 -2.16027e-05      7.68875 
         -50      2.07612 -0.000238333 -2.16944e-05      7.68873 
         -50      2.12051 -0.000235277 -2.17853e-05       7.6887 
         -50       2.1654   -0.0002322 -2.18777e-05      7.68868 
         -50      2.21073 -0.000229131 -2.19732e-05      7.68866 
         -50      2.25656 -0.000226093  -2.2073e-05      7.68863 
         -50      2.30283 -0.000223122 -2.21771e-05      7.68861 
         -50       2.3496 -0.000220242 -2.22851e-05      7.68858 
         -50      2.39685 -0.000217489 -2.23954e-05      7.68856 
         -50      2.44452 -0.000214892  -2.2505e-05      7.68853 
         -50      2.49271 -0.000212475 -2.26105e-05       7.6885 
         -50      2.54132 -0.000210265 -2.27067e-05      7.68847 
         -50      2.59044 -0.000208275 -2.27877e-05      7.68844 
         -50         2.64 -0.000206523 -2.28462e-05      7.68841 
         -50      2.69006 -0.000205009 -2.28743e-05      7.68838 
         -50      2.74056 -0.000203736 -2.28628e-05      7.68835 
         -50      2.79156 -0.000202691 -2.28023e-05      7.68831 
         -50      2.84304 -0.000201859 -2.26828e-05      7.68828 
         -50      2.89494 -0.000201216 -2.24944e-05      7.68825 
         -50      2.94735 -0.000200727 -2.22274e-05      7.68821 
         -50       3.0002 -0.000200358 -2.18737e-05      7.68817 
         -50      3.05355 -0.000200065 -2.14259e-05      7.68813 
         -50      3.10733 -0.000199807 -2.08804e-05       7.6881 
         -50      3.16163 -0.000199539 -2.02353e-05      7.68806 
         -50      3.21639 -0.000199226 -1.94943e-05      7.68801 
         -50      3.27158 -0.000198839 -1.86673e-05      7.68797 
         -50      3.32729 -0.000198368 -1.77691e-05      7.68793 
         -50      3.38342 -0.000197823 -1.68259e-05      7.68789 
         -50      3.44007 -0.000197245 -1.58718e-05      7.68784 
         -50      3.49714 -0.000196716 -1.49564e-05      7.68779 
         -50      3.55472 -0.000196366 -1.41412e-05      7.68775 
         -50      3.61273 -0.000196394 -1.35082e-05       7.6877 
         -50      3.67125 -0.000197073 -1.31576e-05      7.68765 
         -50      3.73025 -0.000198773 -1.32152e-05       7.6876 
         -50      3.78967 -0.000200146 -1.30394e-05      7.68755 
         -50      3.84961  -0.00020101 -1.24623e-05      7.68749 
         -50      3.90996 -0.000202009 -1.19099e-05      7.68744 
         -50      3.97084 -0.000202502 -1.19816e-05      7.68738 
         -50      4.03214 -0.000202943 -1.20916e-05      7.68733 
         -50      4.09395 -0.000203429 -1.20976e-05      7.68727 
         -50      4.15624 -0.000203964 -1.19753e-05      7.68721 
         -50      4.21895 -0.000204552 -1.17297e-05      7.68715 
         -50      4.28217 -0.000205196 -1.13865e-05      7.68708 
         -50      4.34582 -0.000205894 -1.09861e-05      7.68702 
         -50      4.40998 -0.000206645 -1.05748e-05      7.68695 
         -50      4.47457 -0.000207444 -1.02006e-05      7.68689 
         -50      4.53968 -0.000208285 -9.90517e-06      7.68682 
         -50      4.60525  -0.00020916 -9.72113e-06      7.68675 
         -50      4.67125 -0.000210057 -9.66681e-06      7.68668 
         -50      4.73777 -0.000210965 -9.74406e-06      7.68661 
         -50       4.8047 -0.000211872 -9.93729e-06      7.68653 
         -50      4.87216 -0.000212764 -1.02146e-05      7.68646 
         -50      4.94003 -0.000213628 -1.05296e-05      7.68638 
         -50      5.00843 -0.000214453 -1.08276e-05       7.6863 
         -50      5.07724 -0.000215228  -1.1052e-05      7.68622 
         -50      5.14658 -0.000215948 -1.11561e-05      7.68614 
         -50      5.21639 -0.000216612  -1.1116e-05      7.68606 
         -50      5.28661 -0.000217225 -1.09486e-05      7.68597 
         -50      5.35736   -0.0002178 -1.07327e-05      7.68589 
         -50      5.42852 -0.000218363 -1.06356e-05       7.6858 
         -50      5.50021  -0.00021895 -1.09431e-05      7.68571 
         -50      5.57231 -0.000219616 -1.20953e-05      7.68562 
         -50      5.64493 -0.000220434 -1.47311e-05      7.68552 
         -50      5.71803 -0.000221185 -1.29308e-05      7.68543 
         -50      5.79154 -0.000221667 -1.26336e-05      7.68533 
         -50      5.86558 -0.000222033 -1.30406e-05      7.68523 
         -50      5.94003 -0.000222377 -1.36463e-05      7.68513 
         -50      6.01501 -0.000222753 -1.41782e-05      7.68503 
         -50       6.0904 -0.000223183 -1.45351e-05      7.68492 
         -50      6.16632 -0.000223667 -1.47336e-05      7.68482 
         -50      6.24271 -0.000224196 -1.48527e-05      7.68471 
         -50       6.3195 -0.000224756  -1.4986e-05       7.6846 
         -50      6.39683 -0.000225337 -1.51983e-05      7.68449 
         -50      6.47457 -0.000225935 -1.54884e-05      7.68437 
         -50      6.55284 -0.000226556 -1.57606e-05      7.68426 
         -50      6.63152 -0.000227211 -1.58036e-05      7.68414 
         -50      6.71073 -0.000227919 -1.52816e-05      7.68402 
         -50      6.79034 -0.000227747 -1.55167e-05       7.6839 
         -50      6.87049 -0.000227413 -1.61577e-05      7.68377 
         -50      6.95111 -0.000227318 -1.66525e-05      7.68364 
         -50      7.03214 -0.000227412 -1.70675e-05      7.68352 
         -50       7.1137 -0.000227647 -1.74545e-05      7.68338 
         -50      7.19566 -0.000227979 -1.78497e-05      7.68325 
         -50      7.27816 -0.000228368 -1.82764e-05      7.68312 
         -50      7.36106 -0.000228779 -1.87437e-05      7.68298 
         -50      7.44451 -0.000229184 -1.92509e-05      7.68284 
         -50      7.52842 -0.000229561 -1.97861e-05       7.6827 
         -50      7.61273 -0.000229891 -2.03298e-05      7.68255 
         -50      7.69758 -0.000230167 -2.08579e-05       7.6824 
         -50      7.78283 -0.000230385 -2.13423e-05      7.68226 
         -50      7.86862 -0.000230548 -2.17567e-05       7.6821 
         -50      7.95481 -0.000230669 -2.20777e-05      7.68195 
         -50      8.04155 -0.000230763  -2.2291e-05      7.68179 
         -50      8.12868 -0.000231114 -2.29308e-05      7.68163 
         -50      8.21635 -0.000231436  -2.3556e-05      7.68147 
         -50      8.30449 -0.000231675 -2.40916e-05      7.68131 
         -50      8.39303 -0.000231862 -2.46019e-05      7.68114 
         -50      8.48211 -0.000232019 -2.51227e-05      7.68097 
         -50      8.57159 -0.000232165 -2.56612e-05       7.6808 
         -50      8.66161  -0.00023231 -2.62051e-05      7.68063 
         -50      8.75203 -0.000232459 -2.67278e-05      7.68045 
         -50      8.84299 -0.000232614 -2.72036e-05      7.68027 
         -50      8.93443 -0.000232771 -2.76202e-05      7.68009 
         -50      9.02626 -0.000232923 -2.79991e-05      7.67991 
         -50      9.11863  -0.00023306 -2.84202e-05      7.67972 
         -50      9.21139  -0.00023317 -2.90467e-05      7.67953 
         -50      9.30471  -0.00023324 -3.01617e-05      7.67934 
         -50      9.39841 -0.000233333 -3.08161e-05      7.67914 
         -50      9.49267 -0.000233437 -3.08546e-05      7.67894 
         -50      9.58739 -0.000233502 -3.12988e-05      7.67874 
         -50      9.68251 -0.000233546 -3.19884e-05      7.67854 
         -50      9.77817 -0.000233585 -3.27972e-05      7.67833 
         -50      9.87422 -0.000233626 -3.36268e-05      7.67812 
         -50      9.97083 -0.000233675 -3.44077e-05      7.67791 
         -50      10.0678 -0.000233733 -3.50919e-05      7.67769 
         -50      10.1654 -0.000233796 -3.56544e-05      7.67747 
         -50      10.2633 -0.000233863  -3.6086e-05      7.67725 
         -50      10.3618 -0.000233926  -3.6394e-05      7.67703 
         -50      10.4607 -0.000233979 -3.65961e-05       7.6768 
         -50      10.5601 -0.000234017 -3.67194e-05      7.67657 
         -50        10.66 -0.000234032 -3.67972e-05      7.67634 
         -50      10.7603 -0.000234021 -3.68655e-05       7.6761 
         -50      10.8611 -0.000233978  -3.6961e-05      7.67586 
         -50      10.9623 -0.000233904 -3.71184e-05      7.67562 
         -50      11.0641 -0.000233797  -3.7368e-05      7.67537 
         -50      11.1663  -0.00023366 -3.77333e-05      7.67512 
         -50       11.269   -0.0002335 -3.82289e-05      7.67487 
         -50      11.3721 -0.000233321 -3.88602e-05      7.67461 
         -50      11.4757 -0.000233136 -3.96191e-05      7.67435 
         -50      11.5798 -0.000232955 -4.04866e-05      7.67409 
         -50      11.6844 -0.000232792 -4.14276e-05      7.67383 
         -50      11.7894 -0.000232661 -4.23957e-05      7.67356 
         -50       11.895 -0.000232576 -4.33281e-05      7.67329 
         -50      12.0009 -0.000232552 -4.41487e-05      7.67301 
         -50      12.1073 -0.000232601 -4.47703e-05      7.67273 
         -50      12.2142 -0.000232731  -4.5093e-05      7.67245 
         -50      12.3216 -0.000232946 -4.50089e-05      7.67216 
         -50      12.4294 -0.000233243 -4.44039e-05      7.67187 
         -50      12.5378 -0.000233612   -4.316e-05      7.67158 
         -50      12.6465 -0.000233518 -4.26355e-05      7.67128 
         -50      12.7558 -0.000231802 -4.35875e-05      7.67098 
         -50      12.8656 -0.000231646 -4.32856e-05      7.67068 
         -50      12.9757  -0.00023151 -4.31558e-05      7.67037 
         -50      13.0864 -0.000231632 -4.45151e-05      7.67006 
         -50      13.1975 -0.000231767 -4.54883e-05      7.66975 
         -50      13.3092  -0.00023188  -4.6157e-05      7.66943 
         -50      13.4212 -0.000231947 -4.65936e-05      7.66911 
         -50      13.5338  -0.00023195 -4.68657e-05      7.66879 
         -50      13.6468 -0.000231876 -4.70323e-05      7.66846 
         -50      13.7603 -0.000231721 -4.71451e-05      7.66813 
         -50      13.8743 -0.000231485 -4.72476e-05      7.66779 
         -50      13.9886 -0.000231173 -4.73748e-05      7.66745 
         -50      14.1036 -0.000230792 -4.75534e-05      7.66711 
         -50      14.2189 -0.000230355 -4.78012e-05      7.66676 
         -50      14.3348 -0.000229873 -4.81288e-05      7.66641 
         -50       14.451 -0.000229363 -4.85379e-05      7.66605 
         -50      14.5678 -0.000228839 -4.90243e-05      7.66569 
         -50      14.6851 -0.000228318 -4.95764e-05      7.66533 
         -50      14.8028 -0.000227814 -5.01771e-05      7.66497 
         -50       14.921  -0.00022734 -5.08067e-05       7.6646 
         -50      15.0396 -0.000226909 -5.14406e-05      7.66422 
         -50      15.1588 -0.000226528 -5.20557e-05      7.66384 
         -50      15.2783 -0.000226204 -5.26277e-05      7.66346 
         -50      15.3984 -0.000225939 -5.31378e-05      7.66307 
         -50       15.519 -0.000225731 -5.35716e-05      7.66268 
         -50        15.64 -0.000225574 -5.39241e-05      7.66229 
         -50      15.7615 -0.000225458 -5.42034e-05      7.66189 
         -50      15.8834 -0.000225366 -5.44325e-05      7.66149 
         -50      16.0058 -0.000225277 -5.46551e-05      7.66108 
         -50      16.1286 -0.000225166 -5.49387e-05      7.66067 
         -50       16.252 -0.000225001 -5.53811e-05      7.66026 
         -50      16.3759 -0.000224747 -5.61142e-05      7.65984 
         -50      16.5002 -0.000224362 -5.73095e-05      7.65942 
         -50       16.625 -0.000223802 -5.91885e-05      7.65899 
         -50      16.7501 -0.000223756 -6.01805e-05      7.65856 
         -50      16.8759 -0.000224239 -5.96884e-05      7.65813 
         -50       17.002 -0.000224422 -5.96118e-05      7.65769 
         -50      17.1287   -0.0002244 -5.98037e-05      7.65725 
         -50      17.2557 -0.000224244 -6.01495e-05       7.6568 
         -50      17.3834 -0.000224004 -6.05642e-05      7.65635 
         -50      17.5115 -0.000223716 -6.09876e-05      7.65589 
         -50      17.6399 -0.000223402 -6.13805e-05      7.65543 
         -50       17.769 -0.000223074 -6.17232e-05      7.65497 
         -50      17.8984 -0.000222735 -6.20093e-05       7.6545 
         -50      18.0284 -0.000222381 -6.22447e-05      7.65403 
         -50      18.1587 -0.000222007  -6.2443e-05      7.65355 
         -50      18.2896 -0.000221605 -6.26235e-05      7.65307 
         -50       18.421 -0.000221165 -6.28077e-05      7.65258 
         -50      18.5528 -0.000220684  -6.3017e-05      7.65209 
         -50      18.6851 -0.000220156 -6.32709e-05       7.6516 
         -50      18.8178 -0.000219583 -6.35837e-05       7.6511 
         -50      18.9511  -0.00021897 -6.39648e-05       7.6506 
         -50      19.0847 -0.000218328 -6.44143e-05      7.65009 
         -50      19.2189 -0.000217672 -6.49255e-05      7.64958 
         -50      19.3535 -0.000217022 -6.54803e-05      7.64906 
         -50      19.4886 -0.000216402 -6.60529e-05      7.64854 
         -50      19.6242 -0.000215838 -6.66062e-05      7.64802 
         -50      19.7602 -0.000215358 -6.70947e-05      7.64749 
         -50      19.8968 -0.000214988 -6.74655e-05      7.64695 
         -50      20.0337  -0.00021475 -6.76587e-05      7.64642 
         -50      20.1712 -0.000214656 -6.76109e-05      7.64587 
         -50      20.3091 -0.000214577 -6.74829e-05      7.64533 
         -50      20.4475 -0.000214039 -6.80302e-05      7.64478 
         -50      20.5864 -0.000213372 -6.86829e-05      7.64422 
         -50      20.7257  -0.00021255 -6.94742e-05      7.64366 
         -50      20.8655 -0.000211566 -7.04321e-05      7.64309 
         -50      21.0058 -0.000210443 -7.15717e-05      7.64252 
         -50      21.1465 -0.000209236 -7.28992e-05      7.64195 
         -50      21.2877 -0.000208004 -7.25213e-05      7.64137 
         -50      21.4294 -0.000208341 -7.08806e-05      7.64079 
         -50      21.5716  -0.00021003 -7.06359e-05       7.6402 
         -50      21.7142 -0.000212224 -7.15627e-05      7.63961 
         -50      21.8573 -0.000214323 -7.34081e-05      7.63901 
         -50      22.0008 -0.000214845 -7.51371e-05      7.63841 
         -50      22.1449 -0.000213099 -7.52379e-05      7.63781 
         -50      22.2893 -0.000211701 -7.51503e-05       7.6372 
         -50      22.4344 -0.000210602 -7.49964e-05      7.63658 
         -50      22.5797 -0.000209751 -7.48674e-05      7.63596 
         -50      22.7257 -0.000209092 -7.48257e-05      7.63534 
         -50      22.8721 -0.000208569 -7.49083e-05      7.63471 
         -50      23.0189 -0.000208137  -7.5129e-05      7.63408 
         -50      23.1663 -0.000207751 -7.54824e-05      7.63344 
         -50       23.314 -0.000207382 -7.59465e-05       7.6328 
         -50      23.4623 -0.000207006 -7.64877e-05      7.63215 
         -50       23.611 -0.000206614 -7.70627e-05       7.6315 
         -50      23.7602 -0.000206203 -7.76253e-05      7.63085 
         -50        23.91  -0.00020578  -7.8128e-05      7.63019 
         -50        24.06 -0.000205358 -7.85284e-05      7.62952 
         -50      24.2107 -0.000204951 -7.87947e-05      7.62886 
         -50      24.3617 -0.000204571 -7.89092e-05      7.62818 
         -50      24.5133 -0.000204217 -7.88753e-05       7.6275 
         -50      24.6653 -0.000203878 -7.87226e-05      7.62682 
         -50      24.8178  -0.00020351 -7.85134e-05      7.62613 
         -50      24.9708  -0.00020304 -7.83493e-05      7.62544 
         -50      25.1242 -0.000202344 -7.83778e-05      7.62475 
         -50      25.2781 -0.000201239 -7.87997e-05      7.62405 
         -50      25.4324 -0.000199469 -7.98754e-05      7.62334 
         -50      25.5873 -0.000200035   -7.919e-05      7.62263 
         -50      25.7426  -0.00020037 -7.92571e-05      7.62192 
         -50      25.8984 -0.000200288  -7.9852e-05       7.6212 
         -50      26.0546 -0.000199891  -8.0608e-05      7.62048 
         -50      26.2114 -0.000199275 -8.12785e-05      7.61975 
         -50      26.3686 -0.000198512 -8.17278e-05      7.61901 
         -50      26.5262 -0.000197648 -8.19231e-05      7.61828 
         -50      26.6844 -0.000196705 -8.19161e-05      7.61754 
         -50      26.8429   -0.0001957 -8.18178e-05      7.61679 
         -50       27.002 -0.000194667 -8.17672e-05      7.61604 
         -50      27.1615 -0.000193701 -8.18915e-05      7.61529 
         -50      27.3216 -0.000193001 -8.22589e-05      7.61453 
         -50      27.4821 -0.000192944 -8.28211e-05      7.61376 
         -50       27.643 -0.000192895 -8.32531e-05        7.613 
         -50      27.8044 -0.000192457 -8.36618e-05      7.61222 
         -50      27.9663 -0.000192046 -8.41214e-05      7.61145 
         -50      28.1287 -0.000191648 -8.46035e-05      7.61067 
         -50      28.2914 -0.000191254 -8.50842e-05      7.60988 
         -50      28.4548 -0.000190859 -8.55459e-05      7.60909 
         -50      28.6185 -0.000190458 -8.59748e-05       7.6083 
         -50      28.7828 -0.000190047 -8.63621e-05       7.6075 
         -50      28.9475 -0.000189625 -8.67021e-05      7.60669 
         -50      29.1126 -0.000189193 -8.69922e-05      7.60589 
         -50      29.2784  -0.00018875 -8.72331e-05      7.60508 
         -50      29.4444 -0.000188299 -8.74269e-05      7.60426 
         -50       29.611 -0.000187841 -8.75783e-05      7.60344 
         -50       29.778 -0.000187379 -8.76925e-05      7.60261 
         -50      29.9456 -0.000186914 -8.77763e-05      7.60179 
         -50      30.1137 -0.000186449 -8.78366e-05      7.60095 
         -50      30.2821 -0.000185986 -8.78807e-05      7.60012 
         -50      30.4511 -0.000185526 -8.79157e-05      7.59927 
         -50      30.6204 -0.000185071 -8.79483e-05      7.59843 
         -50      30.7903  -0.00018462 -8.79844e-05      7.59758 
         -50      30.9606 -0.000184175 -8.80292e-05      7.59672 
         -50      31.1315 -0.000183733 -8.80866e-05      7.59587 
         -50      31.3028 -0.000183294 -8.81595e-05        7.595 
         -50      31.4745 -0.000182855 -8.82493e-05      7.59414 
         -50      31.6468 -0.000182413 -8.83561e-05      7.59327 
         -50      31.8194 -0.000181966 -8.84786e-05      7.59239 
         -50      31.9926 -0.000181509 -8.86143e-05      7.59151 
         -50      32.1662  -0.00018104 -8.87592e-05      7.59063 
         -50      32.3404 -0.000180554 -8.89089e-05      7.58974 
         -50      32.5149 -0.000180047 -8.90576e-05      7.58885 
         -50        32.69 -0.000179517 -8.91993e-05      7.58795 
         -50      32.8655 -0.000178962 -8.93279e-05      7.58706 
         -50      33.0414 -0.000178381 -8.94374e-05      7.58615 
         -50       33.218 -0.000177774 -8.95231e-05      7.58525 
         -50      33.3948 -0.000177147 -8.95813e-05      7.58433 
         -50      33.5723 -0.000176504 -8.96107e-05      7.58342 
         -50        33.75 -0.000175855 -8.96128e-05       7.5825 
         -50      33.9284 -0.000175214 -8.95929e-05      7.58158 
         -50      34.1073 -0.000174598  -8.9561e-05      7.58065 
         -50      34.2865 -0.000174033 -8.95331e-05      7.57972 
         -50      34.4663 -0.000173548 -8.95317e-05      7.57879 
         -50      34.6465 -0.000173182  -8.9588e-05      7.57785 
         -50      34.8272  -0.00017298 -8.97425e-05      7.57691 
         -50      35.0083 -0.000172365 -8.99558e-05      7.57596 
         -50        35.19 -0.000171149 -9.00792e-05      7.57501 
         -50      35.3721 -0.000169655 -9.01077e-05      7.57406 
         -50      35.5546 -0.000168174 -9.01977e-05       7.5731 
         -50      35.7377 -0.000168326 -9.10842e-05      7.57214 
         -50      35.9211 -0.000168486 -9.19101e-05      7.57118 
         -50      36.1052 -0.000168673   -9.269e-05      7.57021 
         -50      36.2895   -0.0001689 -9.34339e-05      7.56924 
         -50      36.4745 -0.000169174 -9.41524e-05      7.56826 
         -50      36.6598 -0.000169497 -9.48517e-05      7.56729 
         -50      36.8457 -0.000169798 -9.54857e-05       7.5663 
         -50      37.0321 -0.000168917 -9.51988e-05      7.56532 
         -50      37.2188 -0.000168009 -9.48983e-05      7.56433 
         -50      37.4062 -0.000167087 -9.45891e-05      7.56334 
         -50      37.5938 -0.000166163  -9.4277e-05      7.56234 
         -50      37.7821 -0.000165247  -9.3967e-05      7.56134 
         -50      37.9707  -0.00016435 -9.36653e-05      7.56034 
         -50      38.1599 -0.000163479 -9.33766e-05      7.55933 
         -50      38.3496 -0.000162642 -9.31062e-05      7.55832 
         -50      38.5396 -0.000161845 -9.28588e-05      7.55731 
         -50      38.7302 -0.000161091 -9.26382e-05      7.55629 
         -50      38.9211 -0.000160385  -9.2448e-05      7.55528 
         -50      39.1127 -0.000159726 -9.22906e-05      7.55425 
         -50      39.3046 -0.000159116 -9.21682e-05      7.55323 
         -50      39.4971 -0.000158553 -9.20815e-05       7.5522 
         -50      39.6899 -0.000158034 -9.20309e-05      7.55117 
         -50      39.8833 -0.000157557 -9.20157e-05      7.55013 
         -50      40.0772 -0.000157115 -9.20344e-05       7.5491 
         -50      40.2714 -0.000156703 -9.20845e-05      7.54805 
         -50      40.4663 -0.000156315  -9.2163e-05      7.54701 
         -50      40.6615 -0.000155942  -9.2266e-05      7.54596 
         -50      40.8573 -0.000155577 -9.23892e-05      7.54491 
         -50      41.0534 -0.000155212 -9.25276e-05      7.54386 
         -50      41.2501 -0.000154838 -9.26762e-05      7.54281 
         -50      41.4473 -0.000154447 -9.28297e-05      7.54175 
         -50      41.6448 -0.000154032 -9.29826e-05      7.54069 
         -50      41.8429 -0.000153585 -9.31304e-05      7.53962 
         -50      42.0414 -0.000153103 -9.32685e-05      7.53856 
         -50      42.2405 -0.000152578 -9.33937e-05      7.53749 
         -50      42.4399 -0.000152012 -9.35038e-05      7.53641 
         -50      42.6399 -0.000151404 -9.35982e-05      7.53534 
         -50      42.8404 -0.000150756 -9.36785e-05      7.53426 
         -50      43.0412 -0.000150078 -9.37484e-05      7.53318 
         -50      43.2426 -0.000149379 -9.38151e-05       7.5321 
         -50      43.4444 -0.000148675 -9.38888e-05      7.53101 
         -50      43.6467 -0.000147988 -9.39842e-05      7.52992 
         -50      43.8494 -0.000147345   -9.412e-05      7.52883 
         -50      44.0527  -0.00014678 -9.43211e-05      7.52774 
         -50      44.2563 -0.000146338 -9.46082e-05      7.52665 
         -50      44.4606 -0.000146135 -9.45716e-05      7.52555 
         -50      44.6653 -0.000145842 -9.45723e-05      7.52445 
         -50      44.8704 -0.000145457 -9.45857e-05      7.52334 
         -50       45.076 -0.000144984 -9.45938e-05      7.52224 
         -50       45.282 -0.000144435 -9.45843e-05      7.52113 
         -50      45.4886 -0.000143822  -9.4551e-05      7.52002 
         -50      45.6955 -0.000143168 -9.44933e-05      7.51891 
         -50       45.903 -0.000142496 -9.44156e-05       7.5178 
         -50      46.1111 -0.000141838 -9.43276e-05      7.51668 
         -50      46.3194 -0.000141228 -9.42434e-05      7.51556 
         -50      46.5283 -0.000140703 -9.41813e-05      7.51444 
         -50      46.7376 -0.000140304 -9.41632e-05      7.51332 
         -50      46.9475 -0.000140075 -9.42142e-05       7.5122 
         -50      47.1577 -0.000140062  -9.4362e-05      7.51107 
         -50      47.3685 -0.000139958 -9.44084e-05      7.50994 
         -50      47.5798 -0.000139344 -9.41794e-05      7.50881 
         -50      47.7914 -0.000138729 -9.40276e-05      7.50768 
         -50      48.0037 -0.000138123 -9.39344e-05      7.50655 