Variables = x, y, u, v, p

Zone, I=800, F=POINT
        1000            0           -0           -0     0.110252 
        1000     0.000234 -5.74985e-06 -7.31987e-11     0.110252 
        1000     0.000939 -2.13342e-05 -9.15415e-10     0.110252 
        1000     0.002113 -4.19543e-05 -4.37742e-09     0.110252 
        1000     0.003759 -6.11529e-05 -1.35226e-08     0.110252 
        1000     0.005872 -7.23925e-05 -3.25049e-08     0.110252 
        1000     0.008457 -7.10046e-05 -6.66047e-08     0.110252 
        1000      0.01151 -5.53412e-05 -1.21959e-07     0.110252 
        1000     0.015036 -2.71471e-05 -2.05684e-07     0.110252 
        1000     0.019031  9.11343e-06 -3.25407e-07     0.110252 
        1000     0.023493  4.80741e-05 -4.89259e-07     0.110252 
        1000     0.028429  8.57976e-05 -7.06095e-07     0.110252 
        1000     0.033831  0.000121498 -9.84325e-07     0.110252 
        1000     0.039706  0.000158351 -1.33305e-06     0.110252 
        1000     0.046047   0.00020169 -1.76038e-06     0.110252 
        1000     0.052863  0.000255343 -2.27508e-06     0.110252 
        1000      0.06015  0.000316834 -2.88448e-06     0.110252 
        1000       0.0679   0.00037645 -3.59463e-06     0.110252 
        1000     0.076126  0.000428961 -4.41258e-06     0.110252 
        1000     0.084816  0.000502194 -5.34193e-06     0.110252 
        1000     0.093982  0.000567862 -6.38745e-06     0.110252 
        1000     0.103611  0.000638402 -7.54987e-06     0.110252 
        1000     0.113718  0.000712567 -8.83185e-06     0.110252 
        1000     0.124286  0.000789132 -1.02305e-05     0.110252 
        1000     0.135333  0.000867411 -1.17461e-05     0.110252 
        1000      0.14685  0.000946796 -1.33737e-05     0.110252 
        1000     0.158827   0.00102688 -1.51065e-05     0.110252 
        1000     0.171284   0.00110752 -1.69409e-05     0.110252 
        1000     0.184201   0.00118827 -1.88659e-05     0.110252 
        1000     0.197599   0.00126874 -2.08756e-05     0.110252 
        1000     0.211455   0.00134808 -2.29563e-05     0.110252 
        1000     0.225792   0.00142565 -2.51003e-05     0.110252 
        1000       0.2406   0.00150115  -2.7294e-05     0.110252 
        1000     0.255865   0.00157483 -2.95226e-05     0.110252 
        1000     0.271613   0.00164534  -3.1778e-05     0.110252 
        1000     0.287818    0.0017127 -3.40433e-05     0.110252 
        1000     0.304506   0.00177668  -3.6309e-05     0.110252 
        1000      0.32165   0.00183687 -3.85586e-05     0.110252 
        1000     0.339278   0.00189316 -4.07836e-05     0.110252 
        1000     0.357377   0.00194529 -4.29707e-05     0.110252 
        1000      0.37593   0.00199311 -4.51076e-05     0.110252 
        1000     0.394968   0.00203664 -4.71881e-05     0.110253 
        1000     0.414461   0.00207577 -4.92005e-05     0.110253 
        1000      0.43444   0.00211062 -5.11404e-05     0.110253 
        1000     0.454872   0.00214119 -5.29981e-05     0.110253 
        1000     0.475791   0.00216766 -5.47716e-05     0.110253 
        1000     0.497163   0.00219012 -5.64538e-05     0.110253 
        1000     0.519021   0.00220878 -5.80447e-05     0.110253 
        1000      0.54135    0.0022238 -5.95416e-05     0.110253 
        1000     0.564131    0.0022354 -6.09443e-05     0.110253 
        1000       0.5874   0.00224383 -6.22581e-05     0.110253 
        1000     0.611121   0.00224933 -6.34873e-05     0.110253 
        1000      0.63533   0.00225208 -6.46304e-05     0.110253 
        1000      0.65999   0.00225234 -6.56854e-05     0.110254 
        1000     0.685139   0.00225032 -6.66631e-05     0.110254 
        1000     0.710759   0.00224621 -6.75718e-05     0.110254 
        1000     0.736828   0.00224019 -6.84199e-05     0.110254 
        1000     0.763387    0.0022324 -6.92179e-05     0.110254 
        1000     0.790396   0.00222298 -6.99736e-05     0.110254 
        1000     0.817896   0.00221201  -7.0697e-05     0.110254 
        1000     0.845843   0.00219959 -7.13959e-05     0.110254 
        1000     0.874283   0.00218575   -7.208e-05     0.110254 
        1000      0.90317   0.00217052 -7.27567e-05     0.110254 
        1000     0.932551   0.00215389 -7.34354e-05     0.110255 
        1000     0.962401   0.00213587 -7.41236e-05     0.110255 
        1000     0.992697   0.00211643 -7.48288e-05     0.110255 
        1000      1.02349   0.00209552 -7.55597e-05     0.110255 
        1000      1.05472   0.00207312 -7.63227e-05     0.110255 
        1000      1.08645   0.00204915 -7.71259e-05     0.110255 
        1000      1.11863   0.00202362 -7.79747e-05     0.110255 
        1000       1.1513   0.00199647 -7.88764e-05     0.110255 
        1000      1.18444    0.0019677 -7.98355e-05     0.110255 
        1000      1.21802   0.00193735 -8.08549e-05     0.110255 
        1000      1.25211   0.00190542 -8.19387e-05     0.110255 
        1000      1.28663   0.00187201 -8.30854e-05     0.110255 
        1000      1.32165   0.00183717 -8.42945e-05     0.110255 
        1000      1.35712   0.00180107 -8.55581e-05     0.110254 
        1000      1.39308    0.0017638 -8.68677e-05     0.110254 
        1000      1.42951   0.00172553 -8.82064e-05     0.110254 
        1000      1.46638   0.00168644 -8.95498e-05     0.110254 
        1000      1.50375   0.00164662 -9.08678e-05     0.110253 
        1000      1.54156    0.0016057 -9.22847e-05     0.110253 
        1000      1.57987   0.00156494  -9.3728e-05     0.110253 
        1000      1.61863   0.00152448 -9.51751e-05     0.110252 
        1000      1.65788   0.00148423 -9.66175e-05     0.110252 
        1000      1.69757   0.00144426 -9.80434e-05     0.110251 
        1000      1.73776   0.00140447 -9.94467e-05     0.110251 
        1000      1.77842   0.00136489 -0.000100819      0.11025 
        1000      1.81952   0.00132551 -0.000102152      0.11025 
        1000      1.86113   0.00128624 -0.000103444     0.110249 
        1000      1.90316   0.00124711 -0.000104688     0.110248 
        1000      1.94571   0.00120801 -0.000105882     0.110247 
        1000      1.98869   0.00116898 -0.000107022     0.110246 
        1000      2.03217   0.00112991 -0.000108109     0.110245 
        1000      2.07612   0.00109078  -0.00010914     0.110244 
        1000      2.12051   0.00105159 -0.000110115     0.110243 
        1000       2.1654   0.00101222 -0.000111036     0.110242 
        1000      2.21073    0.0009727 -0.000111901     0.110241 
        1000      2.25656  0.000932923 -0.000112714     0.110239 
        1000      2.30283  0.000892916 -0.000113474     0.110238 
        1000       2.3496   0.00085258 -0.000114184     0.110236 
        1000      2.39685  0.000811915 -0.000114844     0.110234 
        1000      2.44452  0.000770932 -0.000115455     0.110233 
        1000      2.49271  0.000729546 -0.000116019     0.110231 
        1000      2.54132  0.000687809 -0.000116535     0.110229 
        1000      2.59044  0.000645651 -0.000117004     0.110227 
        1000         2.64  0.000603144 -0.000117423     0.110225 
        1000      2.69006  0.000560232 -0.000117793     0.110222 
        1000      2.74056  0.000517006 -0.000118111      0.11022 
        1000      2.79156  0.000473428 -0.000118373     0.110218 
        1000      2.84304  0.000429575 -0.000118577     0.110215 
        1000      2.89494  0.000385533 -0.000118717     0.110213 
        1000      2.94735   0.00034129  -0.00011879      0.11021 
        1000       3.0002  0.000296989 -0.000118791     0.110207 
        1000      3.05355  0.000252637 -0.000118714     0.110204 
        1000      3.10733  0.000208388 -0.000118556     0.110201 
        1000      3.16163  0.000164261 -0.000118313     0.110198 
        1000      3.21639  0.000120387 -0.000117982     0.110194 
        1000      3.27158  7.68926e-05 -0.000117565     0.110191 
        1000      3.32729  3.38021e-05 -0.000117064     0.110187 
        1000      3.38342 -8.73028e-06 -0.000116486     0.110184 
        1000      3.44007 -5.06946e-05 -0.000115842      0.11018 
        1000      3.49714 -9.19632e-05 -0.000115152     0.110176 
        1000      3.55472  -0.00013256 -0.000114441     0.110172 
        1000      3.61273 -0.000172409 -0.000113745     0.110168 
        1000      3.67125 -0.000211591 -0.000113109     0.110164 
        1000      3.73025 -0.000250142 -0.000112595      0.11016 
        1000      3.78967 -0.000289202 -0.000111651     0.110156 
        1000      3.84961 -0.000327656 -0.000110412     0.110152 
        1000      3.90996  -0.00036475 -0.000109149     0.110147 
        1000      3.97084 -0.000400523 -0.000107857     0.110143 
        1000      4.03214 -0.000434902 -0.000106536     0.110138 
        1000      4.09395 -0.000467922 -0.000105181     0.110133 
        1000      4.15624 -0.000499546 -0.000103792     0.110128 
        1000      4.21895 -0.000529741 -0.000102368     0.110124 
        1000      4.28217 -0.000558547 -0.000100905     0.110119 
        1000      4.34582 -0.000585916 -9.94052e-05     0.110114 
        1000      4.40998 -0.000611891  -9.7865e-05     0.110109 
        1000      4.47457 -0.000636433 -9.62866e-05     0.110104 
        1000      4.53968 -0.000659587 -9.46672e-05     0.110099 
        1000      4.60525 -0.000681341 -9.30084e-05     0.110093 
        1000      4.67125 -0.000701692 -9.13118e-05     0.110088 
        1000      4.73777 -0.000720686 -8.95755e-05     0.110083 
        1000       4.8047 -0.000738309 -8.78033e-05     0.110078 
        1000      4.87216 -0.000754611 -8.59934e-05     0.110072 
        1000      4.94003 -0.000769586 -8.41501e-05     0.110067 
        1000      5.00843 -0.000783286 -8.22723e-05     0.110062 
        1000      5.07724 -0.000795714 -8.03648e-05     0.110056 
        1000      5.14658 -0.000806922 -7.84265e-05     0.110051 
        1000      5.21639  -0.00081693 -7.64612e-05     0.110045 
        1000      5.28661 -0.000825766 -7.44728e-05      0.11004 
        1000      5.35736 -0.000833482 -7.24608e-05     0.110034 
        1000      5.42852 -0.000840102  -7.0431e-05     0.110029 
        1000      5.50021 -0.000845677 -6.83828e-05     0.110023 
        1000      5.57231  -0.00085024 -6.63223e-05     0.110018 
        1000      5.64493 -0.000853839  -6.4249e-05     0.110012 
        1000      5.71803 -0.000856516 -6.21675e-05     0.110007 
        1000      5.79154 -0.000858314 -6.00822e-05     0.110001 
        1000      5.86558 -0.000859281 -5.79928e-05     0.109996 
        1000      5.94003 -0.000859461 -5.59053e-05      0.10999 
        1000      6.01501 -0.000858902  -5.3819e-05     0.109985 
        1000       6.0904 -0.000857652 -5.17401e-05      0.10998 
        1000      6.16632 -0.000855754 -4.96675e-05     0.109974 
        1000      6.24271 -0.000853257 -4.76053e-05     0.109969 
        1000       6.3195 -0.000850208 -4.55574e-05     0.109963 
        1000      6.39683 -0.000846648 -4.35225e-05     0.109958 
        1000      6.47457 -0.000842628 -4.15054e-05     0.109953 
        1000      6.55284 -0.000838184 -3.95047e-05     0.109947 
        1000      6.63152 -0.000833365 -3.75246e-05     0.109942 
        1000      6.71073 -0.000828205 -3.55632e-05     0.109937 
        1000      6.79034 -0.000822751 -3.36241e-05     0.109931 
        1000      6.87049 -0.000817031 -3.17048e-05     0.109926 
        1000      6.95111 -0.000811084 -2.98068e-05     0.109921 
        1000      7.03214 -0.000804948 -2.79316e-05     0.109916 
        1000       7.1137 -0.000798645 -2.60756e-05     0.109911 
        1000      7.19566 -0.000792213  -2.4241e-05     0.109905 
        1000      7.27816 -0.000785667 -2.24237e-05       0.1099 
        1000      7.36106 -0.000779041 -2.06253e-05     0.109895 
        1000      7.44451 -0.000772389 -1.88052e-05      0.10989 
        1000      7.52842 -0.000765706 -1.69918e-05     0.109885 
        1000      7.61273 -0.000759004 -1.51925e-05      0.10988 
        1000      7.69758 -0.000752285 -1.34038e-05     0.109875 
        1000      7.78283 -0.000745569 -1.16278e-05      0.10987 
        1000      7.86862 -0.000738851 -9.86088e-06     0.109865 
        1000      7.95481 -0.000732146 -8.10498e-06     0.109861 
        1000      8.04155 -0.000725444 -6.35638e-06     0.109856 
        1000      8.12868 -0.000718753   -4.617e-06     0.109851 
        1000      8.21635 -0.000712058 -2.88327e-06     0.109846 
        1000      8.30449 -0.000705357 -1.15594e-06     0.109841 
        1000      8.39303 -0.000698646  5.64029e-07     0.109837 
        1000      8.48211 -0.000691904  2.27949e-06     0.109832 
        1000      8.57159 -0.000685129  3.98745e-06     0.109827 
        1000      8.66161 -0.000678296  5.68988e-06     0.109823 
        1000      8.75203 -0.000671404  7.38266e-06     0.109818 
        1000      8.84299 -0.000664426  9.06643e-06     0.109814 
        1000      8.93443 -0.000657811  1.05694e-05     0.109809 
        1000      9.02626 -0.000651262  1.20641e-05     0.109805 
        1000      9.11863 -0.000644741   1.3563e-05       0.1098 
        1000      9.21139 -0.000638262   1.5061e-05     0.109796 
        1000      9.30471 -0.000631814  1.65581e-05     0.109792 
        1000      9.39841  -0.00062541  1.80497e-05     0.109787 
        1000      9.49267 -0.000619041  1.95365e-05     0.109783 
        1000      9.58739 -0.000612713  2.10159e-05     0.109779 
        1000      9.68251 -0.000606433  2.24858e-05     0.109774 
        1000      9.77817  -0.00060019  2.39477e-05      0.10977 
        1000      9.87422 -0.000593996  2.53991e-05     0.109766 
        1000      9.97083 -0.000587841  2.68423e-05     0.109762 
        1000      10.0678 -0.000581736  2.82755e-05     0.109758 
        1000      10.1654 -0.000575672  2.97018e-05     0.109754 
        1000      10.2633 -0.000569658  3.11201e-05      0.10975 
        1000      10.3618 -0.000563685  3.25344e-05     0.109746 
        1000      10.4607 -0.000557789  3.38809e-05     0.109742 
        1000      10.5601 -0.000551972  3.51569e-05     0.109738 
        1000        10.66 -0.000546192  3.64211e-05     0.109734 
        1000      10.7603  -0.00054046  3.76711e-05      0.10973 
        1000      10.8611 -0.000534767  3.89085e-05     0.109727 
        1000      10.9623 -0.000529122  4.01309e-05     0.109723 
        1000      11.0641 -0.000523516    4.134e-05     0.109719 
        1000      11.1663 -0.000517954  4.25347e-05     0.109716 
        1000       11.269 -0.000512441  4.37137e-05     0.109712 
        1000      11.3721 -0.000506968  4.48788e-05     0.109708 
        1000      11.4757 -0.000501544   4.6028e-05     0.109705 
        1000      11.5798  -0.00049616  4.71633e-05     0.109701 
        1000      11.6844 -0.000490826  4.82826e-05     0.109698 
        1000      11.7894 -0.000485533  4.93877e-05     0.109694 
        1000       11.895 -0.000480285  5.04779e-05     0.109691 
        1000      12.0009 -0.000475088  5.15522e-05     0.109687 
        1000      12.1073 -0.000469932  5.26123e-05     0.109684 
        1000      12.2142 -0.000464827  5.36565e-05     0.109681 
        1000      12.3216 -0.000459765  5.46866e-05     0.109677 
        1000      12.4294 -0.000454754  5.57007e-05     0.109674 
        1000      12.5378 -0.000449785  5.67004e-05     0.109671 
        1000      12.6465 -0.000444869   5.7684e-05     0.109668 
        1000      12.7558 -0.000439996  5.86529e-05     0.109665 
        1000      12.8656 -0.000435171  5.96059e-05     0.109662 
        1000      12.9757 -0.000430398   6.0542e-05     0.109659 
        1000      13.0864 -0.000425671  6.14621e-05     0.109655 
        1000      13.1975 -0.000420996  6.23643e-05     0.109653 
        1000      13.3092 -0.000416366  6.32494e-05      0.10965 
        1000      13.4212  -0.00041179   6.4115e-05     0.109647 
        1000      13.5338 -0.000407261  6.49616e-05     0.109644 
        1000      13.6468 -0.000402781  6.57873e-05     0.109641 
        1000      13.7603 -0.000398356  6.65902e-05     0.109638 
        1000      13.8743 -0.000393977    6.737e-05     0.109635 
        1000      13.9886 -0.000389653  6.81238e-05     0.109633 
        1000      14.1036 -0.000385377  6.88507e-05      0.10963 
        1000      14.2189 -0.000381154  6.95474e-05     0.109627 
        1000      14.3348  -0.00037698  7.02125e-05     0.109625 
        1000       14.451 -0.000372859  7.08422e-05     0.109622 
        1000      14.5678 -0.000368786  7.14344e-05     0.109619 
        1000      14.6851 -0.000364764  7.19852e-05     0.109617 
        1000      14.8028 -0.000360746  7.25821e-05     0.109614 
        1000       14.921 -0.000356656  7.33679e-05     0.109612 
        1000      15.0396 -0.000352639  7.40864e-05      0.10961 
        1000      15.1588 -0.000348683  7.47493e-05     0.109607 
        1000      15.2783 -0.000344787   7.5365e-05     0.109605 
        1000      15.3984 -0.000340942  7.59425e-05     0.109602 
        1000       15.519 -0.000337147  7.64885e-05       0.1096 
        1000        15.64   -0.0003334  7.70086e-05     0.109598 
        1000      15.7615 -0.000329695  7.75088e-05     0.109596 
        1000      15.8834 -0.000326035  7.79922e-05     0.109593 
        1000      16.0058 -0.000322413  7.84631e-05     0.109591 
        1000      16.1286 -0.000318834   7.8923e-05     0.109589 
        1000       16.252  -0.00031529  7.93746e-05     0.109587 
        1000      16.3759 -0.000311786  7.98185e-05     0.109585 
        1000      16.5002 -0.000308323  8.02549e-05     0.109583 
        1000       16.625 -0.000304895  8.06844e-05     0.109581 
        1000      16.7501 -0.000301509  8.11061e-05     0.109579 
        1000      16.8759 -0.000298159  8.15197e-05     0.109577 
        1000       17.002  -0.00029485  8.19235e-05     0.109575 
        1000      17.1287 -0.000291577  8.23169e-05     0.109573 
        1000      17.2557 -0.000288345  8.26977e-05     0.109572 
        1000      17.3834 -0.000285149  8.30651e-05      0.10957 
        1000      17.5115 -0.000281991  8.34173e-05     0.109568 
        1000      17.6399 -0.000278874  8.37525e-05     0.109566 
        1000       17.769 -0.000275792    8.407e-05     0.109565 
        1000      17.8984 -0.000272751  8.43683e-05     0.109563 
        1000      18.0284 -0.000269746   8.4647e-05     0.109561 
        1000      18.1587  -0.00026678  8.49053e-05      0.10956 
        1000      18.2896 -0.000263852  8.51436e-05     0.109558 
        1000       18.421 -0.000260962  8.53623e-05     0.109556 
        1000      18.5528 -0.000258116  8.55622e-05     0.109555 
        1000      18.6851 -0.000255311  8.57453e-05     0.109553 
        1000      18.8178 -0.000252554  8.59136e-05     0.109552 
        1000      18.9511 -0.000249845  8.60705e-05     0.109551 
        1000      19.0847 -0.000247193  8.62195e-05     0.109549 
        1000      19.2189 -0.000244601  8.63653e-05     0.109548 
        1000      19.3535 -0.000242083  8.65132e-05     0.109547 
        1000      19.4886 -0.000239644  8.66697e-05     0.109545 
        1000      19.6242 -0.000237136  8.68625e-05     0.109544 
        1000      19.7602 -0.000234502  8.70435e-05     0.109543 
        1000      19.8968  -0.00023191  8.71686e-05     0.109542 
        1000      20.0337  -0.00022937  8.72344e-05      0.10954 
        1000      20.1712 -0.000226773  8.72705e-05     0.109539 
        1000      20.3091 -0.000224257  8.73111e-05     0.109538 
        1000      20.4475 -0.000221814  8.73522e-05     0.109537 
        1000      20.5864 -0.000219439  8.73902e-05     0.109536 
        1000      20.7257 -0.000217125  8.74224e-05     0.109535 
        1000      20.8655  -0.00021486  8.74468e-05     0.109534 
        1000      21.0058 -0.000212644   8.7462e-05     0.109533 
        1000      21.1465 -0.000210466  8.74669e-05     0.109532 
        1000      21.2877 -0.000208327   8.7461e-05     0.109531 
        1000      21.4294 -0.000206218  8.74441e-05      0.10953 
        1000      21.5716 -0.000204139  8.74162e-05     0.109529 
        1000      21.7142 -0.000202089  8.73779e-05     0.109528 
        1000      21.8573 -0.000200063  8.73295e-05     0.109527 
        1000      22.0008 -0.000198063  8.72716e-05     0.109527 
        1000      22.1449 -0.000196084  8.72048e-05     0.109526 
        1000      22.2893 -0.000194129  8.71299e-05     0.109525 
        1000      22.4344 -0.000192194  8.70474e-05     0.109524 
        1000      22.5797 -0.000190283  8.69579e-05     0.109524 
        1000      22.7257 -0.000188392  8.68617e-05     0.109523 
        1000      22.8721 -0.000186523  8.67592e-05     0.109522 
        1000      23.0189 -0.000184678  8.66506e-05     0.109522 
        1000      23.1663 -0.000182855  8.65357e-05     0.109521 
        1000       23.314 -0.000181055  8.64143e-05     0.109521 
        1000      23.4623 -0.000179279  8.62861e-05      0.10952 
        1000       23.611 -0.000177527  8.61506e-05      0.10952 
        1000      23.7602 -0.000175798  8.60069e-05     0.109519 
        1000        23.91 -0.000174094  8.58544e-05     0.109519 
        1000        24.06 -0.000172415  8.56924e-05     0.109518 
        1000      24.2107 -0.000170761  8.55199e-05     0.109518 
        1000      24.3617 -0.000169134  8.53362e-05     0.109517 
        1000      24.5133  -0.00016753  8.51407e-05     0.109517 
        1000      24.6653 -0.000165955  8.49332e-05     0.109517 
        1000      24.8178 -0.000164405  8.47134e-05     0.109516 
        1000      24.9708 -0.000162882   8.4482e-05     0.109516 
        1000      25.1242  -0.00016139  8.42403e-05     0.109516 
        1000      25.2781 -0.000159926  8.39898e-05     0.109516 
        1000      25.4324 -0.000158495  8.37337e-05     0.109515 
        1000      25.5873 -0.000157098  8.34757e-05     0.109515 
        1000      25.7426 -0.000155739  8.32214e-05     0.109515 
        1000      25.8984 -0.000154421  8.29775e-05     0.109515 
        1000      26.0546  -0.00015315  8.27531e-05     0.109515 
        1000      26.2114 -0.000151819  8.24833e-05     0.109515 
        1000      26.3686 -0.000150443  8.21744e-05     0.109515 
        1000      26.5262 -0.000149107  8.18824e-05     0.109514 
        1000      26.6844 -0.000147806  8.16036e-05     0.109514 
        1000      26.8429 -0.000146538  8.13348e-05     0.109514 
        1000       27.002 -0.000145299   8.1071e-05     0.109515 
        1000      27.1615 -0.000144087  8.08072e-05     0.109515 
        1000      27.3216 -0.000142899  8.05368e-05     0.109515 
        1000      27.4821 -0.000141732  8.02535e-05     0.109515 
        1000       27.643 -0.000140586  7.99497e-05     0.109515 
        1000      27.8044 -0.000139453   7.9617e-05     0.109515 
        1000      27.9663 -0.000138334   7.9247e-05     0.109515 
        1000      28.1287  -0.00013722  7.88296e-05     0.109515 
        1000      28.2914 -0.000136112  7.83771e-05     0.109515 
        1000      28.4548 -0.000135041  7.81348e-05     0.109516 
        1000      28.6185 -0.000133979  7.78694e-05     0.109516 
        1000      28.7828 -0.000132929  7.75834e-05     0.109516 
        1000      28.9475 -0.000131894  7.72798e-05     0.109516 
        1000      29.1126 -0.000130875  7.69615e-05     0.109517 
        1000      29.2784 -0.000129873  7.66301e-05     0.109517 
        1000      29.4444  -0.00012889  7.62882e-05     0.109517 
        1000       29.611 -0.000127926  7.59371e-05     0.109518 
        1000       29.778 -0.000126981   7.5579e-05     0.109518 
        1000      29.9456 -0.000126055  7.52149e-05     0.109519 
        1000      30.1137 -0.000125149  7.48461e-05     0.109519 
        1000      30.2821 -0.000124262  7.44742e-05      0.10952 
        1000      30.4511 -0.000123394  7.40994e-05      0.10952 
        1000      30.6204 -0.000122544  7.37231e-05     0.109521 
        1000      30.7903 -0.000121712  7.33454e-05     0.109521 
        1000      30.9606 -0.000120897  7.29673e-05     0.109522 
        1000      31.1315 -0.000120098  7.25887e-05     0.109522 
        1000      31.3028 -0.000119315  7.22101e-05     0.109523 
        1000      31.4745 -0.000118547   7.1832e-05     0.109523 
        1000      31.6468 -0.000117792   7.1454e-05     0.109524 
        1000      31.8194 -0.000117052  7.10766e-05     0.109525 
        1000      31.9926 -0.000116324  7.06992e-05     0.109525 
        1000      32.1662  -0.00011561  7.03223e-05     0.109526 
        1000      32.3404 -0.000114906  6.99451e-05     0.109527 
        1000      32.5149 -0.000114215  6.95681e-05     0.109527 
        1000        32.69 -0.000113535  6.91904e-05     0.109528 
        1000      32.8655 -0.000112866  6.88122e-05     0.109529 
        1000      33.0414 -0.000112209  6.84334e-05      0.10953 
        1000       33.218 -0.000111562  6.80532e-05     0.109531 
        1000      33.3948 -0.000110928   6.7672e-05     0.109531 
        1000      33.5723 -0.000110304  6.72889e-05     0.109532 
        1000        33.75 -0.000109692  6.69043e-05     0.109533 
        1000      33.9284 -0.000109092  6.65174e-05     0.109534 
        1000      34.1073 -0.000108504  6.61282e-05     0.109535 
        1000      34.2865 -0.000107929  6.57371e-05     0.109536 
        1000      34.4663 -0.000107366  6.53432e-05     0.109537 
        1000      34.6465 -0.000106817  6.49471e-05     0.109538 
        1000      34.8272 -0.000106279  6.45482e-05     0.109539 
        1000      35.0083 -0.000105755  6.41471e-05      0.10954 
        1000        35.19 -0.000105243  6.37432e-05     0.109541 
        1000      35.3721 -0.000104742  6.33369e-05     0.109542 
        1000      35.5546 -0.000104252  6.29287e-05     0.109543 
        1000      35.7377 -0.000103771  6.25182e-05     0.109544 
        1000      35.9211 -0.000103297  6.21061e-05     0.109545 
        1000      36.1052 -0.000102826  6.16922e-05     0.109546 
        1000      36.2895 -0.000102476  6.12934e-05     0.109548 
        1000      36.4745 -0.000102128  6.08909e-05     0.109549 
        1000      36.6598 -0.000101768  6.04867e-05      0.10955 
        1000      36.8457 -0.000101394  6.00826e-05     0.109551 
        1000      37.0321 -0.000101005  5.96803e-05     0.109553 
        1000      37.2188 -0.000100602  5.92803e-05     0.109554 
        1000      37.4062 -0.000100185  5.88807e-05     0.109555 
        1000      37.5938 -9.97577e-05  5.84791e-05     0.109556 
        1000      37.7821 -9.93227e-05  5.80702e-05     0.109558 
        1000      37.9707 -9.88869e-05  5.76476e-05     0.109559 
        1000      38.1599 -9.83623e-05  5.72232e-05     0.109561 
        1000      38.3496 -9.79054e-05  5.67956e-05     0.109562 
        1000      38.5396 -9.75173e-05  5.63645e-05     0.109563 
        1000      38.7302 -9.71811e-05  5.59311e-05     0.109565 
        1000      38.9211 -9.68829e-05  5.54982e-05     0.109566 
        1000      39.1127 -9.66105e-05  5.50675e-05     0.109568 
        1000      39.3046 -9.63542e-05  5.46423e-05     0.109569 
        1000      39.4971  -9.6106e-05  5.42248e-05     0.109571 
        1000      39.6899 -9.58608e-05  5.38183e-05     0.109572 
        1000      39.8833 -9.56149e-05  5.34252e-05     0.109574 
        1000      40.0772 -9.53579e-05  5.30252e-05     0.109575 
        1000      40.2714 -9.50992e-05  5.26238e-05     0.109577 
        1000      40.4663 -9.48399e-05  5.22226e-05     0.109579 
        1000      40.6615 -9.45809e-05  5.18225e-05      0.10958 
        1000      40.8573  -9.4322e-05   5.1423e-05     0.109582 
        1000      41.0534 -9.40644e-05  5.10248e-05     0.109584 
        1000      41.2501 -9.38082e-05  5.06277e-05     0.109585 
        1000      41.4473 -9.35544e-05  5.02321e-05     0.109587 
        1000      41.6448  -9.3304e-05  4.98386e-05     0.109589 
        1000      41.8429 -9.30575e-05  4.94469e-05      0.10959 
        1000      42.0414  -9.2816e-05  4.90577e-05     0.109592 
        1000      42.2405 -9.25801e-05  4.86707e-05     0.109594 
        1000      42.4399 -9.23508e-05  4.82865e-05     0.109596 
        1000      42.6399 -9.21285e-05  4.79046e-05     0.109598 
        1000      42.8404  -9.1914e-05  4.75253e-05       0.1096 
        1000      43.0412 -9.17081e-05  4.71489e-05     0.109602 
        1000      43.2426 -9.15108e-05  4.67745e-05     0.109603 
        1000      43.4444 -9.13229e-05  4.64027e-05     0.109605 
        1000      43.6467 -9.11442e-05  4.60324e-05     0.109607 
        1000      43.8494 -9.09751e-05  4.56641e-05     0.109609 
        1000      44.0527 -9.08152e-05  4.52967e-05     0.109611 
        1000      44.2563 -9.06646e-05  4.49303e-05     0.109613 
        1000      44.4606 -9.05228e-05  4.45639e-05     0.109615 
        1000      44.6653 -9.03893e-05  4.41973e-05     0.109618 
        1000      44.8704 -9.02636e-05  4.38303e-05      0.10962 
        1000       45.076 -9.01449e-05  4.34619e-05     0.109622 
        1000       45.282 -9.00324e-05  4.30922e-05     0.109624 
        1000      45.4886  -8.9925e-05  4.27204e-05     0.109626 
        1000      45.6955 -8.98219e-05  4.23467e-05     0.109628 
        1000       45.903 -8.97218e-05  4.19706e-05      0.10963 
        1000      46.1111 -8.96237e-05  4.15923e-05     0.109633 
        1000      46.3194 -8.95266e-05  4.12126e-05     0.109635 
        1000      46.5283 -8.94291e-05  4.08315e-05     0.109637 
        1000      46.7376 -8.93305e-05  4.04504e-05      0.10964 
        1000      46.9475 -8.92296e-05    4.007e-05     0.109642 
        1000      47.1577 -8.91258e-05  3.96928e-05     0.109644 
        1000      47.3685 -8.90185e-05  3.93204e-05     0.109647 
        1000      47.5798 -8.89074e-05  3.89558e-05     0.109649 
        1000      47.7914 -8.87925e-05  3.86029e-05     0.109651 
        1000      48.0037 -8.86742e-05  3.82654e-05     0.109654 