Variables = x, y, u, v, p

Zone, I=800, F=POINT
          -5            0            0            0      22.1332 
          -5     0.000234 -8.66015e-07   -1.731e-10      22.1332 
          -5     0.000939 -3.32863e-06 -6.05551e-10      22.1332 
          -5     0.002113 -6.97047e-06 -1.04294e-09      22.1332 
          -5     0.003759 -1.12077e-05 -1.10705e-09      22.1332 
          -5     0.005872 -1.53739e-05 -3.47717e-10      22.1332 
          -5     0.008457 -1.88966e-05  1.70368e-09      22.1332 
          -5      0.01151 -2.13773e-05  5.48704e-09      22.1332 
          -5     0.015036 -2.26957e-05  1.14121e-08      22.1332 
          -5     0.019031 -2.30112e-05   1.9851e-08      22.1332 
          -5     0.023493 -2.27185e-05  3.11894e-08      22.1332 
          -5     0.028429 -2.23239e-05  4.59041e-08      22.1332 
          -5     0.033831 -2.22886e-05  6.45307e-08      22.1332 
          -5     0.039706  -2.2871e-05   8.7745e-08      22.1332 
          -5     0.046047 -2.40277e-05  1.16192e-07      22.1332 
          -5     0.052863 -2.54347e-05  1.50484e-07      22.1332 
          -5      0.06015 -2.66633e-05  1.90952e-07      22.1332 
          -5       0.0679 -2.75332e-05  2.37738e-07      22.1332 
          -5     0.076126 -2.85674e-05  2.91495e-07      22.1332 
          -5     0.084816 -3.08366e-05  3.54219e-07      22.1332 
          -5     0.093982 -3.21563e-05  4.22849e-07      22.1332 
          -5     0.103611 -3.38336e-05  4.98191e-07      22.1332 
          -5     0.113718 -3.57309e-05  5.82055e-07      22.1332 
          -5     0.124286 -3.77375e-05  6.74802e-07      22.1332 
          -5     0.135333 -3.97868e-05  7.76058e-07      22.1332 
          -5      0.14685  -4.1843e-05  8.84552e-07      22.1332 
          -5     0.158827  -4.3898e-05  9.98885e-07      22.1332 
          -5     0.171284 -4.59627e-05  1.11845e-06      22.1332 
          -5     0.184201 -4.80375e-05  1.24328e-06      22.1332 
          -5     0.197599 -5.01113e-05  1.37488e-06      22.1332 
          -5     0.211455 -5.21428e-05  1.51462e-06      22.1332 
          -5     0.225792 -5.40913e-05  1.66238e-06      22.1332 
          -5       0.2406 -5.59604e-05  1.81116e-06      22.1332 
          -5     0.255865 -5.78293e-05  1.95145e-06      22.1332 
          -5     0.271613  -5.9588e-05  2.10038e-06      22.1332 
          -5     0.287818 -6.12713e-05  2.25327e-06      22.1332 
          -5     0.304506 -6.28779e-05  2.40777e-06      22.1332 
          -5      0.32165 -6.44008e-05  2.56185e-06      22.1332 
          -5     0.339278 -6.58405e-05  2.71546e-06      22.1332 
          -5     0.357377 -6.71942e-05  2.86823e-06      22.1332 
          -5      0.37593 -6.84595e-05  3.01982e-06      22.1332 
          -5     0.394968 -6.96372e-05  3.17035e-06      22.1332 
          -5     0.414461 -7.07242e-05  3.31947e-06      22.1332 
          -5      0.43444 -7.17213e-05   3.4674e-06      22.1332 
          -5     0.454872 -7.26255e-05  3.61391e-06      22.1332 
          -5     0.475791  -7.3437e-05   3.7593e-06      22.1332 
          -5     0.497163 -7.41532e-05  3.90344e-06      22.1332 
          -5     0.519021 -7.47736e-05  4.04671e-06      22.1332 
          -5      0.54135 -7.52961e-05  4.18915e-06      22.1332 
          -5     0.564131 -7.57185e-05  4.33082e-06      22.1332 
          -5       0.5874 -7.60397e-05  4.47211e-06      22.1332 
          -5     0.611121 -7.62573e-05  4.61294e-06      22.1332 
          -5      0.63533 -7.63697e-05  4.75363e-06      22.1332 
          -5      0.65999  -7.6375e-05  4.89403e-06      22.1332 
          -5     0.685139 -7.62716e-05  5.03432e-06      22.1332 
          -5     0.710759 -7.60584e-05  5.17432e-06      22.1333 
          -5     0.736828 -7.57348e-05   5.3137e-06      22.1333 
          -5     0.763387 -7.53002e-05   5.4524e-06      22.1333 
          -5     0.790396 -7.47559e-05  5.58982e-06      22.1333 
          -5     0.817896 -7.41025e-05  5.72571e-06      22.1333 
          -5     0.845843 -7.33436e-05  5.85931e-06      22.1333 
          -5     0.874283 -7.24816e-05  5.99029e-06      22.1333 
          -5      0.90317 -7.15227e-05  6.11792e-06      22.1333 
          -5     0.932551 -7.04713e-05  6.24199e-06      22.1333 
          -5     0.962401 -6.93354e-05  6.36222e-06      22.1333 
          -5     0.992697 -6.81242e-05  6.47868e-06      22.1333 
          -5      1.02349 -6.68447e-05  6.59227e-06      22.1333 
          -5      1.05472 -6.55086e-05  6.70426e-06      22.1333 
          -5      1.08645 -6.41231e-05  6.81734e-06      22.1334 
          -5      1.11863 -6.26987e-05  6.93516e-06      22.1334 
          -5       1.1513 -6.12181e-05  7.05249e-06      22.1334 
          -5      1.18444 -5.96444e-05  7.12827e-06      22.1334 
          -5      1.21802 -5.80873e-05  7.20527e-06      22.1334 
          -5      1.25211  -5.6532e-05  7.28294e-06      22.1334 
          -5      1.28663 -5.49709e-05  7.36014e-06      22.1334 
          -5      1.32165  -5.3394e-05  7.43571e-06      22.1334 
          -5      1.35712 -5.17986e-05  7.50811e-06      22.1335 
          -5      1.39308 -5.01786e-05  7.57591e-06      22.1335 
          -5      1.42951 -4.85335e-05  7.63757e-06      22.1335 
          -5      1.46638 -4.68644e-05   7.6917e-06      22.1335 
          -5      1.50375  -4.5169e-05  7.73732e-06      22.1335 
          -5      1.54156 -4.34513e-05  7.77364e-06      22.1335 
          -5      1.57987   -4.171e-05  7.80055e-06      22.1335 
          -5      1.61863 -3.99492e-05  7.81845e-06      22.1336 
          -5      1.65788 -3.81673e-05  7.82856e-06      22.1336 
          -5      1.69757 -3.63676e-05   7.8329e-06      22.1336 
          -5      1.73776 -3.45472e-05  7.83445e-06      22.1336 
          -5      1.77842 -3.27065e-05  7.83719e-06      22.1336 
          -5      1.81952 -3.08677e-05  7.80936e-06      22.1337 
          -5      1.86113 -2.90391e-05  7.76712e-06      22.1337 
          -5      1.90316 -2.72282e-05  7.72026e-06      22.1337 
          -5      1.94571 -2.54322e-05   7.6757e-06      22.1337 
          -5      1.98869 -2.36448e-05  7.64058e-06      22.1337 
          -5      2.03217 -2.18393e-05  7.62119e-06      22.1338 
          -5      2.07612 -1.99729e-05  7.62191e-06      22.1338 
          -5      2.12051 -1.79958e-05  7.65466e-06      22.1338 
          -5       2.1654 -1.59741e-05  7.68867e-06      22.1338 
          -5      2.21073 -1.39229e-05  7.72254e-06      22.1339 
          -5      2.25656 -1.18406e-05  7.76845e-06      22.1339 
          -5      2.30283 -9.73968e-06  7.83019e-06      22.1339 
          -5       2.3496 -7.63242e-06  7.90571e-06      22.1339 
          -5      2.39685   -5.522e-06  7.99074e-06       22.134 
          -5      2.44452 -3.43843e-06  8.05257e-06       22.134 
          -5      2.49271 -1.42379e-06  8.08083e-06       22.134 
          -5      2.54132  4.92629e-07  8.07521e-06       22.134 
          -5      2.59044  2.29035e-06  8.03493e-06      22.1341 
          -5         2.64  3.94598e-06  7.95854e-06      22.1341 
          -5      2.69006  5.44477e-06  7.84353e-06      22.1341 
          -5      2.74056  6.77042e-06  7.68678e-06      22.1342 
          -5      2.79156  7.91467e-06  7.48391e-06      22.1342 
          -5      2.84304  8.86973e-06  7.23036e-06      22.1342 
          -5      2.89494  9.63219e-06  6.92162e-06      22.1343 
          -5      2.94735  1.02042e-05  6.55304e-06      22.1343 
          -5       3.0002  1.05896e-05  6.12257e-06      22.1343 
          -5      3.05355  1.07971e-05  5.62965e-06      22.1344 
          -5      3.10733  1.08383e-05  5.07952e-06      22.1344 
          -5      3.16163  1.07278e-05  4.48205e-06      22.1344 
          -5      3.21639  1.04831e-05  3.85709e-06      22.1345 
          -5      3.27158  1.01238e-05  3.23607e-06      22.1345 
          -5      3.32729  9.67031e-06  2.66383e-06      22.1345 
          -5      3.38342  9.09532e-06  2.10914e-06      22.1346 
          -5      3.44007  8.45923e-06   1.5193e-06      22.1346 
          -5      3.49714  7.89555e-06  1.01841e-06      22.1346 
          -5      3.55472  7.43562e-06  5.96318e-07      22.1347 
          -5      3.61273   7.0961e-06  2.36819e-07      22.1347 
          -5      3.67125  6.86449e-06 -8.55056e-08      22.1347 
          -5      3.73025  6.69761e-06 -4.02069e-07      22.1348 
          -5      3.78967  6.52675e-06  -7.4804e-07      22.1348 
          -5      3.84961  6.27495e-06 -1.15787e-06      22.1348 
          -5      3.90996  5.88876e-06 -1.65541e-06      22.1349 
          -5      3.97084  5.59096e-06 -1.99894e-06      22.1349 
          -5      4.03214  5.19032e-06 -2.42009e-06      22.1349 
          -5      4.09395  4.74182e-06 -2.88122e-06       22.135 
          -5      4.15624  4.28604e-06 -3.35421e-06       22.135 
          -5      4.21895  3.84724e-06 -3.82266e-06      22.1351 
          -5      4.28217  3.43552e-06 -4.27989e-06      22.1351 
          -5      4.34582  3.05229e-06 -4.72346e-06      22.1351 
          -5      4.40998  2.69073e-06 -5.15539e-06      22.1352 
          -5      4.47457  2.34115e-06 -5.57709e-06      22.1352 
          -5      4.53968  1.99128e-06 -5.99025e-06      22.1352 
          -5      4.60525  1.63066e-06 -6.39328e-06      22.1353 
          -5      4.67125  1.25183e-06 -6.78176e-06      22.1353 
          -5      4.73777   8.5095e-07  -7.1495e-06      22.1353 
          -5       4.8047  4.30981e-07 -7.48757e-06      22.1354 
          -5      4.87216 -4.68897e-10 -7.78878e-06      22.1354 
          -5      4.94003 -4.28855e-07 -8.04882e-06      22.1354 
          -5      5.00843 -8.36585e-07 -8.27293e-06      22.1355 
          -5      5.07724  -1.2025e-06 -8.48029e-06      22.1355 
          -5      5.14658 -1.50768e-06 -8.71346e-06      22.1355 
          -5      5.21639 -1.96663e-06 -8.87716e-06      22.1356 
          -5      5.28661 -2.41682e-06 -9.04057e-06      22.1356 
          -5      5.35736 -2.86049e-06 -9.19048e-06      22.1356 
          -5      5.42852 -3.28546e-06 -9.39598e-06      22.1356 
          -5      5.50021 -3.75496e-06 -9.58761e-06      22.1357 
          -5      5.57231 -4.16073e-06 -9.80485e-06      22.1357 
          -5      5.64493 -4.51559e-06 -1.00372e-05      22.1357 
          -5      5.71803 -4.82794e-06 -1.02747e-05      22.1357 
          -5      5.79154 -5.10382e-06 -1.05082e-05      22.1358 
          -5      5.86558 -5.34829e-06 -1.07311e-05      22.1358 
          -5      5.94003 -5.56474e-06 -1.09377e-05      22.1358 
          -5      6.01501 -5.75716e-06 -1.11247e-05      22.1358 
          -5       6.0904 -5.92921e-06 -1.12903e-05      22.1359 
          -5      6.16632 -6.08587e-06 -1.14352e-05      22.1359 
          -5      6.24271 -6.23257e-06 -1.15607e-05      22.1359 
          -5       6.3195 -6.37558e-06 -1.16697e-05      22.1359 
          -5      6.39683 -6.52203e-06 -1.17654e-05      22.1359 
          -5      6.47457 -6.67845e-06 -1.18504e-05      22.1359 
          -5      6.55284 -6.85085e-06 -1.19259e-05       22.136 
          -5      6.63152 -7.04244e-06 -1.19899e-05       22.136 
          -5      6.71073 -7.25304e-06  -1.2036e-05       22.136 
          -5      6.79034  -7.4758e-06 -1.20513e-05       22.136 
          -5      6.87049 -7.69591e-06 -1.20139e-05       22.136 
          -5      6.95111 -7.88631e-06 -1.18904e-05       22.136 
          -5      7.03214 -8.00468e-06 -1.16599e-05       22.136 
          -5       7.1137 -8.11719e-06 -1.19571e-05       22.136 
          -5      7.19566 -8.29416e-06 -1.21478e-05       22.136 
          -5      7.27816 -8.50741e-06 -1.22889e-05       22.136 
          -5      7.36106  -8.7358e-06 -1.24186e-05       22.136 
          -5      7.44451 -8.96536e-06 -1.25605e-05       22.136 
          -5      7.52842 -9.18678e-06 -1.27261e-05       22.136 
          -5      7.61273 -9.39491e-06 -1.29176e-05       22.136 
          -5      7.69758 -9.58814e-06 -1.31316e-05       22.136 
          -5      7.78283 -9.76629e-06 -1.33598e-05       22.136 
          -5      7.86862 -9.93092e-06 -1.35929e-05       22.136 
          -5      7.95481 -1.00835e-05 -1.38202e-05       22.136 
          -5      8.04155 -1.02256e-05  -1.4033e-05      22.1359 
          -5      8.12868 -1.03578e-05 -1.42229e-05      22.1359 
          -5      8.21635   -1.048e-05 -1.43841e-05      22.1359 
          -5      8.30449 -1.05908e-05  -1.4511e-05      22.1359 
          -5      8.39303 -1.06877e-05 -1.45978e-05      22.1359 
          -5      8.48211 -1.07679e-05 -1.46365e-05      22.1358 
          -5      8.57159 -1.08079e-05 -1.47975e-05      22.1358 
          -5      8.66161 -1.08387e-05 -1.50839e-05      22.1358 
          -5      8.75203 -1.08818e-05 -1.52726e-05      22.1358 
          -5      8.84299 -1.09252e-05 -1.53063e-05      22.1357 
          -5      8.93443 -1.09527e-05 -1.51564e-05      22.1357 
          -5      9.02626 -1.09434e-05 -1.48392e-05      22.1356 
          -5      9.11863 -1.08388e-05 -1.47971e-05      22.1356 
          -5      9.21139 -1.08364e-05 -1.49389e-05      22.1356 
          -5      9.30471 -1.09307e-05 -1.50429e-05      22.1355 
          -5      9.39841 -1.10764e-05  -1.5107e-05      22.1355 
          -5      9.49267 -1.12537e-05 -1.51551e-05      22.1354 
          -5      9.58739 -1.14626e-05 -1.52292e-05      22.1354 
          -5      9.68251 -1.16867e-05  -1.5327e-05      22.1353 
          -5      9.77817 -1.17352e-05  -1.5201e-05      22.1353 
          -5      9.87422 -1.17752e-05 -1.51348e-05      22.1352 
          -5      9.97083 -1.18262e-05 -1.50975e-05      22.1351 
          -5      10.0678 -1.19039e-05  -1.5064e-05      22.1351 
          -5      10.1654 -1.20176e-05 -1.50161e-05       22.135 
          -5      10.2633 -1.21683e-05 -1.49447e-05      22.1349 
          -5      10.3618 -1.23487e-05 -1.48488e-05      22.1349 
          -5      10.4607 -1.25433e-05 -1.47357e-05      22.1348 
          -5      10.5601 -1.27306e-05 -1.46177e-05      22.1347 
          -5        10.66 -1.28873e-05 -1.45088e-05      22.1346 
          -5      10.7603 -1.29922e-05 -1.44191e-05      22.1345 
          -5      10.8611 -1.30339e-05 -1.43476e-05      22.1344 
          -5      10.9623 -1.30195e-05 -1.42738e-05      22.1344 
          -5      11.0641 -1.29848e-05 -1.41462e-05      22.1343 
          -5      11.1663 -1.30081e-05 -1.38695e-05      22.1342 
          -5       11.269 -1.31303e-05 -1.35602e-05      22.1341 
          -5      11.3721 -1.31337e-05  -1.3661e-05       22.134 
          -5      11.4757 -1.31272e-05 -1.37097e-05      22.1339 
          -5      11.5798 -1.31149e-05 -1.37374e-05      22.1338 
          -5      11.6844 -1.31009e-05  -1.3765e-05      22.1336 
          -5      11.7894 -1.30896e-05 -1.38053e-05      22.1335 
          -5       11.895 -1.30856e-05 -1.38638e-05      22.1334 
          -5      12.0009 -1.30937e-05 -1.39396e-05      22.1333 
          -5      12.1073 -1.31194e-05 -1.40267e-05      22.1332 
          -5      12.2142 -1.31682e-05 -1.41141e-05       22.133 
          -5      12.3216 -1.32462e-05 -1.41871e-05      22.1329 
          -5      12.4294 -1.33593e-05 -1.42269e-05      22.1328 
          -5      12.5378 -1.35138e-05 -1.42109e-05      22.1326 
          -5      12.6465 -1.37152e-05 -1.41128e-05      22.1325 
          -5      12.7558  -1.3969e-05 -1.39014e-05      22.1324 
          -5      12.8656 -1.39444e-05 -1.40645e-05      22.1322 
          -5      12.9757 -1.39091e-05 -1.42361e-05      22.1321 
          -5      13.0864 -1.38946e-05 -1.43491e-05      22.1319 
          -5      13.1975 -1.38946e-05 -1.43878e-05      22.1318 
          -5      13.3092 -1.38988e-05 -1.43427e-05      22.1316 
          -5      13.4212  -1.3896e-05 -1.42114e-05      22.1314 
          -5      13.5338  -1.3878e-05 -1.40014e-05      22.1313 
          -5      13.6468 -1.38442e-05 -1.37325e-05      22.1311 
          -5      13.7603 -1.38079e-05 -1.34392e-05      22.1309 
          -5      13.8743 -1.38033e-05 -1.31732e-05      22.1307 
          -5      13.9886  -1.3894e-05  -1.3008e-05      22.1306 
          -5      14.1036 -1.41837e-05 -1.30406e-05      22.1304 
          -5      14.2189 -1.43372e-05 -1.30649e-05      22.1302 
          -5      14.3348 -1.40605e-05 -1.28116e-05        22.13 
          -5       14.451 -1.39501e-05 -1.26624e-05      22.1298 
          -5      14.5678 -1.39557e-05 -1.25915e-05      22.1296 
          -5      14.6851 -1.40364e-05 -1.25754e-05      22.1294 
          -5      14.8028 -1.41596e-05 -1.25932e-05      22.1292 
          -5       14.921 -1.42997e-05 -1.26262e-05       22.129 
          -5      15.0396  -1.4437e-05 -1.26589e-05      22.1288 
          -5      15.1588 -1.45571e-05 -1.26787e-05      22.1285 
          -5      15.2783 -1.46495e-05 -1.26764e-05      22.1283 
          -5      15.3984 -1.47073e-05 -1.26463e-05      22.1281 
          -5       15.519  -1.4726e-05 -1.25865e-05      22.1279 
          -5        15.64 -1.47034e-05 -1.24993e-05      22.1276 
          -5      15.7615 -1.46385e-05 -1.23907e-05      22.1274 
          -5      15.8834 -1.45321e-05 -1.22718e-05      22.1272 
          -5      16.0058 -1.43854e-05 -1.21577e-05      22.1269 
          -5      16.1286 -1.44252e-05 -1.20821e-05      22.1267 
          -5       16.252 -1.45885e-05 -1.20162e-05      22.1264 
          -5      16.3759 -1.47297e-05 -1.19577e-05      22.1261 
          -5      16.5002 -1.48332e-05 -1.19216e-05      22.1259 
          -5       16.625 -1.48858e-05 -1.19204e-05      22.1256 
          -5      16.7501  -1.4877e-05 -1.19623e-05      22.1254 
          -5      16.8759 -1.48008e-05 -1.20495e-05      22.1251 
          -5       17.002 -1.46573e-05 -1.21746e-05      22.1248 
          -5      17.1287 -1.44536e-05 -1.23185e-05      22.1245 
          -5      17.2557 -1.42064e-05  -1.2446e-05      22.1242 
          -5      17.3834 -1.39427e-05 -1.25023e-05      22.1239 
          -5      17.5115  -1.3703e-05 -1.24083e-05      22.1236 
          -5      17.6399 -1.35429e-05 -1.20555e-05      22.1234 
          -5       17.769 -1.35349e-05 -1.12997e-05       22.123 
          -5      17.8984 -1.36214e-05 -1.16286e-05      22.1227 
          -5      18.0284 -1.36336e-05 -1.18216e-05      22.1224 
          -5      18.1587 -1.36374e-05 -1.18078e-05      22.1221 
          -5      18.2896 -1.36778e-05 -1.16686e-05      22.1218 
          -5       18.421 -1.37776e-05 -1.14692e-05      22.1215 
          -5      18.5528 -1.39413e-05 -1.12601e-05      22.1211 
          -5      18.6851 -1.41594e-05 -1.10784e-05      22.1208 
          -5      18.8178 -1.44112e-05 -1.09505e-05      22.1205 
          -5      18.9511 -1.46691e-05 -1.08929e-05      22.1201 
          -5      19.0847 -1.49011e-05 -1.09145e-05      22.1198 
          -5      19.2189  -1.4948e-05 -1.09717e-05      22.1194 
          -5      19.3535 -1.47718e-05 -1.09587e-05      22.1191 
          -5      19.4886 -1.46426e-05  -1.0923e-05      22.1187 
          -5      19.6242 -1.45689e-05 -1.08684e-05      22.1184 
          -5      19.7602 -1.45508e-05 -1.08019e-05       22.118 
          -5      19.8968 -1.45809e-05 -1.07319e-05      22.1176 
          -5      20.0337  -1.4644e-05 -1.06668e-05      22.1172 
          -5      20.1712 -1.47189e-05 -1.06138e-05      22.1169 
          -5      20.3091 -1.47803e-05 -1.05777e-05      22.1165 
          -5      20.4475 -1.48017e-05 -1.05601e-05      22.1161 
          -5      20.5864 -1.47591e-05 -1.05587e-05      22.1157 
          -5      20.7257 -1.46367e-05 -1.05671e-05      22.1153 
          -5      20.8655 -1.44317e-05 -1.05748e-05      22.1149 
          -5      21.0058 -1.41625e-05 -1.05672e-05      22.1145 
          -5      21.1465 -1.38761e-05 -1.05263e-05      22.1141 
          -5      21.2877 -1.36585e-05  -1.0432e-05      22.1136 
          -5      21.4294 -1.36448e-05 -1.02626e-05      22.1132 
          -5      21.5716 -1.40323e-05 -9.99733e-06      22.1128 
          -5      21.7142 -1.38309e-05 -1.00728e-05      22.1124 
          -5      21.8573 -1.36443e-05 -1.01128e-05      22.1119 
          -5      22.0008 -1.36554e-05 -1.00481e-05      22.1115 
          -5      22.1449 -1.37883e-05 -9.92973e-06       22.111 
          -5      22.2893 -1.39763e-05 -9.80387e-06      22.1106 
          -5      22.4344 -1.41642e-05 -9.70643e-06      22.1101 
          -5      22.5797 -1.43076e-05 -9.65887e-06      22.1097 
          -5      22.7257 -1.43753e-05  -9.6637e-06      22.1092 
          -5      22.8721 -1.43489e-05 -9.70161e-06      22.1087 
          -5      23.0189 -1.42249e-05 -9.72896e-06      22.1082 
          -5      23.1663 -1.40142e-05 -9.67638e-06      22.1078 
          -5       23.314 -1.37443e-05 -9.44832e-06      22.1073 
          -5      23.4623 -1.35574e-05 -9.17611e-06      22.1068 
          -5       23.611 -1.37869e-05 -9.70357e-06      22.1063 
          -5      23.7602 -1.39705e-05 -1.00046e-05      22.1058 
          -5        23.91 -1.41046e-05 -1.01197e-05      22.1053 
          -5        24.06  -1.4189e-05 -1.00935e-05      22.1048 
          -5      24.2107 -1.42271e-05 -9.97209e-06      22.1043 
          -5      24.3617 -1.42249e-05 -9.80101e-06      22.1037 
          -5      24.5133 -1.41906e-05 -9.62232e-06      22.1032 
          -5      24.6653 -1.41345e-05  -9.4726e-06      22.1027 
          -5      24.8178 -1.40676e-05 -9.37895e-06      22.1022 
          -5      24.9708 -1.40012e-05 -9.35652e-06      22.1016 
          -5      25.1242 -1.39456e-05 -9.40423e-06      22.1011 
          -5      25.2781  -1.3909e-05 -9.50117e-06      22.1005 
          -5      25.4324 -1.38959e-05 -9.60199e-06         22.1 
          -5      25.5873 -1.39059e-05 -9.63267e-06      22.0994 
          -5      25.7426 -1.39318e-05 -9.48517e-06      22.0988 
          -5      25.8984 -1.39575e-05 -9.01184e-06      22.0983 
          -5      26.0546 -1.39561e-05 -8.02113e-06      22.0977 
          -5      26.2114 -1.41875e-05 -7.96877e-06      22.0971 
          -5      26.3686 -1.44471e-05 -8.52277e-06      22.0965 
          -5      26.5262 -1.45558e-05 -8.75817e-06      22.0959 
          -5      26.6844 -1.45531e-05 -8.77136e-06      22.0953 
          -5      26.8429 -1.44739e-05 -8.64206e-06      22.0947 
          -5       27.002  -1.4348e-05 -8.43469e-06      22.0941 
          -5      27.1615  -1.4201e-05 -8.20013e-06      22.0935 
          -5      27.3216  -1.4053e-05  -7.9757e-06      22.0929 
          -5      27.4821 -1.39197e-05 -7.78764e-06      22.0923 
          -5       27.643  -1.3812e-05 -7.65167e-06      22.0917 
          -5      27.8044 -1.37358e-05 -7.57414e-06       22.091 
          -5      27.9663 -1.36933e-05 -7.55411e-06      22.0904 
          -5      28.1287 -1.36825e-05 -7.58426e-06      22.0897 
          -5      28.2914  -1.3698e-05 -7.65258e-06      22.0891 
          -5      28.4548 -1.37321e-05 -7.74412e-06      22.0884 
          -5      28.6185 -1.37747e-05 -7.84223e-06      22.0878 
          -5      28.7828 -1.38152e-05 -7.93077e-06      22.0871 
          -5      28.9475 -1.38426e-05 -7.99542e-06      22.0864 
          -5      29.1126 -1.38473e-05 -8.02576e-06      22.0858 
          -5      29.2784 -1.38224e-05 -8.01722e-06      22.0851 
          -5      29.4444 -1.37648e-05 -7.97295e-06      22.0844 
          -5       29.611 -1.36772e-05 -7.90577e-06      22.0837 
          -5       29.778 -1.35702e-05 -7.84057e-06       22.083 
          -5      29.9456 -1.34634e-05 -7.81615e-06      22.0823 
          -5      30.1137 -1.33888e-05 -7.88783e-06      22.0816 
          -5      30.2821 -1.33922e-05 -8.12926e-06      22.0809 
          -5      30.4511 -1.35294e-05 -8.59749e-06      22.0802 
          -5      30.6204 -1.35813e-05 -8.43963e-06      22.0795 
          -5      30.7903 -1.35898e-05 -8.32749e-06      22.0787 
          -5      30.9606  -1.3558e-05 -8.25395e-06       22.078 
          -5      31.1315 -1.34915e-05 -8.20927e-06      22.0773 
          -5      31.3028 -1.33985e-05 -8.18216e-06      22.0765 
          -5      31.4745  -1.3289e-05 -8.16021e-06      22.0758 
          -5      31.6468 -1.31745e-05 -8.13053e-06       22.075 
          -5      31.8194 -1.30677e-05 -8.08052e-06      22.0743 
          -5      31.9926 -1.29818e-05 -7.99831e-06      22.0735 
          -5      32.1662 -1.29306e-05 -7.87376e-06      22.0727 
          -5      32.3404 -1.29276e-05 -7.69858e-06      22.0719 
          -5      32.5149 -1.29861e-05 -7.46775e-06      22.0712 
          -5        32.69 -1.31185e-05 -7.17911e-06      22.0704 
          -5      32.8655 -1.34434e-05 -7.02263e-06      22.0696 
          -5      33.0414 -1.37502e-05 -7.02552e-06      22.0688 
          -5       33.218 -1.39267e-05 -7.04487e-06       22.068 
          -5      33.3948 -1.40037e-05 -7.07287e-06      22.0672 
          -5      33.5723  -1.4008e-05 -7.10363e-06      22.0664 
          -5        33.75 -1.39622e-05 -7.13285e-06      22.0655 
          -5      33.9284 -1.38847e-05 -7.15774e-06      22.0647 
          -5      34.1073 -1.37905e-05 -7.17665e-06      22.0639 
          -5      34.2865 -1.36915e-05 -7.18898e-06      22.0631 
          -5      34.4663 -1.35965e-05 -7.19495e-06      22.0622 
          -5      34.6465 -1.35117e-05 -7.19541e-06      22.0614 
          -5      34.8272  -1.3441e-05 -7.19165e-06      22.0605 
          -5      35.0083 -1.33866e-05 -7.18532e-06      22.0597 
          -5        35.19 -1.33487e-05 -7.17816e-06      22.0588 
          -5      35.3721 -1.33263e-05 -7.17198e-06      22.0579 
          -5      35.5546 -1.33172e-05  -7.1685e-06      22.0571 
          -5      35.7377 -1.33186e-05 -7.16923e-06      22.0562 
          -5      35.9211 -1.33268e-05 -7.17542e-06      22.0553 
          -5      36.1052  -1.3338e-05 -7.18798e-06      22.0544 
          -5      36.2895 -1.33483e-05 -7.20744e-06      22.0535 
          -5      36.4745 -1.33538e-05 -7.23395e-06      22.0526 
          -5      36.6598 -1.33513e-05 -7.26718e-06      22.0517 
          -5      36.8457 -1.33376e-05 -7.30653e-06      22.0508 
          -5      37.0321 -1.33106e-05 -7.35098e-06      22.0499 
          -5      37.2188 -1.32689e-05 -7.39921e-06      22.0489 
          -5      37.4062 -1.32121e-05 -7.44987e-06       22.048 
          -5      37.5938  -1.3141e-05 -7.50141e-06      22.0471 
          -5      37.7821 -1.30572e-05 -7.55253e-06      22.0461 
          -5      37.9707 -1.29641e-05 -7.60211e-06      22.0452 
          -5      38.1599 -1.28738e-05 -7.47398e-06      22.0443 
          -5      38.3496 -1.27998e-05 -7.32226e-06      22.0433 
          -5      38.5396 -1.27428e-05 -7.15856e-06      22.0423 
          -5      38.7302 -1.27026e-05 -6.99507e-06      22.0414 
          -5      38.9211 -1.26785e-05 -6.84535e-06      22.0404 
          -5      39.1127 -1.26698e-05 -6.72281e-06      22.0394 
          -5      39.3046 -1.26764e-05  -6.6409e-06      22.0384 
          -5      39.4971 -1.26988e-05 -6.61171e-06      22.0375 
          -5      39.6899 -1.27392e-05  -6.6456e-06      22.0365 
          -5      39.8833 -1.28019e-05 -6.75015e-06      22.0355 
          -5      40.0772 -1.28942e-05 -6.92907e-06      22.0345 
          -5      40.2714 -1.30268e-05 -7.18096e-06      22.0335 
          -5      40.4663 -1.32158e-05 -7.49892e-06      22.0324 
          -5      40.6615 -1.34821e-05 -7.86772e-06      22.0314 
          -5      40.8573 -1.38543e-05 -8.26439e-06      22.0304 
          -5      41.0534   -1.362e-05 -7.58012e-06      22.0294 
          -5      41.2501 -1.32561e-05 -6.77011e-06      22.0283 
          -5      41.4473 -1.29735e-05 -6.20505e-06      22.0273 
          -5      41.6448  -1.2757e-05 -5.88335e-06      22.0262 
          -5      41.8429  -1.2599e-05 -5.80485e-06      22.0252 
          -5      42.0414 -1.25024e-05 -5.97336e-06      22.0241 
          -5      42.2405 -1.24822e-05 -6.39745e-06      22.0231 
          -5      42.4399 -1.25286e-05 -6.83851e-06       22.022 
          -5      42.6399  -1.2495e-05 -6.45582e-06      22.0209 
          -5      42.8404 -1.24846e-05 -6.10005e-06      22.0199 
          -5      43.0412  -1.2491e-05 -5.78328e-06      22.0188 
          -5      43.2426 -1.25088e-05 -5.51265e-06      22.0177 
          -5      43.4444 -1.25331e-05 -5.29269e-06      22.0166 
          -5      43.6467 -1.25602e-05 -5.12403e-06      22.0155 
          -5      43.8494 -1.25867e-05 -5.00535e-06      22.0144 
          -5      44.0527 -1.26102e-05 -4.93279e-06      22.0133 
          -5      44.2563 -1.26287e-05  -4.9011e-06      22.0122 
          -5      44.4606 -1.26409e-05  -4.9037e-06      22.0111 
          -5      44.6653  -1.2646e-05 -4.93324e-06      22.0099 
          -5      44.8704 -1.26436e-05 -4.98187e-06      22.0088 
          -5       45.076 -1.26338e-05 -5.04179e-06      22.0077 
          -5       45.282 -1.26172e-05 -5.10527e-06      22.0065 
          -5      45.4886 -1.25944e-05 -5.16531e-06      22.0054 
          -5      45.6955 -1.25665e-05 -5.21547e-06      22.0043 
          -5       45.903 -1.25346e-05  -5.2505e-06      22.0031 
          -5      46.1111 -1.25003e-05 -5.26619e-06      22.0019 
          -5      46.3194 -1.24651e-05 -5.25971e-06      22.0008 
          -5      46.5283 -1.24304e-05 -5.22962e-06      21.9996 
          -5      46.7376 -1.23979e-05 -5.17596e-06      21.9984 
          -5      46.9475  -1.2369e-05 -5.10014e-06      21.9973 
          -5      47.1577 -1.23451e-05 -5.00516e-06      21.9961 
          -5      47.3685 -1.23274e-05 -4.89508e-06      21.9949 
          -5      47.5798 -1.23168e-05 -4.77535e-06      21.9937 
          -5      47.7914 -1.23142e-05 -4.65241e-06      21.9925 
          -5      48.0037 -1.23199e-05 -4.53307e-06      21.9913 