Variables = x, y, u, v, p

Zone, I=800, F=POINT
         -70            0           -0           -0      8.03502 
         -70     0.000234 -2.48842e-05 -1.29955e-09      8.03502 
         -70     0.000939 -9.39575e-05 -5.63486e-09      8.03502 
         -70     0.002113 -0.000190904 -1.41877e-08      8.03502 
         -70     0.003759 -0.000293927 -2.87671e-08      8.03502 
         -70     0.005872 -0.000380825 -5.14347e-08      8.03502 
         -70     0.008457 -0.000436049 -8.43824e-08      8.03502 
         -70      0.01151 -0.000454176 -1.29476e-07      8.03502 
         -70     0.015036 -0.000441585 -1.88317e-07      8.03502 
         -70     0.019031 -0.000413715 -2.61929e-07      8.03502 
         -70     0.023493 -0.000389105 -3.50987e-07      8.03502 
         -70     0.028429 -0.000381598 -4.56151e-07      8.03502 
         -70     0.033831 -0.000393856 -5.77745e-07      8.03502 
         -70     0.039706 -0.000415322 -7.16504e-07      8.03502 
         -70     0.046047 -0.000427639 -8.72919e-07      8.03502 
         -70     0.052863 -0.000417879 -1.04784e-06      8.03502 
         -70      0.06015 -0.000394192  -1.2418e-06      8.03502 
         -70       0.0679  -0.00038917 -1.45587e-06      8.03501 
         -70     0.076126 -0.000420486 -1.69474e-06      8.03501 
         -70     0.084816 -0.000392191 -1.96692e-06      8.03501 
         -70     0.093982 -0.000400421 -2.25342e-06      8.03501 
         -70     0.103611 -0.000401407 -2.56451e-06      8.03501 
         -70     0.113718 -0.000398698 -2.90186e-06      8.03501 
         -70     0.124286  -0.00039485 -3.26549e-06      8.03501 
         -70     0.135333   -0.0003913 -3.65635e-06      8.03501 
         -70      0.14685 -0.000388459 -4.07476e-06        8.035 
         -70     0.158827 -0.000385977 -4.52191e-06        8.035 
         -70     0.171284 -0.000383166 -5.00179e-06        8.035 
         -70     0.184201 -0.000379525 -5.51902e-06        8.035 
         -70     0.197599 -0.000375153 -6.08214e-06        8.035 
         -70     0.211455 -0.000370879 -6.69933e-06      8.03499 
         -70     0.225792 -0.000367663 -7.38008e-06      8.03499 
         -70       0.2406 -0.000364872 -8.12732e-06      8.03499 
         -70     0.255865 -0.000359954 -8.92725e-06      8.03498 
         -70     0.271613  -0.00035657 -9.81538e-06      8.03498 
         -70     0.287818 -0.000353074 -1.07982e-05      8.03498 
         -70     0.304506 -0.000349581 -1.18463e-05      8.03497 
         -70      0.32165 -0.000346199 -1.29217e-05      8.03497 
         -70     0.339278 -0.000343011 -1.39879e-05      8.03496 
         -70     0.357377 -0.000340088 -1.50066e-05      8.03496 
         -70      0.37593 -0.000337485 -1.59442e-05      8.03495 
         -70     0.394968  -0.00033523 -1.67786e-05      8.03495 
         -70     0.414461 -0.000333345 -1.74974e-05      8.03494 
         -70      0.43444 -0.000331832 -1.81072e-05      8.03493 
         -70     0.454872 -0.000330684 -1.86311e-05      8.03492 
         -70     0.475791 -0.000329884  -1.9114e-05      8.03492 
         -70     0.497163 -0.000329409 -1.96168e-05      8.03491 
         -70     0.519021 -0.000329229 -2.02149e-05       8.0349 
         -70      0.54135 -0.000329307  -2.0985e-05      8.03489 
         -70     0.564131 -0.000329593 -2.19894e-05      8.03488 
         -70       0.5874 -0.000330015 -2.32542e-05      8.03487 
         -70     0.611121 -0.000330463 -2.47346e-05      8.03486 
         -70      0.63533 -0.000331018 -2.63558e-05      8.03485 
         -70      0.65999 -0.000331775 -2.79801e-05      8.03484 
         -70     0.685139 -0.000332684 -2.95739e-05      8.03483 
         -70     0.710759 -0.000333698 -3.11077e-05      8.03481 
         -70     0.736828 -0.000334777 -3.25602e-05       8.0348 
         -70     0.763387 -0.000335889 -3.39215e-05      8.03478 
         -70     0.790396 -0.000337009 -3.51849e-05      8.03477 
         -70     0.817896 -0.000338118 -3.63546e-05      8.03475 
         -70     0.845843 -0.000339204 -3.74372e-05      8.03474 
         -70     0.874283 -0.000340265  -3.8448e-05      8.03472 
         -70      0.90317   -0.0003413 -3.94026e-05       8.0347 
         -70     0.932551 -0.000342316 -4.03224e-05      8.03468 
         -70     0.962401 -0.000343324 -4.12274e-05      8.03466 
         -70     0.992697 -0.000344335 -4.21368e-05      8.03464 
         -70      1.02349 -0.000345368 -4.30697e-05      8.03462 
         -70      1.05472 -0.000346434 -4.40384e-05       8.0346 
         -70      1.08645 -0.000347551  -4.5053e-05      8.03457 
         -70      1.11863 -0.000348729 -4.61139e-05      8.03455 
         -70       1.1513 -0.000349975  -4.7218e-05      8.03452 
         -70      1.18444 -0.000351293 -4.83523e-05      8.03449 
         -70      1.21802 -0.000352675 -4.94973e-05      8.03447 
         -70      1.25211 -0.000354114 -5.06311e-05      8.03444 
         -70      1.28663 -0.000355587 -5.17263e-05      8.03441 
         -70      1.32165  -0.00035707 -5.27611e-05      8.03437 
         -70      1.35712 -0.000358529 -5.37181e-05      8.03434 
         -70      1.39308 -0.000359929 -5.45997e-05      8.03431 
         -70      1.42951 -0.000361232 -5.54325e-05      8.03427 
         -70      1.46638 -0.000362402 -5.62834e-05      8.03423 
         -70      1.50375 -0.000363415 -5.72783e-05       8.0342 
         -70      1.54156 -0.000365106 -5.80388e-05      8.03416 
         -70      1.57987 -0.000366864 -5.88095e-05      8.03412 
         -70      1.61863 -0.000368599 -5.95964e-05      8.03407 
         -70      1.65788 -0.000370286 -6.03793e-05      8.03403 
         -70      1.69757 -0.000371897 -6.11382e-05      8.03398 
         -70      1.73776 -0.000373417 -6.18583e-05      8.03394 
         -70      1.77842 -0.000374829 -6.25253e-05      8.03389 
         -70      1.81952 -0.000376121  -6.3128e-05      8.03384 
         -70      1.86113  -0.00037729 -6.36592e-05      8.03379 
         -70      1.90316 -0.000378331 -6.41125e-05      8.03373 
         -70      1.94571 -0.000379246  -6.4486e-05      8.03368 
         -70      1.98869  -0.00038004 -6.47786e-05      8.03362 
         -70      2.03217 -0.000380721  -6.4993e-05      8.03356 
         -70      2.07612 -0.000381297 -6.51333e-05       8.0335 
         -70      2.12051 -0.000381783  -6.5206e-05      8.03344 
         -70       2.1654 -0.000382192 -6.52197e-05      8.03337 
         -70      2.21073 -0.000382539 -6.51845e-05      8.03331 
         -70      2.25656 -0.000382842 -6.51119e-05      8.03324 
         -70      2.30283 -0.000383116 -6.50147e-05      8.03317 
         -70       2.3496 -0.000383377 -6.49063e-05      8.03309 
         -70      2.39685  -0.00038364 -6.48009e-05      8.03302 
         -70      2.44452 -0.000383918 -6.47128e-05      8.03294 
         -70      2.49271 -0.000384224 -6.46559e-05      8.03286 
         -70      2.54132 -0.000384565 -6.46439e-05      8.03278 
         -70      2.59044 -0.000384949 -6.46894e-05       8.0327 
         -70         2.64 -0.000385377 -6.48035e-05      8.03261 
         -70      2.69006 -0.000385849 -6.49962e-05      8.03252 
         -70      2.74056 -0.000386359 -6.52749e-05      8.03243 
         -70      2.79156 -0.000386902 -6.56455e-05      8.03234 
         -70      2.84304 -0.000387463 -6.61104e-05      8.03224 
         -70      2.89494  -0.00038803 -6.66692e-05      8.03214 
         -70      2.94735 -0.000388584 -6.73196e-05      8.03204 
         -70       3.0002 -0.000389107 -6.80544e-05      8.03193 
         -70      3.05355 -0.000389579 -6.88651e-05      8.03183 
         -70      3.10733 -0.000389984 -6.97379e-05      8.03172 
         -70      3.16163 -0.000390305 -7.06582e-05      8.03161 
         -70      3.21639 -0.000390533 -7.16068e-05      8.03149 
         -70      3.27158 -0.000390667  -7.2562e-05      8.03137 
         -70      3.32729 -0.000390718 -7.35027e-05      8.03125 
         -70      3.38342  -0.00039071 -7.44033e-05      8.03113 
         -70      3.44007 -0.000390692 -7.52416e-05        8.031 
         -70      3.49714 -0.000390733 -7.59933e-05      8.03087 
         -70      3.55472 -0.000390939 -7.66392e-05      8.03074 
         -70      3.61273 -0.000391452 -7.71622e-05       8.0306 
         -70      3.67125 -0.000392462 -7.75534e-05      8.03046 
         -70      3.73025 -0.000394214 -7.78109e-05      8.03032 
         -70      3.78967 -0.000394233  -7.8271e-05      8.03017 
         -70      3.84961 -0.000393265 -7.89943e-05      8.03002 
         -70      3.90996 -0.000392524 -7.97932e-05      8.02987 
         -70      3.97084 -0.000391978  -8.0663e-05      8.02971 
         -70      4.03214 -0.000391594 -8.16642e-05      8.02955 
         -70      4.09395 -0.000391334 -8.29201e-05      8.02939 
         -70      4.15624 -0.000391357 -8.29604e-05      8.02922 
         -70      4.21895 -0.000391472 -8.23991e-05      8.02905 
         -70      4.28217 -0.000391532 -8.22754e-05      8.02888 
         -70      4.34582  -0.00039156 -8.24915e-05       8.0287 
         -70      4.40998 -0.000391574 -8.29591e-05      8.02852 
         -70      4.47457 -0.000391591 -8.35987e-05      8.02833 
         -70      4.53968 -0.000391623 -8.43439e-05      8.02814 
         -70      4.60525 -0.000391674 -8.51382e-05      8.02795 
         -70      4.67125 -0.000391748 -8.59366e-05      8.02775 
         -70      4.73777  -0.00039184 -8.67084e-05      8.02755 
         -70       4.8047 -0.000391941 -8.74318e-05      8.02735 
         -70      4.87216 -0.000392037 -8.80992e-05      8.02714 
         -70      4.94003 -0.000392111 -8.87107e-05      8.02692 
         -70      5.00843 -0.000392141 -8.92782e-05       8.0267 
         -70      5.07724 -0.000392108 -8.98189e-05      8.02648 
         -70      5.14658 -0.000391989 -9.03572e-05      8.02625 
         -70      5.21639 -0.000391769 -9.09188e-05      8.02602 
         -70      5.28661 -0.000391438 -9.15285e-05      8.02578 
         -70      5.35736 -0.000390996 -9.22079e-05      8.02554 
         -70      5.42852  -0.00039046 -9.29673e-05       8.0253 
         -70      5.50021 -0.000389867 -9.38038e-05      8.02505 
         -70      5.57231 -0.000389282 -9.46914e-05      8.02479 
         -70      5.64493 -0.000388802 -9.55776e-05      8.02453 
         -70      5.71803 -0.000388568 -9.63715e-05      8.02427 
         -70      5.79154 -0.000388772 -9.69363e-05        8.024 
         -70      5.86558 -0.000388803 -9.80445e-05      8.02373 
         -70      5.94003 -0.000388195 -9.96556e-05      8.02345 
         -70      6.01501 -0.000387725 -0.000100778      8.02316 
         -70       6.0904 -0.000387322 -0.000101606      8.02288 
         -70      6.16632 -0.000386938 -0.000102295      8.02258 
         -70      6.24271 -0.000386544 -0.000102965      8.02228 
         -70       6.3195 -0.000386124 -0.000103698      8.02198 
         -70      6.39683 -0.000385671 -0.000104545      8.02167 
         -70      6.47457 -0.000385189 -0.000105526      8.02135 
         -70      6.55284  -0.00038468 -0.000106639      8.02103 
         -70      6.63152 -0.000384152 -0.000107858      8.02071 
         -70      6.71073 -0.000383609 -0.000109147      8.02038 
         -70      6.79034 -0.000383054 -0.000110455      8.02004 
         -70      6.87049 -0.000382484 -0.000111738       8.0197 
         -70      6.95111 -0.000381893 -0.000112954      8.01935 
         -70      7.03214 -0.000381276  -0.00011408        8.019 
         -70       7.1137 -0.000380621 -0.000115123      8.01864 
         -70      7.19566 -0.000379922 -0.000116126      8.01827 
         -70      7.27816 -0.000379176 -0.000117188       8.0179 
         -70      7.36106 -0.000378397  -0.00011847      8.01752 
         -70      7.44451 -0.000377611 -0.000120223      8.01714 
         -70      7.52842 -0.000376876 -0.000122793      8.01675 
         -70      7.61273 -0.000377025  -0.00012261      8.01635 
         -70      7.69758  -0.00037732 -0.000122199      8.01595 
         -70      7.78283 -0.000377657 -0.000122053      8.01555 
         -70      7.86862 -0.000378088 -0.000122645      8.01513 
         -70      7.95481 -0.000377618 -0.000124236      8.01471 
         -70      8.04155 -0.000375406 -0.000125213      8.01429 
         -70      8.12868 -0.000373708 -0.000125954      8.01385 
         -70      8.21635  -0.00037243 -0.000126616      8.01342 
         -70      8.30449 -0.000371483 -0.000127272      8.01297 
         -70      8.39303 -0.000370784 -0.000127933      8.01252 
         -70      8.48211 -0.000370313 -0.000128696      8.01206 
         -70      8.57159 -0.000370841  -0.00013154      8.01159 
         -70      8.66161 -0.000371052 -0.000134001      8.01112 
         -70      8.75203 -0.000370858 -0.000135898      8.01065 
         -70      8.84299  -0.00037025 -0.000137158      8.01016 
         -70      8.93443 -0.000369282 -0.000137791      8.00967 
         -70      9.02626 -0.000368051 -0.000137889      8.00917 
         -70      9.11863 -0.000366678 -0.000137606      8.00867 
         -70      9.21139 -0.000365294 -0.000137135      8.00815 
         -70      9.30471  -0.00036402 -0.000136691      8.00763 
         -70      9.39841 -0.000362955 -0.000136482      8.00711 
         -70      9.49267 -0.000362156 -0.000136677      8.00657 
         -70      9.58739 -0.000361632 -0.000137374      8.00603 
         -70      9.68251 -0.000361323 -0.000138559      8.00549 
         -70      9.77817 -0.000361096 -0.000140063      8.00493 
         -70      9.87422 -0.000360732 -0.000141511      8.00437 
         -70      9.97083 -0.000359922 -0.000142269       8.0038 
         -70      10.0678  -0.00035826 -0.000141383      8.00323 
         -70      10.1654 -0.000355858 -0.000140104      8.00264 
         -70      10.2633 -0.000354593 -0.000142239      8.00205 
         -70      10.3618 -0.000353895 -0.000143962      8.00145 
         -70      10.4607 -0.000353545 -0.000145335      8.00085 
         -70      10.5601 -0.000353337 -0.000146412      8.00023 
         -70        10.66 -0.000353075 -0.000147242      7.99961 
         -70      10.7603 -0.000352588 -0.000147863      7.99898 
         -70      10.8611 -0.000351722 -0.000148299      7.99835 
         -70      10.9623 -0.000350359 -0.000148557       7.9977 
         -70      11.0641 -0.000348406 -0.000148622      7.99705 
         -70      11.1663 -0.000347044  -0.00014905      7.99639 
         -70       11.269 -0.000346918 -0.000149984      7.99573 
         -70      11.3721 -0.000346734 -0.000150873      7.99505 
         -70      11.4757  -0.00034643 -0.000151791      7.99437 
         -70      11.5798 -0.000345957 -0.000152773      7.99368 
         -70      11.6844 -0.000345284 -0.000153815      7.99299 
         -70      11.7894 -0.000344398 -0.000154892      7.99228 
         -70       11.895 -0.000343307 -0.000155962      7.99157 
         -70      12.0009 -0.000342037 -0.000156975      7.99084 
         -70      12.1073  -0.00034063 -0.000157888      7.99012 
         -70      12.2142 -0.000339146 -0.000158659      7.98938 
         -70      12.3216 -0.000337656 -0.000159269      7.98863 
         -70      12.4294 -0.000336238 -0.000159715      7.98788 
         -70      12.5378  -0.00033497 -0.000160022      7.98712 
         -70      12.6465 -0.000333926 -0.000160244      7.98635 
         -70      12.7558 -0.000333161 -0.000160465      7.98557 
         -70      12.8656 -0.000332707 -0.000160803      7.98479 
         -70      12.9757 -0.000332553 -0.000161402      7.98399 
         -70      13.0864 -0.000332637 -0.000162441      7.98319 
         -70      13.1975 -0.000332825 -0.000164115      7.98238 
         -70      13.3092 -0.000332892 -0.000166644      7.98156 
         -70      13.4212 -0.000331333 -0.000166843      7.98074 
         -70      13.5338  -0.00032902 -0.000165437       7.9799 
         -70      13.6468 -0.000327081 -0.000164949      7.97906 
         -70      13.7603 -0.000325421 -0.000165097      7.97821 
         -70      13.8743  -0.00032396 -0.000165651      7.97735 
         -70      13.9886  -0.00032264 -0.000166431      7.97648 
         -70      14.1036  -0.00032141 -0.000167302      7.97561 
         -70      14.2189 -0.000320237 -0.000168162      7.97472 
         -70      14.3348 -0.000319094 -0.000168945      7.97383 
         -70       14.451 -0.000317966 -0.000169608      7.97293 
         -70      14.5678 -0.000316844 -0.000170133      7.97202 
         -70      14.6851 -0.000315725 -0.000170516       7.9711 
         -70      14.8028 -0.000314612 -0.000170768      7.97018 
         -70       14.921 -0.000313507 -0.000170907      7.96924 
         -70      15.0396 -0.000312419 -0.000170956       7.9683 
         -70      15.1588 -0.000311353  -0.00017094      7.96735 
         -70      15.2783 -0.000310316 -0.000170882      7.96639 
         -70      15.3984 -0.000309312 -0.000170804      7.96542 
         -70       15.519 -0.000308344  -0.00017072      7.96445 
         -70        15.64  -0.00030741 -0.000170641      7.96347 
         -70      15.7615 -0.000306504 -0.000170571      7.96247 
         -70      15.8834 -0.000305619 -0.000170509      7.96147 
         -70      16.0058  -0.00030474 -0.000170449      7.96046 
         -70      16.1286 -0.000303849 -0.000170385      7.95945 
         -70       16.252 -0.000302925 -0.000170314      7.95842 
         -70      16.3759 -0.000301942 -0.000170236      7.95739 
         -70      16.5002 -0.000300872 -0.000170167      7.95635 
         -70       16.625 -0.000299683 -0.000170138       7.9553 
         -70      16.7501 -0.000298348  -0.00017021      7.95424 
         -70      16.8759 -0.000296834 -0.000170478      7.95317 
         -70       17.002 -0.000295118 -0.000171084       7.9521 
         -70      17.1287 -0.000293176 -0.000172233      7.95101 
         -70      17.2557 -0.000292246 -0.000173733      7.94992 
         -70      17.3834 -0.000291394 -0.000175756      7.94882 
         -70      17.5115 -0.000290392 -0.000177957      7.94772 
         -70      17.6399 -0.000289074 -0.000179889       7.9466 
         -70       17.769  -0.00028712 -0.000179526      7.94548 
         -70      17.8984 -0.000285372 -0.000178983      7.94434 
         -70      18.0284 -0.000283993 -0.000178371       7.9432 
         -70      18.1587 -0.000283091 -0.000177597      7.94205 
         -70      18.2896 -0.000282773 -0.000176544       7.9409 
         -70       18.421 -0.000282849 -0.000176067      7.93973 
         -70      18.5528 -0.000282308 -0.000178247      7.93856 
         -70      18.6851 -0.000281702 -0.000180246      7.93738 
         -70      18.8178 -0.000280999 -0.000182013      7.93619 
         -70      18.9511 -0.000280182  -0.00018352        7.935 
         -70      19.0847 -0.000279247 -0.000184754      7.93379 
         -70      19.2189 -0.000278197 -0.000185716      7.93258 
         -70      19.3535 -0.000277047 -0.000186419      7.93136 
         -70      19.4886 -0.000275813 -0.000186883      7.93013 
         -70      19.6242 -0.000274517 -0.000187136      7.92889 
         -70      19.7602 -0.000273186 -0.000187208      7.92765 
         -70      19.8968 -0.000271841 -0.000187133       7.9264 
         -70      20.0337 -0.000270506 -0.000186944      7.92514 
         -70      20.1712 -0.000269201 -0.000186671      7.92387 
         -70      20.3091 -0.000267944 -0.000186344       7.9226 
         -70      20.4475 -0.000266744 -0.000185987      7.92132 
         -70      20.5864  -0.00026561 -0.000185621      7.92003 
         -70      20.7257 -0.000264544  -0.00018526      7.91873 
         -70      20.8655 -0.000263539 -0.000184915      7.91743 
         -70      21.0058 -0.000262586  -0.00018459      7.91612 
         -70      21.1465 -0.000261667 -0.000184287       7.9148 
         -70      21.2877 -0.000260766 -0.000184003      7.91347 
         -70      21.4294 -0.000259856 -0.000183735      7.91214 
         -70      21.5716 -0.000258914  -0.00018348      7.91079 
         -70      21.7142 -0.000257915 -0.000183239      7.90945 
         -70      21.8573 -0.000256837 -0.000183018      7.90809 
         -70      22.0008 -0.000255664 -0.000182835      7.90673 
         -70      22.1449 -0.000254387 -0.000182721      7.90536 
         -70      22.2893 -0.000253014 -0.000182728      7.90398 
         -70      22.4344 -0.000251563 -0.000182931      7.90259 
         -70      22.5797 -0.000250081 -0.000183439       7.9012 
         -70      22.7257 -0.000248637 -0.000184398       7.8998 
         -70      22.8721 -0.000247313 -0.000184451       7.8984 
         -70      23.0189 -0.000245885 -0.000183448      7.89699 
         -70      23.1663 -0.000244336 -0.000182929      7.89557 
         -70       23.314 -0.000242736  -0.00018276      7.89414 
         -70      23.4623 -0.000241137 -0.000182821      7.89271 
         -70       23.611 -0.000239589  -0.00018301      7.89127 
         -70      23.7602 -0.000238126 -0.000183239      7.88982 
         -70        23.91 -0.000236777 -0.000183435      7.88837 
         -70        24.06  -0.00023556 -0.000183541      7.88691 
         -70      24.2107 -0.000234481 -0.000183518      7.88545 
         -70      24.3617  -0.00023354  -0.00018334      7.88398 
         -70      24.5133 -0.000232727 -0.000182998       7.8825 
         -70      24.6653  -0.00023202 -0.000182501      7.88101 
         -70      24.8178 -0.000231389 -0.000181872      7.87952 
         -70      24.9708 -0.000230795  -0.00018115      7.87802 
         -70      25.1242 -0.000230189 -0.000180394      7.87652 
         -70      25.2781 -0.000229511 -0.000179674      7.87501 
         -70      25.4324 -0.000228691 -0.000179079       7.8735 
         -70      25.5873 -0.000227649 -0.000178715      7.87198 
         -70      25.7426 -0.000226295 -0.000178702      7.87045 
         -70      25.8984 -0.000224525 -0.000179176      7.86891 
         -70      26.0546 -0.000222229  -0.00018029      7.86738 
         -70      26.2114 -0.000219277 -0.000182214      7.86583 
         -70      26.3686 -0.000218004 -0.000182043      7.86428 
         -70      26.5262 -0.000217144 -0.000181668      7.86273 
         -70      26.6844 -0.000216357 -0.000181401      7.86116 
         -70      26.8429 -0.000215607 -0.000181178       7.8596 
         -70       27.002 -0.000214858 -0.000180948      7.85803 
         -70      27.1615 -0.000214082 -0.000180677      7.85645 
         -70      27.3216 -0.000213257  -0.00018034      7.85487 
         -70      27.4821 -0.000212364 -0.000179924      7.85328 
         -70       27.643 -0.000211394 -0.000179426      7.85168 
         -70      27.8044 -0.000210337 -0.000178855      7.85008 
         -70      27.9663 -0.000209194 -0.000178224      7.84848 
         -70      28.1287 -0.000207966 -0.000177557      7.84687 
         -70      28.2914 -0.000206664 -0.000176884      7.84526 
         -70      28.4548 -0.000205298 -0.000176238      7.84364 
         -70      28.6185 -0.000203889 -0.000175659      7.84202 
         -70      28.7828 -0.000202457 -0.000175188      7.84039 
         -70      28.9475  -0.00020103  -0.00017487      7.83875 
         -70      29.1126  -0.00019964 -0.000174751      7.83712 
         -70      29.2784 -0.000198322 -0.000174875      7.83547 
         -70      29.4444 -0.000197117 -0.000175287      7.83383 
         -70       29.611 -0.000196068 -0.000176028      7.83217 
         -70       29.778 -0.000195664 -0.000177097      7.83052 
         -70      29.9456 -0.000196691  -0.00017828      7.82886 
         -70      30.1137 -0.000197129 -0.000179465      7.82719 
         -70      30.2821 -0.000197034 -0.000180465      7.82553 
         -70      30.4511 -0.000196476 -0.000181164      7.82385 
         -70      30.6204 -0.000195533 -0.000181503      7.82217 
         -70      30.7903 -0.000194287 -0.000181473      7.82049 
         -70      30.9606 -0.000192825   -0.0001811      7.81881 
         -70      31.1315 -0.000191225  -0.00018044      7.81712 
         -70      31.3028 -0.000189567 -0.000179566      7.81542 
         -70      31.4745 -0.000187922 -0.000178562      7.81373 
         -70      31.6468 -0.000186349 -0.000177515      7.81203 
         -70      31.8194   -0.0001849 -0.000176509      7.81032 
         -70      31.9926 -0.000183607 -0.000175616      7.80862 
         -70      32.1662 -0.000182494 -0.000174897       7.8069 
         -70      32.3404 -0.000181568 -0.000174394      7.80519 
         -70      32.5149  -0.00018082  -0.00017413      7.80347 
         -70        32.69 -0.000180228 -0.000174105      7.80175 
         -70      32.8655 -0.000179754 -0.000174301      7.80002 
         -70      33.0414 -0.000179349 -0.000174677       7.7983 
         -70       33.218 -0.000178952  -0.00017518      7.79656 
         -70      33.3948 -0.000178496 -0.000175739      7.79483 
         -70      33.5723 -0.000177906 -0.000176282      7.79309 
         -70        33.75 -0.000177108 -0.000176735      7.79135 
         -70      33.9284  -0.00017603 -0.000177038      7.78961 
         -70      34.1073  -0.00017461  -0.00017715      7.78786 
         -70      34.2865   -0.0001728  -0.00017707      7.78611 
         -70      34.4663 -0.000170572 -0.000176843      7.78436 
         -70      34.6465 -0.000167933 -0.000176586       7.7826 
         -70      34.8272 -0.000164918 -0.000176502      7.78085 
         -70      35.0083 -0.000164839 -0.000174487      7.77909 
         -70        35.19 -0.000161519 -0.000170317      7.77732 
         -70      35.3721 -0.000163755 -0.000171253      7.77556 
         -70      35.5546 -0.000165067 -0.000171876      7.77379 
         -70      35.7377 -0.000165647 -0.000172212      7.77202 
         -70      35.9211 -0.000165654 -0.000172292      7.77025 
         -70      36.1052 -0.000165225 -0.000172153      7.76848 
         -70      36.2895 -0.000164475 -0.000171836       7.7667 
         -70      36.4745 -0.000163498 -0.000171381      7.76492 
         -70      36.6598  -0.00016237  -0.00017083      7.76314 
         -70      36.8457  -0.00016115 -0.000170221      7.76136 
         -70      37.0321 -0.000159885 -0.000169592      7.75957 
         -70      37.2188 -0.000158609 -0.000168976      7.75779 
         -70      37.4062 -0.000157346 -0.000168401        7.756 
         -70      37.5938 -0.000156111 -0.000167889      7.75421 
         -70      37.7821 -0.000154913 -0.000167456      7.75242 
         -70      37.9707 -0.000153757 -0.000167113      7.75062 
         -70      38.1599  -0.00015264 -0.000166862      7.74883 
         -70      38.3496 -0.000151561 -0.000166701      7.74703 
         -70      38.5396 -0.000150517 -0.000166618      7.74524 
         -70      38.7302 -0.000149502 -0.000166599      7.74344 
         -70      38.9211 -0.000148514 -0.000166622      7.74164 
         -70      39.1127  -0.00014755 -0.000166662      7.73983 
         -70      39.3046 -0.000146609 -0.000166693      7.73803 
         -70      39.4971 -0.000145692 -0.000166685      7.73623 
         -70      39.6899 -0.000144805  -0.00016661      7.73442 
         -70      39.8833  -0.00014395 -0.000166444      7.73261 
         -70      40.0772 -0.000143138 -0.000166166       7.7308 
         -70      40.2714 -0.000142376 -0.000165767        7.729 
         -70      40.4663 -0.000141674 -0.000165246      7.72719 
         -70      40.6615 -0.000141041 -0.000164622      7.72538 
         -70      40.8573 -0.000140484 -0.000163927      7.72356 
         -70      41.0534 -0.000140008 -0.000163223      7.72175 
         -70      41.2501  -0.00013961 -0.000162598      7.71994 
         -70      41.4473 -0.000139282 -0.000162173      7.71813 
         -70      41.6448 -0.000139007 -0.000162112      7.71631 
         -70      41.8429  -0.00013819 -0.000161744       7.7145 
         -70      42.0414 -0.000137322 -0.000161177      7.71269 
         -70      42.2405 -0.000136523 -0.000161091      7.71087 
         -70      42.4399 -0.000135693 -0.000160818      7.70906 
         -70      42.6399 -0.000134851 -0.000160413      7.70724 
         -70      42.8404 -0.000134015  -0.00015992      7.70542 
         -70      43.0412 -0.000133197 -0.000159379      7.70361 
         -70      43.2426 -0.000132404  -0.00015882      7.70179 
         -70      43.4444 -0.000131643 -0.000158268      7.69997 
         -70      43.6467 -0.000130915  -0.00015774      7.69815 
         -70      43.8494 -0.000130221 -0.000157251      7.69634 
         -70      44.0527 -0.000129557 -0.000156808      7.69452 
         -70      44.2563 -0.000128921 -0.000156415       7.6927 
         -70      44.4606 -0.000128306 -0.000156074      7.69089 
         -70      44.6653 -0.000127706  -0.00015578      7.68907 
         -70      44.8704 -0.000127114  -0.00015553      7.68725 
         -70       45.076 -0.000126523 -0.000155315      7.68544 
         -70       45.282 -0.000125924 -0.000155127      7.68362 
         -70      45.4886 -0.000125309 -0.000154956       7.6818 
         -70      45.6955 -0.000124672 -0.000154791      7.67999 
         -70       45.903 -0.000124006 -0.000154621      7.67818 
         -70      46.1111 -0.000123305 -0.000154435      7.67636 
         -70      46.3194 -0.000122553 -0.000154209      7.67455 
         -70      46.5283 -0.000121714 -0.000153881      7.67274 
         -70      46.7376 -0.000120852 -0.000153515      7.67092 
         -70      46.9475 -0.000119968 -0.000153108      7.66911 
         -70      47.1577  -0.00011907  -0.00015266       7.6673 
         -70      47.3685 -0.000118164 -0.000152171      7.66549 
         -70      47.5798 -0.000117257 -0.000151648      7.66368 
         -70      47.7914 -0.000116359 -0.000151097      7.66188 
         -70      48.0037 -0.000115477 -0.000150529      7.66007 