Variables = x, y, u, v, p

Zone, I=800, F=POINT
         250            0           -0           -0      20.0877 
         250     0.000234 -1.67071e-07  -6.3389e-12      20.0877 
         250     0.000939 -7.41933e-07 -1.02931e-10      20.0877 
         250     0.002113  -1.9196e-06 -5.23648e-10      20.0877 
         250     0.003759 -3.97543e-06 -1.66596e-09      20.0877 
         250     0.005872 -7.17879e-06 -4.09077e-09      20.0877 
         250     0.008457 -1.17403e-05 -8.54728e-09      20.0877 
         250      0.01151 -1.77201e-05  -1.5963e-08      20.0877 
         250     0.015036  -2.5025e-05 -2.74887e-08      20.0877 
         250     0.019031 -3.33801e-05 -4.44657e-08      20.0877 
         250     0.023493 -4.24021e-05 -6.84551e-08      20.0877 
         250     0.028429 -5.16985e-05 -1.01304e-07      20.0877 
         250     0.033831   -6.092e-05 -1.45003e-07      20.0877 
         250     0.039706 -6.98976e-05 -2.01884e-07      20.0877 
         250     0.046047 -7.86205e-05 -2.74384e-07      20.0877 
         250     0.052863 -8.72249e-05  -3.6533e-07      20.0877 
         250      0.06015 -9.58062e-05 -4.77607e-07      20.0877 
         250       0.0679 -0.000104239 -6.14165e-07      20.0877 
         250     0.076126 -0.000112083 -7.78462e-07      20.0877 
         250     0.084816  -0.00011896 -9.73597e-07      20.0877 
         250     0.093982 -0.000125834 -1.20321e-06      20.0877 
         250     0.103611 -0.000131831 -1.47036e-06      20.0877 
         250     0.113718 -0.000136979 -1.77883e-06      20.0877 
         250     0.124286 -0.000141282 -2.13136e-06      20.0877 
         250     0.135333 -0.000144741 -2.53165e-06      20.0877 
         250      0.14685 -0.000147338 -2.98229e-06      20.0877 
         250     0.158827 -0.000149052  -3.4855e-06      20.0877 
         250     0.171284 -0.000149874 -4.04446e-06      20.0877 
         250     0.184201  -0.00014981 -4.66029e-06      20.0877 
         250     0.197599 -0.000148894 -5.33566e-06      20.0877 
         250     0.211455 -0.000147195 -6.07067e-06      20.0877 
         250     0.225792 -0.000144789 -6.86742e-06      20.0877 
         250       0.2406 -0.000141719 -7.72578e-06      20.0877 
         250     0.255865 -0.000137998 -8.64483e-06      20.0877 
         250     0.271613 -0.000133801 -9.62619e-06      20.0877 
         250     0.287818 -0.000129169 -1.06675e-05      20.0877 
         250     0.304506 -0.000124181 -1.17692e-05      20.0877 
         250      0.32165 -0.000118936  -1.2928e-05      20.0877 
         250     0.339278 -0.000113511 -1.41443e-05      20.0877 
         250     0.357377 -0.000107994 -1.54153e-05      20.0877 
         250      0.37593  -0.00010247  -1.6738e-05      20.0877 
         250     0.394968 -9.70015e-05 -1.81123e-05      20.0877 
         250     0.414461 -9.16647e-05 -1.95341e-05      20.0877 
         250      0.43444 -8.65106e-05  -2.1003e-05      20.0877 
         250     0.454872 -8.15998e-05 -2.25143e-05      20.0877 
         250     0.475791 -7.69683e-05 -2.40679e-05      20.0877 
         250     0.497163 -7.26604e-05 -2.56587e-05      20.0877 
         250     0.519021 -6.86985e-05 -2.72866e-05      20.0877 
         250      0.54135 -6.51069e-05  -2.8948e-05      20.0877 
         250     0.564131  -6.1901e-05 -3.06392e-05      20.0877 
         250       0.5874 -5.90791e-05 -3.23612e-05      20.0877 
         250     0.611121 -5.66365e-05 -3.41102e-05      20.0877 
         250      0.63533 -5.45613e-05 -3.58842e-05      20.0877 
         250      0.65999 -5.28582e-05 -3.76751e-05      20.0877 
         250     0.685139 -5.14937e-05 -3.94845e-05      20.0877 
         250     0.710759  -5.0435e-05 -4.13097e-05      20.0877 
         250     0.736828 -4.96462e-05 -4.31472e-05      20.0877 
         250     0.763387 -4.90872e-05 -4.49976e-05      20.0877 
         250     0.790396 -4.87183e-05 -4.68556e-05      20.0877 
         250     0.817896 -4.84977e-05  -4.8721e-05      20.0877 
         250     0.845843  -4.8384e-05 -5.05878e-05      20.0877 
         250     0.874283 -4.83354e-05 -5.24558e-05      20.0877 
         250      0.90317  -4.8312e-05 -5.43186e-05      20.0877 
         250     0.932551 -4.82752e-05 -5.61759e-05      20.0877 
         250     0.962401 -4.81894e-05 -5.80228e-05      20.0877 
         250     0.992697 -4.80225e-05 -5.98548e-05      20.0877 
         250      1.02349 -4.77461e-05 -6.16721e-05      20.0877 
         250      1.05472 -4.73375e-05 -6.34689e-05      20.0877 
         250      1.08645 -4.67784e-05 -6.52462e-05      20.0877 
         250      1.11863  -4.6058e-05 -6.69992e-05      20.0877 
         250       1.1513 -4.51696e-05 -6.87293e-05      20.0877 
         250      1.18444 -4.41147e-05 -7.04338e-05      20.0877 
         250      1.21802 -4.29017e-05 -7.21106e-05      20.0877 
         250      1.25211 -4.15416e-05 -7.37614e-05      20.0877 
         250      1.28663 -4.00547e-05 -7.53826e-05      20.0877 
         250      1.32165 -3.84607e-05 -7.69753e-05      20.0877 
         250      1.35712  -3.6786e-05 -7.85342e-05      20.0877 
         250      1.39308 -3.50516e-05 -8.00577e-05      20.0877 
         250      1.42951 -3.32792e-05 -8.15383e-05      20.0877 
         250      1.46638 -3.14833e-05 -8.29652e-05      20.0877 
         250      1.50375 -2.96623e-05 -8.43268e-05      20.0877 
         250      1.54156 -2.76431e-05 -8.56942e-05      20.0877 
         250      1.57987 -2.56883e-05 -8.70237e-05      20.0877 
         250      1.61863 -2.38045e-05 -8.83057e-05      20.0877 
         250      1.65788 -2.19762e-05 -8.95398e-05      20.0877 
         250      1.69757  -2.0195e-05 -9.07215e-05      20.0877 
         250      1.73776 -1.84482e-05 -9.18508e-05      20.0877 
         250      1.77842 -1.67284e-05 -9.29247e-05      20.0877 
         250      1.81952 -1.50297e-05 -9.39403e-05      20.0877 
         250      1.86113 -1.33433e-05 -9.48976e-05      20.0877 
         250      1.90316 -1.16675e-05 -9.57934e-05      20.0877 
         250      1.94571 -9.99653e-06 -9.66277e-05      20.0877 
         250      1.98869 -8.33126e-06 -9.73979e-05      20.0877 
         250      2.03217 -6.66864e-06  -9.8104e-05      20.0877 
         250      2.07612 -5.01101e-06 -9.87445e-05      20.0877 
         250      2.12051 -3.36186e-06  -9.9318e-05      20.0877 
         250       2.1654 -1.72196e-06 -9.98249e-05      20.0877 
         250      2.21073 -9.83646e-08 -0.000100264      20.0877 
         250      2.25656  1.50609e-06 -0.000100635      20.0877 
         250      2.30283  3.08263e-06 -0.000100938      20.0877 
         250       2.3496  4.62678e-06 -0.000101173      20.0877 
         250      2.39685  6.12984e-06  -0.00010134      20.0877 
         250      2.44452  7.58283e-06  -0.00010144      20.0877 
         250      2.49271  8.98006e-06 -0.000101472      20.0877 
         250      2.54132  1.03114e-05 -0.000101438      20.0877 
         250      2.59044  1.15713e-05 -0.000101337      20.0877 
         250         2.64  1.27506e-05 -0.000101172      20.0877 
         250      2.69006  1.38445e-05 -0.000100941      20.0877 
         250      2.74056  1.48459e-05 -0.000100648      20.0877 
         250      2.79156  1.57519e-05 -0.000100292      20.0877 
         250      2.84304  1.65587e-05  -9.9874e-05      20.0877 
         250      2.89494  1.72644e-05 -9.93961e-05      20.0877 
         250      2.94735  1.78708e-05 -9.88583e-05      20.0877 
         250       3.0002  1.83795e-05 -9.82625e-05      20.0877 
         250      3.05355  1.87961e-05 -9.76087e-05      20.0877 
         250      3.10733  1.91275e-05 -9.68988e-05      20.0877 
         250      3.16163  1.93839e-05 -9.61323e-05      20.0877 
         250      3.21639   1.9578e-05 -9.53105e-05      20.0877 
         250      3.27158  1.97249e-05 -9.44345e-05      20.0877 
         250      3.32729  1.98433e-05 -9.35031e-05      20.0877 
         250      3.38342  1.99539e-05 -9.25179e-05      20.0877 
         250      3.44007  2.00807e-05 -9.14771e-05      20.0877 
         250      3.49714  2.02498e-05 -9.03818e-05      20.0877 
         250      3.55472    2.049e-05 -8.92294e-05      20.0877 
         250      3.61273  2.08315e-05 -8.80204e-05      20.0877 
         250      3.67125  2.13068e-05 -8.67515e-05      20.0877 
         250      3.73025   2.1949e-05 -8.54215e-05      20.0877 
         250      3.78967  2.25963e-05 -8.41349e-05      20.0877 
         250      3.84961  2.32087e-05 -8.28561e-05      20.0877 
         250      3.90996  2.38163e-05 -8.15618e-05      20.0877 
         250      3.97084  2.43877e-05 -8.02703e-05      20.0877 
         250      4.03214  2.48972e-05 -7.89985e-05      20.0877 
         250      4.09395   2.5327e-05 -7.77542e-05      20.0877 
         250      4.15624  2.56643e-05 -7.65447e-05      20.0877 
         250      4.21895  2.59013e-05 -7.53738e-05      20.0877 
         250      4.28217  2.60351e-05 -7.42402e-05      20.0877 
         250      4.34582  2.60656e-05 -7.31449e-05      20.0877 
         250      4.40998  2.59958e-05 -7.20842e-05      20.0877 
         250      4.47457  2.58306e-05 -7.10579e-05      20.0877 
         250      4.53968  2.55761e-05 -7.00625e-05      20.0877 
         250      4.60525  2.52399e-05 -6.90979e-05      20.0877 
         250      4.67125  2.48303e-05 -6.81647e-05      20.0877 
         250      4.73777  2.43549e-05 -6.72625e-05      20.0877 
         250       4.8047  2.38229e-05 -6.63947e-05      20.0877 
         250      4.87216  2.32427e-05 -6.55625e-05      20.0877 
         250      4.94003  2.26248e-05   -6.477e-05      20.0877 
         250      5.00843  2.19795e-05 -6.40179e-05      20.0877 
         250      5.07724  2.13211e-05 -6.33071e-05      20.0877 
         250      5.14658  2.06657e-05 -6.26329e-05      20.0877 
         250      5.21639  2.00359e-05 -6.19864e-05      20.0877 
         250      5.28661  1.93999e-05 -6.12183e-05      20.0877 
         250      5.35736  1.87227e-05 -6.04176e-05      20.0877 
         250      5.42852  1.80182e-05 -5.96759e-05      20.0877 
         250      5.50021  1.73397e-05  -5.9051e-05      20.0877 
         250      5.57231  1.67113e-05 -5.84197e-05      20.0877 
         250      5.64493  1.60738e-05 -5.77016e-05      20.0877 
         250      5.71803  1.54509e-05 -5.69313e-05      20.0877 
         250      5.79154  1.49032e-05 -5.62094e-05      20.0877 
         250      5.86558   1.4423e-05 -5.55643e-05      20.0877 
         250      5.94003  1.39401e-05 -5.49047e-05      20.0877 
         250      6.01501  1.34533e-05 -5.42334e-05      20.0877 
         250       6.0904  1.29659e-05 -5.35559e-05      20.0877 
         250      6.16632  1.24812e-05 -5.28752e-05      20.0877 
         250      6.24271  1.20046e-05 -5.21954e-05      20.0877 
         250       6.3195  1.15412e-05 -5.15198e-05      20.0877 
         250      6.39683  1.10946e-05 -5.08485e-05      20.0877 
         250      6.47457  1.06688e-05 -5.01825e-05      20.0877 
         250      6.55284  1.02646e-05 -4.95194e-05      20.0877 
         250      6.63152  9.88254e-06 -4.88579e-05      20.0877 
         250      6.71073  9.52042e-06 -4.81942e-05      20.0877 
         250      6.79034  9.17579e-06 -4.75269e-05      20.0877 
         250      6.87049  8.84432e-06  -4.6854e-05      20.0877 
         250      6.95111  8.52266e-06 -4.61777e-05      20.0877 
         250      7.03214   8.2088e-06 -4.55051e-05      20.0877 
         250       7.1137  7.90288e-06 -4.48478e-05      20.0877 
         250      7.19566  7.61101e-06 -4.42293e-05      20.0877 
         250      7.27816   7.3458e-06 -4.36828e-05      20.0877 
         250      7.36106  7.11023e-06 -4.30482e-05      20.0877 
         250      7.44451  6.88006e-06 -4.23403e-05      20.0877 
         250      7.52842  6.65537e-06 -4.17014e-05      20.0877 
         250      7.61273  6.43164e-06 -4.10985e-05      20.0877 
         250      7.69758   6.2062e-06 -4.05078e-05      20.0877 
         250      7.78283  5.97902e-06 -3.99168e-05      20.0877 
         250      7.86862  5.75079e-06 -3.93182e-05      20.0877 
         250      7.95481  5.52392e-06 -3.87121e-05      20.0877 
         250      8.04155  5.30065e-06 -3.81008e-05      20.0877 
         250      8.12868  5.08412e-06 -3.74907e-05      20.0877 
         250      8.21635  4.87661e-06 -3.68871e-05      20.0877 
         250      8.30449  4.68044e-06 -3.62968e-05      20.0877 
         250      8.39303  4.49713e-06 -3.57247e-05      20.0877 
         250      8.48211  4.32689e-06 -3.51723e-05      20.0877 
         250      8.57159  4.16942e-06 -3.46399e-05      20.0877 
         250      8.66161   4.0228e-06 -3.41228e-05      20.0877 
         250      8.75203  3.88457e-06 -3.36144e-05      20.0877 
         250      8.84299  3.75985e-06 -3.31002e-05      20.0877 
         250      8.93443  3.65457e-06 -3.25664e-05      20.0877 
         250      9.02626  3.54198e-06 -3.20269e-05      20.0877 
         250      9.11863  3.42202e-06 -3.14875e-05      20.0877 
         250      9.21139   3.2955e-06  -3.0955e-05      20.0877 
         250      9.30471  3.16358e-06 -3.04311e-05      20.0877 
         250      9.39841  3.02909e-06 -2.99133e-05      20.0877 
         250      9.49267  2.89636e-06 -2.93876e-05      20.0877 
         250      9.58739  2.77308e-06 -2.88268e-05      20.0877 
         250      9.68251  2.66287e-06  -2.8321e-05      20.0877 
         250      9.77817  2.53829e-06 -2.78882e-05      20.0877 
         250      9.87422  2.41066e-06 -2.74697e-05      20.0877 
         250      9.97083  2.29992e-06 -2.70547e-05      20.0877 
         250      10.0678  2.22958e-06 -2.66299e-05      20.0877 
         250      10.1654  2.20431e-06 -2.61636e-05      20.0877 
         250      10.2633  2.12741e-06 -2.56565e-05      20.0877 
         250      10.3618  2.05071e-06 -2.51914e-05      20.0877 
         250      10.4607  1.97738e-06 -2.47586e-05      20.0877 
         250      10.5601  1.90953e-06 -2.43495e-05      20.0877 
         250        10.66   1.8482e-06 -2.39563e-05      20.0877 
         250      10.7603  1.79389e-06 -2.35739e-05      20.0877 
         250      10.8611  1.74629e-06 -2.31972e-05      20.0877 
         250      10.9623   1.7048e-06 -2.28235e-05      20.0877 
         250      11.0641  1.66835e-06 -2.24501e-05      20.0877 
         250      11.1663  1.63576e-06 -2.20761e-05      20.0877 
         250       11.269  1.60575e-06 -2.17013e-05      20.0877 
         250      11.3721  1.57702e-06 -2.13254e-05      20.0877 
         250      11.4757  1.54846e-06 -2.09501e-05      20.0877 
         250      11.5798  1.51909e-06 -2.05758e-05      20.0877 
         250      11.6844   1.4883e-06 -2.02048e-05      20.0877 
         250      11.7894  1.45572e-06 -1.98382e-05      20.0877 
         250       11.895  1.42142e-06 -1.94778e-05      20.0877 
         250      12.0009  1.38583e-06 -1.91255e-05      20.0877 
         250      12.1073   1.3497e-06 -1.87817e-05      20.0877 
         250      12.2142  1.31419e-06 -1.84475e-05      20.0877 
         250      12.3216  1.28065e-06 -1.81222e-05      20.0877 
         250      12.4294  1.25071e-06 -1.78054e-05      20.0877 
         250      12.5378  1.22595e-06 -1.74944e-05      20.0877 
         250      12.6465  1.20796e-06 -1.71866e-05      20.0877 
         250      12.7558  1.19795e-06 -1.68767e-05      20.0877 
         250      12.8656  1.19668e-06 -1.65589e-05      20.0877 
         250      12.9757  1.20404e-06 -1.62255e-05      20.0877 
         250      13.0864  1.21887e-06 -1.58662e-05      20.0877 
         250      13.1975  1.23843e-06 -1.54695e-05      20.0877 
         250      13.3092  1.25298e-06 -1.52261e-05      20.0877 
         250      13.4212   1.1975e-06 -1.52366e-05      20.0877 
         250      13.5338  1.09832e-06 -1.52149e-05      20.0877 
         250      13.6468  1.06152e-06 -1.47994e-05      20.0877 
         250      13.7603  1.04121e-06 -1.44452e-05      20.0877 
         250      13.8743  1.03188e-06 -1.41406e-05      20.0877 
         250      13.9886  1.02922e-06 -1.38746e-05      20.0877 
         250      14.1036  1.02995e-06 -1.36349e-05      20.0877 
         250      14.2189  1.03161e-06 -1.34115e-05      20.0877 
         250      14.3348  1.03248e-06 -1.31952e-05      20.0877 
         250       14.451  1.03141e-06   -1.298e-05      20.0877 
         250      14.5678   1.0277e-06 -1.27618e-05      20.0877 
         250      14.6851  1.02104e-06 -1.25398e-05      20.0877 
         250      14.8028  1.01144e-06 -1.23163e-05      20.0877 
         250       14.921  9.99149e-07 -1.20952e-05      20.0877 
         250      15.0396  9.84712e-07 -1.18831e-05      20.0877 
         250      15.1588  9.68907e-07 -1.16866e-05      20.0877 
         250      15.2783  9.52887e-07 -1.15131e-05      20.0877 
         250      15.3984  9.38171e-07  -1.1367e-05      20.0877 
         250       15.519   9.2686e-07 -1.12499e-05      20.0877 
         250        15.64  9.21757e-07 -1.11569e-05      20.0877 
         250      15.7615   9.2658e-07 -1.10741e-05      20.0877 
         250      15.8834   9.4623e-07  -1.0976e-05      20.0877 
         250      16.0058  9.87154e-07 -1.08211e-05      20.0877 
         250      16.1286  1.05756e-06 -1.05486e-05      20.0877 
         250       16.252  1.16816e-06 -1.00725e-05      20.0877 
         250      16.3759  1.22712e-06 -1.02853e-05      20.0877 
         250      16.5002  1.26974e-06 -1.02685e-05      20.0877 
         250       16.625  1.29177e-06 -1.00961e-05      20.0876 
         250      16.7501  1.29227e-06 -9.85532e-06      20.0876 
         250      16.8759  1.27497e-06 -9.60757e-06      20.0876 
         250       17.002  1.24664e-06 -9.39117e-06      20.0876 
         250      17.1287  1.21549e-06 -9.22215e-06      20.0876 
         250      17.2557  1.18993e-06 -9.09883e-06      20.0876 
         250      17.3834  1.17705e-06 -9.00517e-06      20.0876 
         250      17.5115   1.1816e-06 -8.91694e-06      20.0876 
         250      17.6399  1.20481e-06 -8.80818e-06      20.0876 
         250       17.769  1.24356e-06 -8.65899e-06      20.0876 
         250      17.8984  1.28952e-06 -8.46554e-06      20.0876 
         250      18.0284  1.32873e-06 -8.24998e-06      20.0876 
         250      18.1587  1.34099e-06 -8.07399e-06      20.0876 
         250      18.2896  1.29986e-06 -8.05163e-06      20.0876 
         250       18.421  1.17255e-06 -8.36627e-06      20.0876 
         250      18.5528  1.21458e-06 -8.20335e-06      20.0876 
         250      18.6851  1.30386e-06 -7.81954e-06      20.0876 
         250      18.8178   1.3485e-06 -7.53687e-06      20.0876 
         250      18.9511  1.35898e-06 -7.34088e-06      20.0876 
         250      19.0847  1.34355e-06 -7.21911e-06      20.0876 
         250      19.2189  1.30822e-06 -7.15936e-06      20.0876 
         250      19.3535  1.25673e-06 -7.15004e-06      20.0876 
         250      19.4886  1.19026e-06 -7.17925e-06      20.0876 
         250      19.6242  1.10754e-06 -7.23444e-06      20.0876 
         250      19.7602  1.04682e-06  -7.2503e-06      20.0876 
         250      19.8968  1.06999e-06 -7.11428e-06      20.0876 
         250      20.0337  1.12375e-06 -6.89133e-06      20.0876 
         250      20.1712  1.19629e-06 -6.62255e-06      20.0876 
         250      20.3091   1.2754e-06 -6.35445e-06      20.0876 
         250      20.4475  1.34967e-06 -6.12583e-06      20.0876 
         250      20.5864  1.40893e-06 -5.96088e-06      20.0876 
         250      20.7257  1.44534e-06 -5.86381e-06      20.0876 
         250      20.8655  1.45429e-06 -5.81817e-06      20.0876 
         250      21.0058   1.4351e-06 -5.79095e-06      20.0876 
         250      21.1465  1.39198e-06 -5.74038e-06      20.0876 
         250      21.2877  1.33496e-06 -5.62928e-06      20.0876 
         250      21.4294  1.28061e-06 -5.44286e-06      20.0876 
         250      21.5716  1.25313e-06 -5.21308e-06      20.0876 
         250      21.7142  1.28509e-06 -5.04809e-06      20.0876 
         250      21.8573  1.41839e-06 -5.16767e-06      20.0876 
         250      22.0008  1.50551e-06  -5.3912e-06      20.0876 
         250      22.1449  1.43254e-06 -5.25182e-06      20.0876 
         250      22.2893  1.38683e-06 -5.16119e-06      20.0876 
         250      22.4344  1.36002e-06  -5.1061e-06      20.0876 
         250      22.5797  1.34535e-06  -5.0764e-06      20.0876 
         250      22.7257  1.33738e-06 -5.06425e-06      20.0876 
         250      22.8721   1.3321e-06 -5.06386e-06      20.0876 
         250      23.0189  1.32675e-06 -5.07093e-06      20.0876 
         250      23.1663  1.31985e-06 -5.08219e-06      20.0876 
         250       23.314  1.31113e-06 -5.09493e-06      20.0876 
         250      23.4623  1.30147e-06 -5.10647e-06      20.0876 
         250       23.611  1.29291e-06 -5.11364e-06      20.0876 
         250      23.7602  1.28856e-06 -5.11224e-06      20.0876 
         250        23.91  1.29261e-06 -5.09649e-06      20.0876 
         250        24.06  1.31031e-06  -5.0585e-06      20.0876 
         250      24.2107    1.354e-06   -5.001e-06      20.0876 
         250      24.3617  1.39335e-06 -4.92724e-06      20.0876 
         250      24.5133  1.42175e-06 -4.83782e-06      20.0876 
         250      24.6653  1.44054e-06 -4.73684e-06      20.0876 
         250      24.8178  1.45108e-06 -4.62786e-06      20.0876 
         250      24.9708   1.4546e-06 -4.51439e-06      20.0876 
         250      25.1242  1.45237e-06 -4.39958e-06      20.0876 
         250      25.2781  1.44563e-06 -4.28595e-06      20.0876 
         250      25.4324  1.43569e-06 -4.17595e-06      20.0876 
         250      25.5873  1.42382e-06 -4.07121e-06      20.0876 
         250      25.7426  1.41137e-06 -3.97329e-06      20.0876 
         250      25.8984  1.39964e-06 -3.88296e-06      20.0876 
         250      26.0546  1.38991e-06 -3.80085e-06      20.0876 
         250      26.2114  1.38338e-06 -3.72691e-06      20.0876 
         250      26.3686  1.38111e-06 -3.66092e-06      20.0876 
         250      26.5262  1.38396e-06 -3.60235e-06      20.0876 
         250      26.6844  1.39248e-06 -3.55025e-06      20.0876 
         250      26.8429   1.4068e-06 -3.50374e-06      20.0876 
         250       27.002  1.42658e-06 -3.46169e-06      20.0876 
         250      27.1615  1.45077e-06 -3.42322e-06      20.0876 
         250      27.3216  1.47755e-06 -3.38754e-06      20.0876 
         250      27.4821  1.50408e-06 -3.35433e-06      20.0876 
         250       27.643   1.5263e-06 -3.32381e-06      20.0876 
         250      27.8044  1.53882e-06 -3.29693e-06      20.0876 
         250      27.9663  1.53456e-06 -3.27571e-06      20.0876 
         250      28.1287  1.50453e-06 -3.26336e-06      20.0876 
         250      28.2914   1.4376e-06 -3.26469e-06      20.0876 
         250      28.4548  1.31998e-06  -3.2863e-06      20.0876 
         250      28.6185  1.36188e-06 -3.26589e-06      20.0876 
         250      28.7828  1.56605e-06 -3.18618e-06      20.0876 
         250      28.9475  1.70451e-06 -3.11388e-06      20.0876 
         250      29.1126  1.78642e-06 -3.04804e-06      20.0876 
         250      29.2784  1.82122e-06  -2.9875e-06      20.0876 
         250      29.4444  1.81813e-06  -2.9313e-06      20.0876 
         250       29.611   1.7862e-06 -2.87838e-06      20.0875 
         250       29.778  1.73411e-06   -2.828e-06      20.0875 
         250      29.9456   1.6699e-06 -2.77944e-06      20.0875 
         250      30.1137    1.601e-06 -2.73232e-06      20.0875 
         250      30.2821  1.53406e-06  -2.6865e-06      20.0875 
         250      30.4511  1.47464e-06 -2.64202e-06      20.0875 
         250      30.6204  1.42744e-06 -2.59927e-06      20.0875 
         250      30.7903  1.39591e-06 -2.55878e-06      20.0875 
         250      30.9606  1.38245e-06 -2.52139e-06      20.0875 
         250      31.1315  1.38818e-06 -2.48796e-06      20.0875 
         250      31.3028  1.41303e-06 -2.45952e-06      20.0875 
         250      31.4745  1.45563e-06 -2.43709e-06      20.0875 
         250      31.6468  1.51356e-06 -2.42151e-06      20.0875 
         250      31.8194  1.58306e-06 -2.41341e-06      20.0875 
         250      31.9926   1.6595e-06 -2.41301e-06      20.0875 
         250      32.1662  1.73707e-06 -2.41996e-06      20.0875 
         250      32.3404  1.80937e-06 -2.43314e-06      20.0875 
         250      32.5149  1.86909e-06 -2.45042e-06      20.0875 
         250        32.69  1.90864e-06 -2.46847e-06      20.0875 
         250      32.8655  1.92005e-06 -2.48239e-06      20.0875 
         250      33.0414  1.89547e-06 -2.48547e-06      20.0875 
         250       33.218  1.81986e-06   -2.457e-06      20.0875 
         250      33.3948  1.72238e-06 -2.39584e-06      20.0875 
         250      33.5723  1.65348e-06 -2.35659e-06      20.0875 
         250        33.75  1.60456e-06 -2.33145e-06      20.0875 
         250      33.9284  1.56741e-06 -2.31389e-06      20.0875 
         250      34.1073  1.53496e-06 -2.29867e-06      20.0875 
         250      34.2865  1.50138e-06 -2.28172e-06      20.0875 
         250      34.4663  1.46239e-06 -2.25999e-06      20.0875 
         250      34.6465  1.41573e-06 -2.23143e-06      20.0875 
         250      34.8272  1.36126e-06 -2.19476e-06      20.0875 
         250      35.0083  1.30153e-06 -2.14954e-06      20.0875 
         250        35.19  1.24178e-06 -2.09583e-06      20.0875 
         250      35.3721   1.1905e-06 -2.03426e-06      20.0875 
         250      35.5546  1.15961e-06 -1.96591e-06      20.0875 
         250      35.7377  1.16467e-06 -1.89189e-06      20.0875 
         250      35.9211  1.22525e-06 -1.81371e-06      20.0875 
         250      36.1052  1.36529e-06 -1.73258e-06      20.0875 
         250      36.2895  1.60436e-06 -1.66446e-06      20.0875 
         250      36.4745  1.76262e-06  -1.7487e-06      20.0875 
         250      36.6598  1.85296e-06 -1.80884e-06      20.0875 
         250      36.8457  1.88844e-06 -1.85006e-06      20.0875 
         250      37.0321   1.8806e-06 -1.87673e-06      20.0875 
         250      37.2188   1.8399e-06 -1.89266e-06      20.0875 
         250      37.4062   1.7755e-06 -1.90113e-06      20.0875 
         250      37.5938  1.69556e-06 -1.90483e-06      20.0875 
         250      37.7821  1.60696e-06 -1.90597e-06      20.0875 
         250      37.9707  1.51577e-06 -1.90632e-06      20.0875 
         250      38.1599  1.42682e-06 -1.90719e-06      20.0875 
         250      38.3496  1.34421e-06 -1.90954e-06      20.0875 
         250      38.5396  1.27114e-06 -1.91396e-06      20.0875 
         250      38.7302  1.20982e-06 -1.92076e-06      20.0875 
         250      38.9211  1.16191e-06 -1.92993e-06      20.0875 
         250      39.1127  1.12819e-06 -1.94128e-06      20.0874 
         250      39.3046  1.10894e-06 -1.95438e-06      20.0874 
         250      39.4971  1.10376e-06 -1.96869e-06      20.0874 
         250      39.6899  1.11181e-06 -1.98347e-06      20.0874 
         250      39.8833  1.13177e-06 -1.99799e-06      20.0874 
         250      40.0772  1.16197e-06 -2.01137e-06      20.0874 
         250      40.2714  1.20038e-06 -2.02275e-06      20.0874 
         250      40.4663  1.24483e-06 -2.03131e-06      20.0874 
         250      40.6615  1.29289e-06 -2.03623e-06      20.0874 
         250      40.8573  1.34216e-06 -2.03679e-06      20.0874 
         250      41.0534  1.39012e-06 -2.03238e-06      20.0874 
         250      41.2501  1.43444e-06 -2.02252e-06      20.0874 
         250      41.4473  1.47286e-06  -2.0069e-06      20.0874 
         250      41.6448  1.50335e-06  -1.9854e-06      20.0874 
         250      41.8429   1.5243e-06  -1.9581e-06      20.0874 
         250      42.0414   1.5344e-06 -1.92538e-06      20.0874 
         250      42.2405   1.5329e-06 -1.88777e-06      20.0874 
         250      42.4399  1.51962e-06 -1.84624e-06      20.0874 
         250      42.6399  1.49501e-06  -1.8019e-06      20.0874 
         250      42.8404  1.46034e-06  -1.7563e-06      20.0874 
         250      43.0412  1.41776e-06 -1.71131e-06      20.0874 
         250      43.2426  1.37024e-06 -1.66904e-06      20.0874 
         250      43.4444  1.32198e-06 -1.63212e-06      20.0874 
         250      43.6467  1.27815e-06  -1.6034e-06      20.0874 
         250      43.8494  1.24532e-06  -1.5862e-06      20.0874 
         250      44.0527  1.23127e-06 -1.58414e-06      20.0874 
         250      44.2563  1.24531e-06 -1.60126e-06      20.0874 
         250      44.4606   1.2983e-06 -1.64198e-06      20.0874 
         250      44.6653  1.40276e-06 -1.71106e-06      20.0874 
         250      44.8704  1.37798e-06 -1.62672e-06      20.0874 
         250       45.076  1.34344e-06   -1.543e-06      20.0874 
         250       45.282  1.34392e-06 -1.51844e-06      20.0874 
         250      45.4886  1.36977e-06 -1.56051e-06      20.0874 
         250      45.6955  1.40694e-06 -1.67946e-06      20.0874 
         250       45.903  1.43657e-06 -1.88893e-06      20.0874 
         250      46.1111  1.49829e-06 -1.92278e-06      20.0874 
         250      46.3194  1.64043e-06 -1.50744e-06      20.0874 
         250      46.5283   1.7369e-06 -1.20353e-06      20.0874 
         250      46.7376  1.79357e-06 -9.92389e-07      20.0874 
         250      46.9475  1.81658e-06 -8.56387e-07      20.0874 
         250      47.1577  1.81187e-06 -7.80249e-07      20.0874 
         250      47.3685  1.78533e-06 -7.50059e-07      20.0874 
         250      47.5798  1.74268e-06  -7.5374e-07      20.0873 
         250      47.7914  1.68947e-06 -7.80659e-07      20.0873 
         250      48.0037  1.63085e-06 -8.21747e-07      20.0873 