Variables = x, y, u, v, p

Zone, I=800, F=POINT
         -25            0 -3.80005e-19 -1.87632e-23     -103.362 
         -25     0.000234  -1.8833e-05 -9.42231e-10     -103.362 
         -25     0.000939  -7.1035e-05     -3.7e-09     -103.362 
         -25     0.002113 -0.000144061 -8.03925e-09     -103.362 
         -25     0.003759 -0.000221158 -1.36452e-08     -103.362 
         -25     0.005872 -0.000285313 -2.01404e-08     -103.362 
         -25     0.008457 -0.000324666 -2.72079e-08     -103.362 
         -25      0.01151  -0.00033521  -3.4577e-08     -103.362 
         -25     0.015036 -0.000322043 -4.20833e-08     -103.362 
         -25     0.019031 -0.000297252 -4.95938e-08     -103.362 
         -25     0.023493 -0.000275267 -5.69657e-08     -103.362 
         -25     0.028429 -0.000266818 -6.39644e-08     -103.362 
         -25     0.033831 -0.000273949 -7.01495e-08     -103.362 
         -25     0.039706 -0.000288438 -7.48872e-08     -103.362 
         -25     0.046047 -0.000296055 -7.73671e-08     -103.362 
         -25     0.052863 -0.000286821 -7.67554e-08     -103.362 
         -25      0.06015 -0.000267127  -7.2343e-08     -103.362 
         -25       0.0679 -0.000262244 -6.36002e-08     -103.362 
         -25     0.076126  -0.00028554 -4.97259e-08     -103.362 
         -25     0.084816 -0.000262004  -2.8707e-08     -103.362 
         -25     0.093982 -0.000268386 -6.65599e-10     -103.362 
         -25     0.103611 -0.000269315  3.59877e-08     -103.362 
         -25     0.113718 -0.000267734  8.22757e-08     -103.362 
         -25     0.124286 -0.000265751  1.39114e-07     -103.362 
         -25     0.135333 -0.000264534  2.07606e-07     -103.362 
         -25      0.14685 -0.000264392  2.88704e-07     -103.362 
         -25     0.158827 -0.000264993  3.83277e-07     -103.362 
         -25     0.171284 -0.000265731  4.92363e-07     -103.362 
         -25     0.184201 -0.000266147  6.16559e-07     -103.362 
         -25     0.197599  -0.00026629  7.56719e-07     -103.362 
         -25     0.211455 -0.000266808  9.13126e-07     -103.362 
         -25     0.225792 -0.000268466  1.08648e-06     -103.362 
         -25       0.2406  -0.00027069  1.27712e-06     -103.362 
         -25     0.255865 -0.000271299   1.4852e-06     -103.362 
         -25     0.271613 -0.000273315  1.71073e-06     -103.362 
         -25     0.287818 -0.000275302  1.95333e-06     -103.362 
         -25     0.304506 -0.000277305  2.21312e-06     -103.362 
         -25      0.32165 -0.000279344  2.48948e-06     -103.362 
         -25     0.339278 -0.000281432  2.78268e-06     -103.362 
         -25     0.357377 -0.000283558  3.09239e-06     -103.362 
         -25      0.37593 -0.000285701  3.41826e-06     -103.362 
         -25     0.394968 -0.000287836  3.76075e-06     -103.362 
         -25     0.414461 -0.000289926  4.11929e-06     -103.362 
         -25      0.43444 -0.000291943  4.49431e-06     -103.362 
         -25     0.454872 -0.000293856  4.88497e-06     -103.362 
         -25     0.475791 -0.000295648   5.2915e-06     -103.362 
         -25     0.497163 -0.000297307  5.71256e-06     -103.362 
         -25     0.519021 -0.000298839  6.14773e-06     -103.362 
         -25      0.54135 -0.000300248  6.59516e-06     -103.362 
         -25     0.564131 -0.000301532   7.0523e-06     -103.362 
         -25       0.5874 -0.000302667  7.51694e-06     -103.362 
         -25     0.611121 -0.000303582  7.98389e-06     -103.362 
         -25      0.63533 -0.000304426  8.45438e-06     -103.362 
         -25      0.65999 -0.000305117  8.93901e-06     -103.362 
         -25     0.685139 -0.000305676  9.43501e-06     -103.362 
         -25     0.710759 -0.000306124  9.93885e-06     -103.362 
         -25     0.736828 -0.000306481  1.04472e-05     -103.362 
         -25     0.763387 -0.000306765  1.09583e-05     -103.362 
         -25     0.790396 -0.000306992  1.14692e-05     -103.362 
         -25     0.817896 -0.000307179  1.19787e-05     -103.362 
         -25     0.845843 -0.000307337  1.24842e-05     -103.362 
         -25     0.874283 -0.000307478  1.29852e-05     -103.362 
         -25      0.90317 -0.000307613  1.34795e-05     -103.362 
         -25     0.932551 -0.000307748  1.39669e-05     -103.362 
         -25     0.962401 -0.000307891  1.44458e-05     -103.362 
         -25     0.992697 -0.000308047  1.49149e-05     -103.362 
         -25      1.02349 -0.000308217  1.53738e-05     -103.361 
         -25      1.05472 -0.000308406  1.58206e-05     -103.361 
         -25      1.08645 -0.000308615  1.62548e-05     -103.361 
         -25      1.11863 -0.000308844  1.66742e-05     -103.361 
         -25       1.1513 -0.000309095   1.7078e-05     -103.361 
         -25      1.18444 -0.000309365  1.74641e-05     -103.361 
         -25      1.21802 -0.000309657  1.78307e-05     -103.361 
         -25      1.25211 -0.000309968  1.81769e-05     -103.361 
         -25      1.28663 -0.000310299  1.85009e-05     -103.361 
         -25      1.32165 -0.000310648  1.88028e-05     -103.361 
         -25      1.35712 -0.000311014  1.90827e-05     -103.361 
         -25      1.39308 -0.000311394   1.9343e-05     -103.361 
         -25      1.42951 -0.000311782  1.95878e-05     -103.361 
         -25      1.46638 -0.000312169  1.98243e-05     -103.361 
         -25      1.50375 -0.000312544  2.00639e-05     -103.361 
         -25      1.54156 -0.000312814  2.02013e-05     -103.361 
         -25      1.57987 -0.000313101  2.03314e-05     -103.361 
         -25      1.61863 -0.000313385  2.04552e-05      -103.36 
         -25      1.65788 -0.000313641  2.05662e-05      -103.36 
         -25      1.69757 -0.000313846  2.06586e-05      -103.36 
         -25      1.73776 -0.000313984  2.07276e-05      -103.36 
         -25      1.77842  -0.00031404  2.07693e-05      -103.36 
         -25      1.81952 -0.000314002  2.07805e-05      -103.36 
         -25      1.86113 -0.000313862   2.0759e-05      -103.36 
         -25      1.90316 -0.000313617  2.07036e-05      -103.36 
         -25      1.94571 -0.000313265  2.06137e-05      -103.36 
         -25      1.98869 -0.000312809  2.04896e-05      -103.36 
         -25      2.03217 -0.000312253  2.03324e-05     -103.359 
         -25      2.07612 -0.000311605  2.01439e-05     -103.359 
         -25      2.12051 -0.000310876  1.99266e-05     -103.359 
         -25       2.1654 -0.000310076  1.96833e-05     -103.359 
         -25      2.21073 -0.000309223  1.94179e-05     -103.359 
         -25      2.25656 -0.000308329  1.91338e-05     -103.359 
         -25      2.30283 -0.000307413  1.88356e-05     -103.359 
         -25       2.3496 -0.000306491  1.85272e-05     -103.359 
         -25      2.39685 -0.000305582  1.82132e-05     -103.358 
         -25      2.44452 -0.000304703  1.78984e-05     -103.358 
         -25      2.49271  -0.00030387  1.75863e-05     -103.358 
         -25      2.54132   -0.0003031  1.72814e-05     -103.358 
         -25      2.59044 -0.000302407  1.69866e-05     -103.358 
         -25         2.64 -0.000301803  1.67053e-05     -103.358 
         -25      2.69006 -0.000301298  1.64391e-05     -103.357 
         -25      2.74056   -0.0003009    1.619e-05     -103.357 
         -25      2.79156 -0.000300613  1.59579e-05     -103.357 
         -25      2.84304 -0.000300438  1.57427e-05     -103.357 
         -25      2.89494 -0.000300373  1.55427e-05     -103.357 
         -25      2.94735 -0.000300412  1.53549e-05     -103.357 
         -25       3.0002 -0.000300548  1.51756e-05     -103.356 
         -25      3.05355 -0.000300767  1.49995e-05     -103.356 
         -25      3.10733 -0.000301057  1.48203e-05     -103.356 
         -25      3.16163 -0.000301401  1.46305e-05     -103.356 
         -25      3.21639  -0.00030178  1.44217e-05     -103.355 
         -25      3.27158 -0.000302178  1.41848e-05     -103.355 
         -25      3.32729 -0.000302577  1.39094e-05     -103.355 
         -25      3.38342 -0.000302964  1.35857e-05     -103.355 
         -25      3.44007  -0.00030333   1.3203e-05     -103.354 
         -25      3.49714 -0.000303672  1.27519e-05     -103.354 
         -25      3.55472 -0.000303999  1.22228e-05     -103.354 
         -25      3.61273  -0.00030433  1.16093e-05     -103.354 
         -25      3.67125 -0.000304704  1.09053e-05     -103.353 
         -25      3.73025 -0.000305179  1.01094e-05     -103.353 
         -25      3.78967 -0.000305542  9.40171e-06     -103.353 
         -25      3.84961 -0.000305733  8.73139e-06     -103.353 
         -25      3.90996 -0.000305876  8.00554e-06     -103.352 
         -25      3.97084 -0.000305994  7.21649e-06     -103.352 
         -25      4.03214 -0.000306103  6.36607e-06     -103.352 
         -25      4.09395 -0.000306215  5.45913e-06     -103.351 
         -25      4.15624 -0.000306335  4.50652e-06     -103.351 
         -25      4.21895 -0.000306465  3.52182e-06     -103.351 
         -25      4.28217 -0.000306606  2.51751e-06      -103.35 
         -25      4.34582 -0.000306754  1.50907e-06      -103.35 
         -25      4.40998 -0.000306905  5.07666e-07     -103.349 
         -25      4.47457 -0.000307054 -4.74493e-07     -103.349 
         -25      4.53968 -0.000307197  -1.4312e-06     -103.349 
         -25      4.60525  -0.00030733 -2.35712e-06     -103.348 
         -25      4.67125 -0.000307449 -3.25046e-06     -103.348 
         -25      4.73777 -0.000307553 -4.11461e-06     -103.348 
         -25       4.8047 -0.000307644 -4.95265e-06     -103.347 
         -25      4.87216 -0.000307725 -5.77161e-06     -103.347 
         -25      4.94003 -0.000307801 -6.57544e-06     -103.346 
         -25      5.00843  -0.00030788 -7.36784e-06     -103.346 
         -25      5.07724 -0.000307972 -8.14409e-06     -103.345 
         -25      5.14658 -0.000308085 -8.89231e-06     -103.345 
         -25      5.21639 -0.000308232 -9.58435e-06     -103.344 
         -25      5.28661 -0.000308421 -1.01723e-05     -103.344 
         -25      5.35736 -0.000308659 -1.05828e-05     -103.343 
         -25      5.42852 -0.000308866 -1.08054e-05     -103.343 
         -25      5.50021 -0.000308988 -1.11375e-05     -103.342 
         -25      5.57231 -0.000309071 -1.18117e-05     -103.342 
         -25      5.64493 -0.000308909 -1.25714e-05     -103.341 
         -25      5.71803  -0.00030855 -1.30488e-05     -103.341 
         -25      5.79154 -0.000308239 -1.37935e-05      -103.34 
         -25      5.86558 -0.000307968 -1.46643e-05      -103.34 
         -25      5.94003 -0.000307732 -1.55593e-05     -103.339 
         -25      6.01501 -0.000307522 -1.64153e-05     -103.339 
         -25       6.0904 -0.000307333 -1.71965e-05     -103.338 
         -25      6.16632 -0.000307156 -1.78941e-05     -103.337 
         -25      6.24271 -0.000306986 -1.85162e-05     -103.337 
         -25       6.3195 -0.000306807 -1.90512e-05     -103.336 
         -25      6.39683 -0.000306594 -1.95711e-05     -103.336 
         -25      6.47457 -0.000306364  -2.0172e-05     -103.335 
         -25      6.55284 -0.000306132 -2.08687e-05     -103.334 
         -25      6.63152 -0.000305911 -2.16578e-05     -103.334 
         -25      6.71073 -0.000305712 -2.25239e-05     -103.333 
         -25      6.79034 -0.000305541 -2.34368e-05     -103.332 
         -25      6.87049 -0.000305402 -2.43597e-05     -103.331 
         -25      6.95111 -0.000305295 -2.52478e-05     -103.331 
         -25      7.03214 -0.000305216  -2.6055e-05      -103.33 
         -25       7.1137  -0.00030516 -2.67413e-05     -103.329 
         -25      7.19566 -0.000305119 -2.72747e-05     -103.328 
         -25      7.27816 -0.000305085 -2.76427e-05     -103.328 
         -25      7.36106 -0.000305051 -2.78575e-05     -103.327 
         -25      7.44451 -0.000305016 -2.79683e-05     -103.326 
         -25      7.52842 -0.000304985 -2.80706e-05     -103.325 
         -25      7.61273 -0.000304971 -2.83192e-05     -103.324 
         -25      7.69758 -0.000305006 -2.89427e-05     -103.324 
         -25      7.78283  -0.00030514 -3.02571e-05     -103.323 
         -25      7.86862 -0.000304958 -3.14532e-05     -103.322 
         -25      7.95481 -0.000304504 -3.11774e-05     -103.321 
         -25      8.04155 -0.000304394 -3.03886e-05      -103.32 
         -25      8.12868 -0.000304624 -3.03225e-05     -103.319 
         -25      8.21635 -0.000304805 -3.19576e-05     -103.318 
         -25      8.30449 -0.000304592 -3.31328e-05     -103.317 
         -25      8.39303 -0.000304117 -3.39477e-05     -103.316 
         -25      8.48211 -0.000303499  -3.4504e-05     -103.315 
         -25      8.57159 -0.000302847 -3.48999e-05     -103.314 
         -25      8.66161 -0.000302261 -3.52318e-05     -103.313 
         -25      8.75203 -0.000301827 -3.55892e-05     -103.312 
         -25      8.84299 -0.000301629 -3.56582e-05     -103.311 
         -25      8.93443 -0.000301522 -3.57957e-05      -103.31 
         -25      9.02626 -0.000301457 -3.61595e-05     -103.309 
         -25      9.11863  -0.00030142 -3.66924e-05     -103.308 
         -25      9.21139 -0.000301399 -3.73417e-05     -103.307 
         -25      9.30471 -0.000301382 -3.80631e-05     -103.306 
         -25      9.39841  -0.00030136 -3.88168e-05     -103.305 
         -25      9.49267 -0.000301323 -3.95722e-05     -103.304 
         -25      9.58739 -0.000301269 -4.03039e-05     -103.303 
         -25      9.68251 -0.000301193 -4.09933e-05     -103.301 
         -25      9.77817 -0.000301095 -4.16303e-05       -103.3 
         -25      9.87422 -0.000300978 -4.22085e-05     -103.299 
         -25      9.97083 -0.000300847 -4.27292e-05     -103.298 
         -25      10.0678 -0.000300708 -4.31966e-05     -103.296 
         -25      10.1654 -0.000300567   -4.362e-05     -103.295 
         -25      10.2633 -0.000300433 -4.40098e-05     -103.294 
         -25      10.3618 -0.000300312 -4.43783e-05     -103.293 
         -25      10.4607 -0.000300207 -4.47358e-05     -103.291 
         -25      10.5601 -0.000300118 -4.50894e-05      -103.29 
         -25        10.66 -0.000300039 -4.54414e-05     -103.289 
         -25      10.7603 -0.000299955 -4.57842e-05     -103.287 
         -25      10.8611  -0.00029984 -4.60999e-05     -103.286 
         -25      10.9623 -0.000299654 -4.63539e-05     -103.284 
         -25      11.0641 -0.000299339 -4.64935e-05     -103.283 
         -25      11.1663  -0.00029886 -4.64879e-05     -103.281 
         -25       11.269 -0.000298428 -4.66501e-05      -103.28 
         -25      11.3721 -0.000298071  -4.6988e-05     -103.278 
         -25      11.4757 -0.000297783 -4.74311e-05     -103.277 
         -25      11.5798 -0.000297557 -4.79246e-05     -103.275 
         -25      11.6844 -0.000297387 -4.84253e-05     -103.274 
         -25      11.7894 -0.000297262 -4.89036e-05     -103.272 
         -25       11.895 -0.000297169 -4.93398e-05     -103.271 
         -25      12.0009 -0.000297092 -4.97241e-05     -103.269 
         -25      12.1073 -0.000297012 -5.00553e-05     -103.267 
         -25      12.2142 -0.000296907 -5.03377e-05     -103.266 
         -25      12.3216 -0.000296749 -5.05807e-05     -103.264 
         -25      12.4294  -0.00029651 -5.07955e-05     -103.262 
         -25      12.5378 -0.000296155 -5.09936e-05     -103.261 
         -25      12.6465  -0.00029565 -5.11836e-05     -103.259 
         -25      12.7558 -0.000295206 -5.14433e-05     -103.257 
         -25      12.8656 -0.000295167 -5.17638e-05     -103.255 
         -25      12.9757 -0.000295106 -5.19893e-05     -103.254 
         -25      13.0864 -0.000295023 -5.21516e-05     -103.252 
         -25      13.1975  -0.00029492 -5.22756e-05      -103.25 
         -25      13.3092 -0.000294798  -5.2381e-05     -103.248 
         -25      13.4212 -0.000294661 -5.24816e-05     -103.246 
         -25      13.5338 -0.000294511 -5.25871e-05     -103.244 
         -25      13.6468 -0.000294349 -5.27025e-05     -103.242 
         -25      13.7603 -0.000294176 -5.28291e-05      -103.24 
         -25      13.8743  -0.00029399 -5.29655e-05     -103.238 
         -25      13.9886 -0.000293787 -5.31074e-05     -103.236 
         -25      14.1036  -0.00029356 -5.32492e-05     -103.234 
         -25      14.2189 -0.000293296 -5.33836e-05     -103.232 
         -25      14.3348 -0.000292978 -5.35033e-05      -103.23 
         -25       14.451 -0.000292585  -5.3601e-05     -103.228 
         -25      14.5678 -0.000292086 -5.36707e-05     -103.226 
         -25      14.6851 -0.000291708 -5.36768e-05     -103.224 
         -25      14.8028 -0.000291493 -5.37896e-05     -103.221 
         -25       14.921 -0.000291342 -5.39941e-05     -103.219 
         -25      15.0396 -0.000291225 -5.42454e-05     -103.217 
         -25      15.1588 -0.000291117 -5.45111e-05     -103.215 
         -25      15.2783 -0.000291003 -5.47682e-05     -103.212 
         -25      15.3984  -0.00029087  -5.5003e-05      -103.21 
         -25       15.519 -0.000290715 -5.52085e-05     -103.208 
         -25        15.64 -0.000290534 -5.53836e-05     -103.205 
         -25      15.7615  -0.00029033 -5.55317e-05     -103.203 
         -25      15.8834 -0.000290105 -5.56589e-05       -103.2 
         -25      16.0058 -0.000289866 -5.57737e-05     -103.198 
         -25      16.1286 -0.000289619 -5.58849e-05     -103.195 
         -25       16.252  -0.00028937 -5.60013e-05     -103.193 
         -25      16.3759 -0.000289125 -5.61304e-05      -103.19 
         -25      16.5002  -0.00028889 -5.62781e-05     -103.188 
         -25       16.625 -0.000288667  -5.6448e-05     -103.185 
         -25      16.7501  -0.00028846 -5.66402e-05     -103.183 
         -25      16.8759 -0.000288266 -5.68528e-05      -103.18 
         -25       17.002 -0.000288085 -5.70799e-05     -103.177 
         -25      17.1287 -0.000287909 -5.73133e-05     -103.175 
         -25      17.2557 -0.000287733 -5.75419e-05     -103.172 
         -25      17.3834 -0.000287545 -5.77532e-05     -103.169 
         -25      17.5115 -0.000287333 -5.79334e-05     -103.166 
         -25      17.6399 -0.000287084 -5.80689e-05     -103.164 
         -25       17.769 -0.000286782 -5.81484e-05     -103.161 
         -25      17.8984 -0.000286424 -5.81209e-05     -103.158 
         -25      18.0284 -0.000286021 -5.80968e-05     -103.155 
         -25      18.1587 -0.000285597 -5.81592e-05     -103.152 
         -25      18.2896 -0.000285201 -5.83219e-05     -103.149 
         -25       18.421 -0.000284897 -5.86055e-05     -103.146 
         -25      18.5528 -0.000284769 -5.90389e-05     -103.143 
         -25      18.6851  -0.00028492 -5.96616e-05      -103.14 
         -25      18.8178 -0.000285478 -6.05225e-05     -103.137 
         -25      18.9511 -0.000285766 -6.07981e-05     -103.134 
         -25      19.0847 -0.000285626 -6.07745e-05     -103.131 
         -25      19.2189 -0.000285274 -6.07382e-05     -103.128 
         -25      19.3535 -0.000284734  -6.0699e-05     -103.124 
         -25      19.4886  -0.00028403 -6.06813e-05     -103.121 
         -25      19.6242 -0.000283424  -6.0968e-05     -103.118 
         -25      19.7602 -0.000283179 -6.15857e-05     -103.115 
         -25      19.8968  -0.00028292 -6.20286e-05     -103.111 
         -25      20.0337 -0.000282651 -6.23255e-05     -103.108 
         -25      20.1712 -0.000282374 -6.25093e-05     -103.105 
         -25      20.3091 -0.000282093 -6.26132e-05     -103.101 
         -25      20.4475 -0.000281811 -6.26701e-05     -103.098 
         -25      20.5864 -0.000281531 -6.27105e-05     -103.094 
         -25      20.7257 -0.000281253 -6.27613e-05     -103.091 
         -25      20.8655  -0.00028098 -6.28446e-05     -103.087 
         -25      21.0058 -0.000280712 -6.29767e-05     -103.084 
         -25      21.1465 -0.000280448 -6.31677e-05      -103.08 
         -25      21.2877 -0.000280187 -6.34208e-05     -103.076 
         -25      21.4294 -0.000279927  -6.3733e-05     -103.073 
         -25      21.5716 -0.000279664 -6.40942e-05     -103.069 
         -25      21.7142 -0.000279396 -6.44884e-05     -103.065 
         -25      21.8573 -0.000279119 -6.48958e-05     -103.061 
         -25      22.0008  -0.00027883 -6.52917e-05     -103.058 
         -25      22.1449 -0.000278526 -6.56513e-05     -103.054 
         -25      22.2893 -0.000278206 -6.59491e-05      -103.05 
         -25      22.4344 -0.000277871 -6.61641e-05     -103.046 
         -25      22.5797 -0.000277523 -6.62812e-05     -103.042 
         -25      22.7257 -0.000277167 -6.62961e-05     -103.038 
         -25      22.8721 -0.000276816 -6.62191e-05     -103.034 
         -25      23.0189 -0.000276485 -6.60804e-05      -103.03 
         -25      23.1663 -0.000276194 -6.59353e-05     -103.026 
         -25       23.314 -0.000275975 -6.58705e-05     -103.022 
         -25      23.4623 -0.000275866 -6.60111e-05     -103.018 
         -25       23.611 -0.000275916  -6.6528e-05     -103.014 
         -25      23.7602 -0.000275806 -6.69268e-05     -103.009 
         -25        23.91 -0.000275422 -6.69409e-05     -103.005 
         -25        24.06 -0.000275152 -6.72272e-05     -103.001 
         -25      24.2107 -0.000274951 -6.76813e-05     -102.997 
         -25      24.3617 -0.000274784 -6.82207e-05     -102.992 
         -25      24.5133 -0.000274627 -6.87848e-05     -102.988 
         -25      24.6653 -0.000274461  -6.9329e-05     -102.983 
         -25      24.8178 -0.000274275 -6.98257e-05     -102.979 
         -25      24.9708 -0.000274061 -7.02584e-05     -102.975 
         -25      25.1242 -0.000273819 -7.06211e-05      -102.97 
         -25      25.2781 -0.000273548 -7.09164e-05     -102.965 
         -25      25.4324 -0.000273253 -7.11521e-05     -102.961 
         -25      25.5873 -0.000272937 -7.13405e-05     -102.956 
         -25      25.7426 -0.000272608 -7.14952e-05     -102.952 
         -25      25.8984 -0.000272271 -7.16311e-05     -102.947 
         -25      26.0546  -0.00027193 -7.17615e-05     -102.942 
         -25      26.2114  -0.00027159 -7.18983e-05     -102.937 
         -25      26.3686 -0.000271254 -7.20496e-05     -102.933 
         -25      26.5262 -0.000270922 -7.22202e-05     -102.928 
         -25      26.6844 -0.000270593 -7.24106e-05     -102.923 
         -25      26.8429 -0.000270264 -7.26167e-05     -102.918 
         -25       27.002 -0.000269928 -7.28306e-05     -102.913 
         -25      27.1615 -0.000269578   -7.304e-05     -102.908 
         -25      27.3216 -0.000269205 -7.32303e-05     -102.903 
         -25      27.4821 -0.000268797 -7.33845e-05     -102.898 
         -25       27.643 -0.000268344 -7.34856e-05     -102.893 
         -25      27.8044 -0.000267834 -7.35184e-05     -102.888 
         -25      27.9663 -0.000267258 -7.34716e-05     -102.883 
         -25      28.1287 -0.000266605 -7.33407e-05     -102.877 
         -25      28.2914 -0.000265873 -7.31317e-05     -102.872 
         -25      28.4548 -0.000265061 -7.28642e-05     -102.867 
         -25      28.6185 -0.000264176 -7.25766e-05     -102.862 
         -25      28.7828 -0.000263519 -7.26829e-05     -102.856 
         -25      28.9475  -0.00026398  -7.3802e-05     -102.851 
         -25      29.1126 -0.000265536 -7.54571e-05     -102.845 
         -25      29.2784  -0.00026566 -7.48725e-05      -102.84 
         -25      29.4444 -0.000264922 -7.42418e-05     -102.834 
         -25       29.611 -0.000264403 -7.45653e-05     -102.829 
         -25       29.778 -0.000264141 -7.53196e-05     -102.823 
         -25      29.9456  -0.00026388 -7.61153e-05     -102.818 
         -25      30.1137 -0.000263589 -7.68478e-05     -102.812 
         -25      30.2821  -0.00026325 -7.74546e-05     -102.806 
         -25      30.4511 -0.000262858 -7.79093e-05     -102.801 
         -25      30.6204 -0.000262417 -7.82097e-05     -102.795 
         -25      30.7903 -0.000261938 -7.83746e-05     -102.789 
         -25      30.9606 -0.000261435 -7.84346e-05     -102.783 
         -25      31.1315 -0.000260923 -7.84274e-05     -102.778 
         -25      31.3028  -0.00026042 -7.83927e-05     -102.772 
         -25      31.4745 -0.000259939 -7.83673e-05     -102.766 
         -25      31.6468  -0.00025949 -7.83818e-05      -102.76 
         -25      31.8194 -0.000259083 -7.84579e-05     -102.754 
         -25      31.9926 -0.000258717 -7.86065e-05     -102.748 
         -25      32.1662 -0.000258392 -7.88265e-05     -102.742 
         -25      32.3404 -0.000258099  -7.9106e-05     -102.736 
         -25      32.5149  -0.00025783 -7.94222e-05     -102.729 
         -25        32.69 -0.000257568 -7.97453e-05     -102.723 
         -25      32.8655   -0.0002573 -8.00407e-05     -102.717 
         -25      33.0414 -0.000257011 -8.02749e-05     -102.711 
         -25       33.218 -0.000256691 -8.04218e-05     -102.704 
         -25      33.3948 -0.000256337 -8.04698e-05     -102.698 
         -25      33.5723 -0.000255954 -8.04314e-05     -102.692 
         -25        33.75 -0.000255564  -8.0354e-05     -102.685 
         -25      33.9284  -0.00025521 -8.03318e-05     -102.679 
         -25      34.1073 -0.000254958 -8.05209e-05     -102.672 
         -25      34.2865 -0.000254908 -8.11533e-05     -102.666 
         -25      34.4663 -0.000255005 -8.20695e-05     -102.659 
         -25      34.6465 -0.000254418 -8.16377e-05     -102.653 
         -25      34.8272 -0.000253782 -8.15392e-05     -102.646 
         -25      35.0083 -0.000253149 -8.16513e-05     -102.639 
         -25        35.19 -0.000252551 -8.18796e-05     -102.633 
         -25      35.3721 -0.000252012 -8.21539e-05     -102.626 
         -25      35.5546 -0.000251541 -8.24256e-05     -102.619 
         -25      35.7377 -0.000251137 -8.26651e-05     -102.612 
         -25      35.9211 -0.000250794 -8.28571e-05     -102.605 
         -25      36.1052 -0.000250497 -8.29988e-05     -102.599 
         -25      36.2895 -0.000250228 -8.30962e-05     -102.592 
         -25      36.4745 -0.000249967 -8.31612e-05     -102.585 
         -25      36.6598 -0.000249693 -8.32086e-05     -102.578 
         -25      36.8457 -0.000249387 -8.32535e-05     -102.571 
         -25      37.0321 -0.000249034 -8.33082e-05     -102.564 
         -25      37.2188 -0.000248626 -8.33797e-05     -102.557 
         -25      37.4062 -0.000248159 -8.34671e-05     -102.549 
         -25      37.5938 -0.000247645 -8.35592e-05     -102.542 
         -25      37.7821 -0.000247102 -8.36319e-05     -102.535 
         -25      37.9707 -0.000246566 -8.36464e-05     -102.528 
         -25      38.1599 -0.000246089 -8.35469e-05     -102.521 
         -25      38.3496  -0.00024574 -8.32585e-05     -102.513 
         -25      38.5396 -0.000245388 -8.32802e-05     -102.506 
         -25      38.7302 -0.000244799 -8.39212e-05     -102.498 
         -25      38.9211 -0.000244211 -8.44489e-05     -102.491 
         -25      39.1127 -0.000243642 -8.48786e-05     -102.484 
         -25      39.3046 -0.000243109 -8.52244e-05     -102.476 
         -25      39.4971 -0.000242626 -8.54992e-05     -102.469 
         -25      39.6899 -0.000242212 -8.57097e-05     -102.461 
         -25      39.8833 -0.000241885 -8.58556e-05     -102.453 
         -25      40.0772 -0.000241668 -8.59246e-05     -102.446 
         -25      40.2714 -0.000241588 -8.58899e-05     -102.438 
         -25      40.4663 -0.000241678  -8.5706e-05     -102.431 
         -25      40.6615 -0.000241981 -8.53049e-05     -102.423 
         -25      40.8573 -0.000242544 -8.45903e-05     -102.415 
         -25      41.0534 -0.000242532 -8.44845e-05     -102.407 
         -25      41.2501 -0.000241515 -8.53489e-05     -102.399 
         -25      41.4473 -0.000240637 -8.58666e-05     -102.392 
         -25      41.6448 -0.000239882 -8.61229e-05     -102.384 
         -25      41.8429  -0.00023923 -8.61908e-05     -102.376 
         -25      42.0414 -0.000238665  -8.6131e-05     -102.368 
         -25      42.2405 -0.000238172 -8.59934e-05      -102.36 
         -25      42.4399 -0.000237736 -8.58186e-05     -102.352 
         -25      42.6399 -0.000237342  -8.5638e-05     -102.344 
         -25      42.8404 -0.000236978 -8.54756e-05     -102.336 
         -25      43.0412 -0.000236633 -8.53483e-05     -102.327 
         -25      43.2426 -0.000236296 -8.52671e-05     -102.319 
         -25      43.4444  -0.00023596 -8.52379e-05     -102.311 
         -25      43.6467 -0.000235615 -8.52625e-05     -102.303 
         -25      43.8494 -0.000235258 -8.53389e-05     -102.295 
         -25      44.0527 -0.000234881 -8.54628e-05     -102.286 
         -25      44.2563 -0.000234484 -8.56273e-05     -102.278 
         -25      44.4606 -0.000234063 -8.58249e-05      -102.27 
         -25      44.6653 -0.000233619 -8.60468e-05     -102.261 
         -25      44.8704 -0.000233153 -8.62837e-05     -102.253 
         -25       45.076 -0.000232666 -8.65275e-05     -102.245 
         -25       45.282 -0.000232163 -8.67697e-05     -102.236 
         -25      45.4886 -0.000231647  -8.7004e-05     -102.228 
         -25      45.6955 -0.000231125 -8.72243e-05     -102.219 
         -25       45.903 -0.000230601 -8.74271e-05      -102.21 
         -25      46.1111 -0.000230083   -8.761e-05     -102.202 
         -25      46.3194 -0.000229578 -8.77723e-05     -102.193 
         -25      46.5283 -0.000229094 -8.79156e-05     -102.185 
         -25      46.7376 -0.000228637 -8.80428e-05     -102.176 
         -25      46.9475 -0.000228214 -8.81583e-05     -102.167 
         -25      47.1577 -0.000227832 -8.82676e-05     -102.159 
         -25      47.3685 -0.000227496 -8.83773e-05      -102.15 
         -25      47.5798  -0.00022721 -8.84939e-05     -102.141 
         -25      47.7914 -0.000226976 -8.86237e-05     -102.132 
         -25      48.0037 -0.000226759   -8.877e-05     -102.123 