Variables = x, y, u, v, p

Zone, I=800, F=POINT
          -5            0            0            0     -11.9693 
          -5     0.000234 -1.39889e-05  3.19678e-10     -11.9693 
          -5     0.000939  -5.2752e-05  1.35987e-09     -11.9693 
          -5     0.002113 -0.000106942  3.33997e-09     -11.9693 
          -5     0.003759 -0.000164092  6.60827e-09     -11.9693 
          -5     0.005872 -0.000211573  1.15809e-08     -11.9693 
          -5     0.008457  -0.00024064  1.87382e-08     -11.9693 
          -5      0.01151 -0.000248452  2.85433e-08     -11.9693 
          -5     0.015036 -0.000238986  4.14648e-08     -11.9693 
          -5     0.019031 -0.000221434  5.79077e-08     -11.9693 
          -5     0.023493  -0.00020669   7.8251e-08     -11.9693 
          -5     0.028429 -0.000202807  1.02908e-07     -11.9693 
          -5     0.033831 -0.000211221  1.32234e-07     -11.9693 
          -5     0.039706  -0.00022559  1.66696e-07     -11.9693 
          -5     0.046047 -0.000234982  2.06711e-07     -11.9693 
          -5     0.052863 -0.000231647  2.52797e-07     -11.9693 
          -5      0.06015  -0.00022019  3.05336e-07     -11.9693 
          -5       0.0679 -0.000219621  3.64568e-07     -11.9693 
          -5     0.076126  -0.00024052  4.30816e-07     -11.9693 
          -5     0.084816 -0.000227316  5.04256e-07     -11.9693 
          -5     0.093982 -0.000234831  5.85502e-07     -11.9693 
          -5     0.103611  -0.00023861  6.74316e-07     -11.9693 
          -5     0.113718 -0.000240563  7.69992e-07     -11.9693 
          -5     0.124286 -0.000242052  8.72022e-07     -11.9693 
          -5     0.135333 -0.000243845  9.80624e-07     -11.9693 
          -5      0.14685 -0.000246141  1.09593e-06     -11.9693 
          -5     0.158827 -0.000248724  1.21794e-06     -11.9693 
          -5     0.171284 -0.000251198  1.34649e-06     -11.9693 
          -5     0.184201 -0.000253249   1.4804e-06     -11.9693 
          -5     0.197599 -0.000254897   1.6183e-06     -11.9693 
          -5     0.211455  -0.00025655  1.75844e-06     -11.9693 
          -5     0.225792  -0.00025873  1.90115e-06     -11.9693 
          -5       0.2406 -0.000261144  2.05101e-06     -11.9693 
          -5     0.255865 -0.000262321  2.21017e-06     -11.9693 
          -5     0.271613 -0.000264027  2.36388e-06     -11.9693 
          -5     0.287818 -0.000265615  2.51822e-06     -11.9693 
          -5     0.304506 -0.000267104  2.67329e-06     -11.9693 
          -5      0.32165   -0.0002685  2.83041e-06     -11.9693 
          -5     0.339278 -0.000269805  2.98991e-06     -11.9693 
          -5     0.357377 -0.000271019  3.15175e-06     -11.9693 
          -5      0.37593 -0.000272139   3.3158e-06     -11.9693 
          -5     0.394968 -0.000273166  3.48236e-06     -11.9693 
          -5     0.414461 -0.000274098  3.65118e-06     -11.9693 
          -5      0.43444 -0.000274933   3.8225e-06     -11.9693 
          -5     0.454872 -0.000275668  3.99604e-06     -11.9693 
          -5     0.475791 -0.000276299  4.17205e-06     -11.9693 
          -5     0.497163 -0.000276821  4.35024e-06     -11.9693 
          -5     0.519021 -0.000277231  4.53086e-06     -11.9694 
          -5      0.54135 -0.000277523  4.71383e-06     -11.9694 
          -5     0.564131 -0.000277691  4.89906e-06     -11.9694 
          -5       0.5874 -0.000277729  5.08697e-06     -11.9694 
          -5     0.611121 -0.000277632  5.27744e-06     -11.9694 
          -5      0.63533 -0.000277395  5.47103e-06     -11.9694 
          -5      0.65999 -0.000277015  5.66781e-06     -11.9694 
          -5     0.685139 -0.000276487  5.86851e-06     -11.9694 
          -5     0.710759  -0.00027581  6.07354e-06     -11.9694 
          -5     0.736828 -0.000274986  6.28332e-06     -11.9694 
          -5     0.763387 -0.000274016  6.49886e-06     -11.9694 
          -5     0.790396 -0.000272907  6.72055e-06     -11.9694 
          -5     0.817896 -0.000271665  6.94937e-06     -11.9694 
          -5     0.845843 -0.000270303  7.18555e-06     -11.9694 
          -5     0.874283 -0.000268833  7.42985e-06     -11.9694 
          -5      0.90317 -0.000267271  7.68191e-06     -11.9694 
          -5     0.932551 -0.000265634  7.94169e-06     -11.9694 
          -5     0.962401 -0.000263941   8.2078e-06     -11.9694 
          -5     0.992697  -0.00026221   8.4779e-06     -11.9694 
          -5      1.02349 -0.000260455  8.74897e-06     -11.9694 
          -5      1.05472 -0.000258687  9.01542e-06     -11.9694 
          -5      1.08645 -0.000256905   9.2704e-06     -11.9694 
          -5      1.11863   -0.0002551  9.50343e-06     -11.9694 
          -5       1.1513 -0.000253276  9.72753e-06     -11.9694 
          -5      1.18444 -0.000251555   1.0025e-05     -11.9694 
          -5      1.21802 -0.000249829  1.02927e-05     -11.9694 
          -5      1.25211 -0.000248113   1.0541e-05     -11.9695 
          -5      1.28663 -0.000246416  1.07771e-05     -11.9695 
          -5      1.32165 -0.000244735  1.10067e-05     -11.9695 
          -5      1.35712 -0.000243066  1.12325e-05     -11.9695 
          -5      1.39308 -0.000241397  1.14566e-05     -11.9695 
          -5      1.42951 -0.000239715  1.16788e-05     -11.9695 
          -5      1.46638 -0.000238008  1.18978e-05     -11.9695 
          -5      1.50375  -0.00023626  1.21122e-05     -11.9695 
          -5      1.54156 -0.000234466  1.23195e-05     -11.9695 
          -5      1.57987 -0.000232616  1.25179e-05     -11.9695 
          -5      1.61863 -0.000230714  1.27052e-05     -11.9695 
          -5      1.65788 -0.000228767  1.28808e-05     -11.9695 
          -5      1.69757 -0.000226794  1.30448e-05     -11.9696 
          -5      1.73776 -0.000224818  1.31989e-05     -11.9696 
          -5      1.77842 -0.000222872  1.33466e-05     -11.9696 
          -5      1.81952 -0.000220999  1.34788e-05     -11.9696 
          -5      1.86113 -0.000219237  1.36003e-05     -11.9696 
          -5      1.90316  -0.00021763  1.37102e-05     -11.9696 
          -5      1.94571  -0.00021621  1.38057e-05     -11.9696 
          -5      1.98869 -0.000215006  1.38815e-05     -11.9696 
          -5      2.03217 -0.000214024   1.3931e-05     -11.9696 
          -5      2.07612 -0.000213246  1.39446e-05     -11.9697 
          -5      2.12051 -0.000212666  1.39333e-05     -11.9697 
          -5       2.1654 -0.000212315  1.39061e-05     -11.9697 
          -5      2.21073 -0.000212156  1.38601e-05     -11.9697 
          -5      2.25656 -0.000212167  1.38049e-05     -11.9697 
          -5      2.30283 -0.000212315  1.37461e-05     -11.9697 
          -5       2.3496  -0.00021256  1.36876e-05     -11.9697 
          -5      2.39685 -0.000212884  1.36368e-05     -11.9698 
          -5      2.44452 -0.000213243  1.36023e-05     -11.9698 
          -5      2.49271 -0.000213578  1.35884e-05     -11.9698 
          -5      2.54132 -0.000213857  1.36008e-05     -11.9698 
          -5      2.59044 -0.000214055  1.36447e-05     -11.9698 
          -5         2.64 -0.000214149  1.37239e-05     -11.9698 
          -5      2.69006 -0.000214121  1.38413e-05     -11.9698 
          -5      2.74056 -0.000213962  1.39977e-05     -11.9699 
          -5      2.79156 -0.000213665  1.41921e-05     -11.9699 
          -5      2.84304 -0.000213231  1.44214e-05     -11.9699 
          -5      2.89494 -0.000212667  1.46802e-05     -11.9699 
          -5      2.94735 -0.000211985   1.4962e-05     -11.9699 
          -5       3.0002 -0.000211203  1.52582e-05     -11.9699 
          -5      3.05355 -0.000210344  1.55604e-05       -11.97 
          -5      3.10733 -0.000209438  1.58595e-05       -11.97 
          -5      3.16163 -0.000208515  1.61491e-05       -11.97 
          -5      3.21639 -0.000207608  1.64253e-05       -11.97 
          -5      3.27158 -0.000206754  1.66895e-05       -11.97 
          -5      3.32729 -0.000205984  1.69515e-05     -11.9701 
          -5      3.38342 -0.000205361  1.71565e-05     -11.9701 
          -5      3.44007 -0.000204903  1.72966e-05     -11.9701 
          -5      3.49714 -0.000204552   1.7426e-05     -11.9701 
          -5      3.55472 -0.000204279  1.74968e-05     -11.9701 
          -5      3.61273 -0.000204045  1.74944e-05     -11.9701 
          -5      3.67125  -0.00020381  1.74321e-05     -11.9702 
          -5      3.73025 -0.000203539  1.73471e-05     -11.9702 
          -5      3.78967 -0.000203219  1.72957e-05     -11.9702 
          -5      3.84961 -0.000202867  1.73495e-05     -11.9702 
          -5      3.90996 -0.000202547  1.75926e-05     -11.9702 
          -5      3.97084 -0.000202314  1.74364e-05     -11.9703 
          -5      4.03214 -0.000202013  1.74634e-05     -11.9703 
          -5      4.09395 -0.000201692  1.75861e-05     -11.9703 
          -5      4.15624 -0.000201382  1.77384e-05     -11.9703 
          -5      4.21895 -0.000201094  1.78807e-05     -11.9703 
          -5      4.28217 -0.000200832   1.7995e-05     -11.9704 
          -5      4.34582 -0.000200587  1.80781e-05     -11.9704 
          -5      4.40998 -0.000200348  1.81374e-05     -11.9704 
          -5      4.47457 -0.000200102  1.81853e-05     -11.9704 
          -5      4.53968  -0.00019984  1.82355e-05     -11.9704 
          -5      4.60525 -0.000199554  1.82992e-05     -11.9705 
          -5      4.67125 -0.000199244  1.83824e-05     -11.9705 
          -5      4.73777 -0.000198916   1.8485e-05     -11.9705 
          -5       4.8047 -0.000198585  1.85997e-05     -11.9705 
          -5      4.87216 -0.000198269  1.87139e-05     -11.9705 
          -5      4.94003 -0.000197994  1.88124e-05     -11.9706 
          -5      5.00843 -0.000197785  1.88822e-05     -11.9706 
          -5      5.07724 -0.000197663  1.89197e-05     -11.9706 
          -5      5.14658 -0.000197638    1.894e-05     -11.9706 
          -5      5.21639 -0.000197535  1.90888e-05     -11.9706 
          -5      5.28661 -0.000197455  1.94197e-05     -11.9706 
          -5      5.35736 -0.000197539  1.93901e-05     -11.9707 
          -5      5.42852 -0.000197515  1.93726e-05     -11.9707 
          -5      5.50021 -0.000197355  1.94125e-05     -11.9707 
          -5      5.57231 -0.000197164  1.94594e-05     -11.9707 
          -5      5.64493  -0.00019696  1.94994e-05     -11.9707 
          -5      5.71803 -0.000196756  1.95224e-05     -11.9707 
          -5      5.79154 -0.000196558  1.95219e-05     -11.9707 
          -5      5.86558 -0.000196368  1.94947e-05     -11.9708 
          -5      5.94003 -0.000196183  1.94406e-05     -11.9708 
          -5      6.01501 -0.000195999  1.93615e-05     -11.9708 
          -5       6.0904 -0.000195813   1.9262e-05     -11.9708 
          -5      6.16632 -0.000195621  1.91472e-05     -11.9708 
          -5      6.24271 -0.000195419   1.9024e-05     -11.9708 
          -5       6.3195 -0.000195207  1.88989e-05     -11.9708 
          -5      6.39683 -0.000194985   1.8778e-05     -11.9708 
          -5      6.47457 -0.000194756  1.86661e-05     -11.9708 
          -5      6.55284 -0.000194526  1.85656e-05     -11.9708 
          -5      6.63152 -0.000194299   1.8476e-05     -11.9709 
          -5      6.71073 -0.000194081  1.83925e-05     -11.9709 
          -5      6.79034 -0.000193876  1.83048e-05     -11.9709 
          -5      6.87049 -0.000193681  1.81964e-05     -11.9709 
          -5      6.95111 -0.000193491  1.80427e-05     -11.9709 
          -5      7.03214 -0.000193284  1.78199e-05     -11.9709 
          -5       7.1137 -0.000193103  1.77427e-05     -11.9709 
          -5      7.19566 -0.000192993  1.75874e-05     -11.9709 
          -5      7.27816 -0.000192922  1.73801e-05     -11.9709 
          -5      7.36106 -0.000192868  1.71427e-05     -11.9709 
          -5      7.44451 -0.000192817  1.68922e-05     -11.9709 
          -5      7.52842 -0.000192762  1.66414e-05     -11.9709 
          -5      7.61273 -0.000192699  1.63986e-05     -11.9709 
          -5      7.69758 -0.000192628  1.61672e-05     -11.9709 
          -5      7.78283 -0.000192552  1.59473e-05     -11.9709 
          -5      7.86862 -0.000192474  1.57352e-05     -11.9709 
          -5      7.95481 -0.000192395  1.55254e-05     -11.9709 
          -5      8.04155 -0.000192316  1.53105e-05     -11.9709 
          -5      8.12868 -0.000192237  1.50841e-05     -11.9708 
          -5      8.21635 -0.000192155  1.48407e-05     -11.9708 
          -5      8.30449 -0.000192066  1.45798e-05     -11.9708 
          -5      8.39303 -0.000191964  1.43071e-05     -11.9708 
          -5      8.48211 -0.000191843  1.40369e-05     -11.9708 
          -5      8.57159 -0.000191768  1.37428e-05     -11.9708 
          -5      8.66161 -0.000191769  1.34191e-05     -11.9708 
          -5      8.75203  -0.00019179  1.31394e-05     -11.9708 
          -5      8.84299 -0.000191826  1.29156e-05     -11.9707 
          -5      8.93443 -0.000191864  1.27197e-05     -11.9707 
          -5      9.02626 -0.000191893  1.24702e-05     -11.9707 
          -5      9.11863 -0.000191717  1.22084e-05     -11.9707 
          -5      9.21139 -0.000191512  1.19398e-05     -11.9707 
          -5      9.30471 -0.000191377  1.16472e-05     -11.9706 
          -5      9.39841 -0.000191287  1.13738e-05     -11.9706 
          -5      9.49267 -0.000191219  1.11488e-05     -11.9706 
          -5      9.58739 -0.000191153  1.09889e-05     -11.9705 
          -5      9.68251 -0.000191082  1.08931e-05     -11.9705 
          -5      9.77817 -0.000191023  1.08118e-05     -11.9705 
          -5      9.87422 -0.000190911  1.07568e-05     -11.9705 
          -5      9.97083 -0.000190756  1.07264e-05     -11.9704 
          -5      10.0678 -0.000190572  1.07128e-05     -11.9704 
          -5      10.1654 -0.000190378  1.07057e-05     -11.9704 
          -5      10.2633  -0.00019019  1.06946e-05     -11.9703 
          -5      10.3618 -0.000190027  1.06706e-05     -11.9703 
          -5      10.4607 -0.000189901  1.06288e-05     -11.9702 
          -5      10.5601  -0.00018982  1.05683e-05     -11.9702 
          -5        10.66 -0.000189783  1.04931e-05     -11.9702 
          -5      10.7603 -0.000189781  1.04116e-05     -11.9701 
          -5      10.8611 -0.000189795  1.03351e-05     -11.9701 
          -5      10.9623 -0.000189794  1.02758e-05       -11.97 
          -5      11.0641 -0.000189731   1.0244e-05       -11.97 
          -5      11.1663 -0.000189551  1.02434e-05     -11.9699 
          -5       11.269 -0.000189337  1.02227e-05     -11.9699 
          -5      11.3721 -0.000189344  1.00864e-05     -11.9698 
          -5      11.4757 -0.000189292  9.91701e-06     -11.9698 
          -5      11.5798 -0.000189205  9.71592e-06     -11.9697 
          -5      11.6844 -0.000189105  9.48563e-06     -11.9696 
          -5      11.7894 -0.000189007   9.2286e-06     -11.9696 
          -5       11.895 -0.000188923   8.9487e-06     -11.9695 
          -5      12.0009 -0.000188861  8.65088e-06     -11.9694 
          -5      12.1073 -0.000188825  8.34053e-06     -11.9694 
          -5      12.2142 -0.000188815  8.02539e-06     -11.9693 
          -5      12.3216 -0.000188828  7.71371e-06     -11.9692 
          -5      12.4294 -0.000188858  7.41644e-06     -11.9692 
          -5      12.5378 -0.000188897  7.14546e-06     -11.9691 
          -5      12.6465 -0.000188935   6.9156e-06      -11.969 
          -5      12.7558 -0.000188962  6.74317e-06      -11.969 
          -5      12.8656 -0.000188783   6.3326e-06     -11.9689 
          -5      12.9757 -0.000188643  5.93665e-06     -11.9688 
          -5      13.0864 -0.000188558  5.60438e-06     -11.9687 
          -5      13.1975 -0.000188523  5.33973e-06     -11.9686 
          -5      13.3092 -0.000188527  5.13044e-06     -11.9685 
          -5      13.4212 -0.000188562  4.95248e-06     -11.9685 
          -5      13.5338 -0.000188617  4.77276e-06     -11.9684 
          -5      13.6468 -0.000188681  4.55613e-06     -11.9683 
          -5      13.7603 -0.000188747  4.27269e-06     -11.9682 
          -5      13.8743 -0.000188808  3.90676e-06     -11.9681 
          -5      13.9886 -0.000188864  3.47025e-06      -11.968 
          -5      14.1036 -0.000188919  3.01444e-06     -11.9679 
          -5      14.2189 -0.000188858   2.7182e-06     -11.9678 
          -5      14.3348  -0.00018869  2.53659e-06     -11.9677 
          -5       14.451   -0.0001886  2.29589e-06     -11.9676 
          -5      14.5678 -0.000188556  1.99619e-06     -11.9675 
          -5      14.6851 -0.000188537  1.64551e-06     -11.9674 
          -5      14.8028 -0.000188524  1.25744e-06     -11.9673 
          -5       14.921 -0.000188505  8.48235e-07     -11.9671 
          -5      15.0396  -0.00018847    4.372e-07      -11.967 
          -5      15.1588 -0.000188414  4.24373e-08     -11.9669 
          -5      15.2783 -0.000188332  -3.1822e-07     -11.9668 
          -5      15.3984 -0.000188223   -6.312e-07     -11.9667 
          -5       15.519 -0.000188085 -8.86517e-07     -11.9666 
          -5        15.64 -0.000187917 -1.08015e-06     -11.9664 
          -5      15.7615  -0.00018772 -1.21543e-06     -11.9663 
          -5      15.8834 -0.000187493 -1.30308e-06     -11.9662 
          -5      16.0058 -0.000187236 -1.36288e-06      -11.966 
          -5      16.1286 -0.000187243 -1.69853e-06     -11.9659 
          -5       16.252 -0.000187387 -2.13589e-06     -11.9658 
          -5      16.3759 -0.000187476 -2.49538e-06     -11.9656 
          -5      16.5002 -0.000187507 -2.78779e-06     -11.9655 
          -5       16.625 -0.000187481 -3.02631e-06     -11.9654 
          -5      16.7501 -0.000187407 -3.22492e-06     -11.9652 
          -5      16.8759 -0.000187297 -3.39947e-06     -11.9651 
          -5       17.002 -0.000187172 -3.56553e-06     -11.9649 
          -5      17.1287 -0.000187055 -3.73833e-06     -11.9648 
          -5      17.2557 -0.000186975 -3.92991e-06     -11.9646 
          -5      17.3834 -0.000186966 -4.14816e-06     -11.9645 
          -5      17.5115 -0.000187063  -4.3931e-06     -11.9643 
          -5      17.6399 -0.000187302 -4.65409e-06     -11.9641 
          -5       17.769 -0.000187719 -4.90677e-06      -11.964 
          -5      17.8984 -0.000187544 -4.99031e-06     -11.9638 
          -5      18.0284 -0.000187399 -4.94962e-06     -11.9636 
          -5      18.1587  -0.00018733 -4.89909e-06     -11.9635 
          -5      18.2896 -0.000187304 -4.90815e-06     -11.9633 
          -5       18.421 -0.000187297 -5.01439e-06     -11.9631 
          -5      18.5528  -0.00018729  -5.2296e-06      -11.963 
          -5      18.6851 -0.000187267 -5.54677e-06     -11.9628 
          -5      18.8178 -0.000187215 -5.94453e-06     -11.9626 
          -5      18.9511 -0.000187119 -6.39451e-06     -11.9624 
          -5      19.0847 -0.000186965  -6.8639e-06     -11.9622 
          -5      19.2189 -0.000186832 -7.08418e-06      -11.962 
          -5      19.3535 -0.000186804 -6.96606e-06     -11.9619 
          -5      19.4886 -0.000186731 -6.98001e-06     -11.9617 
          -5      19.6242 -0.000186628 -7.11674e-06     -11.9615 
          -5      19.7602 -0.000186508 -7.35654e-06     -11.9613 
          -5      19.8968 -0.000186388 -7.67173e-06     -11.9611 
          -5      20.0337  -0.00018628 -8.02733e-06     -11.9609 
          -5      20.1712 -0.000186198 -8.38586e-06     -11.9607 
          -5      20.3091 -0.000186152 -8.70885e-06     -11.9605 
          -5      20.4475 -0.000186145 -8.96342e-06     -11.9602 
          -5      20.5864 -0.000186178 -9.12586e-06       -11.96 
          -5      20.7257 -0.000186242 -9.18896e-06     -11.9598 
          -5      20.8655 -0.000186319 -9.16912e-06     -11.9596 
          -5      21.0058 -0.000186383 -9.11445e-06     -11.9594 
          -5      21.1465 -0.000186395 -9.11417e-06     -11.9592 
          -5      21.2877 -0.000186302 -9.30922e-06     -11.9589 
          -5      21.4294 -0.000186037 -9.90453e-06     -11.9587 
          -5      21.5716 -0.000185517 -1.11814e-05     -11.9585 
          -5      21.7142 -0.000185965 -1.10228e-05     -11.9583 
          -5      21.8573 -0.000186294 -1.07597e-05      -11.958 
          -5      22.0008 -0.000186329 -1.07904e-05     -11.9578 
          -5      22.1449 -0.000186204 -1.09959e-05     -11.9575 
          -5      22.2893 -0.000186018 -1.12871e-05     -11.9573 
          -5      22.4344 -0.000185837  -1.1602e-05     -11.9571 
          -5      22.5797 -0.000185698 -1.19011e-05     -11.9568 
          -5      22.7257 -0.000185615 -1.21652e-05     -11.9566 
          -5      22.8721 -0.000185582 -1.23908e-05     -11.9563 
          -5      23.0189  -0.00018558 -1.25872e-05     -11.9561 
          -5      23.1663 -0.000185581 -1.27738e-05     -11.9558 
          -5       23.314 -0.000185555 -1.29761e-05     -11.9555 
          -5      23.4623 -0.000185442 -1.32047e-05     -11.9553 
          -5       23.611 -0.000185165 -1.34496e-05      -11.955 
          -5      23.7602 -0.000184931 -1.37772e-05     -11.9547 
          -5        23.91 -0.000184744 -1.41416e-05     -11.9545 
          -5        24.06 -0.000184605 -1.45063e-05     -11.9542 
          -5      24.2107  -0.00018451 -1.48461e-05     -11.9539 
          -5      24.3617  -0.00018445 -1.51444e-05     -11.9536 
          -5      24.5133 -0.000184411 -1.53953e-05     -11.9534 
          -5      24.6653 -0.000184379 -1.56004e-05     -11.9531 
          -5      24.8178 -0.000184339 -1.57691e-05     -11.9528 
          -5      24.9708 -0.000184276 -1.59149e-05     -11.9525 
          -5      25.1242  -0.00018418 -1.60538e-05     -11.9522 
          -5      25.2781 -0.000184047  -1.6201e-05     -11.9519 
          -5      25.4324 -0.000183879 -1.63665e-05     -11.9516 
          -5      25.5873 -0.000183695 -1.65511e-05     -11.9513 
          -5      25.7426 -0.000183525 -1.67404e-05      -11.951 
          -5      25.8984 -0.000183424 -1.68997e-05     -11.9507 
          -5      26.0546 -0.000183467 -1.69664e-05     -11.9504 
          -5      26.2114 -0.000183423 -1.71057e-05     -11.9501 
          -5      26.3686 -0.000183269 -1.73166e-05     -11.9498 
          -5      26.5262 -0.000183159 -1.74771e-05     -11.9495 
          -5      26.6844 -0.000183074 -1.76021e-05     -11.9491 
          -5      26.8429 -0.000183001 -1.77042e-05     -11.9488 
          -5       27.002 -0.000182929 -1.77944e-05     -11.9485 
          -5      27.1615 -0.000182848 -1.78816e-05     -11.9482 
          -5      27.3216 -0.000182755 -1.79736e-05     -11.9478 
          -5      27.4821 -0.000182648 -1.80761e-05     -11.9475 
          -5       27.643 -0.000182529 -1.81933e-05     -11.9472 
          -5      27.8044   -0.0001824 -1.83281e-05     -11.9468 
          -5      27.9663 -0.000182267 -1.84817e-05     -11.9465 
          -5      28.1287 -0.000182135 -1.86545e-05     -11.9462 
          -5      28.2914 -0.000182014 -1.88449e-05     -11.9458 
          -5      28.4548 -0.000181908 -1.90508e-05     -11.9455 
          -5      28.6185 -0.000181826 -1.92684e-05     -11.9451 
          -5      28.7828 -0.000181772 -1.94936e-05     -11.9447 
          -5      28.9475 -0.000181747 -1.97206e-05     -11.9444 
          -5      29.1126 -0.000181752  -1.9943e-05      -11.944 
          -5      29.2784 -0.000181779 -2.01541e-05     -11.9437 
          -5      29.4444 -0.000181817 -2.03458e-05     -11.9433 
          -5       29.611 -0.000181846   -2.051e-05     -11.9429 
          -5       29.778 -0.000181838 -2.06377e-05     -11.9426 
          -5      29.9456 -0.000181753 -2.07197e-05     -11.9422 
          -5      30.1137 -0.000181541 -2.07464e-05     -11.9418 
          -5      30.2821 -0.000181136  -2.0708e-05     -11.9414 
          -5      30.4511 -0.000180499 -2.06293e-05      -11.941 
          -5      30.6204 -0.000180564 -2.12095e-05     -11.9407 
          -5      30.7903 -0.000180601 -2.17087e-05     -11.9403 
          -5      30.9606 -0.000180612 -2.21234e-05     -11.9399 
          -5      31.1315 -0.000180594 -2.24532e-05     -11.9395 
          -5      31.3028 -0.000180547 -2.26996e-05     -11.9391 
          -5      31.4745 -0.000180467  -2.2868e-05     -11.9387 
          -5      31.6468 -0.000180355 -2.29688e-05     -11.9383 
          -5      31.8194  -0.00018021 -2.30176e-05     -11.9379 
          -5      31.9926 -0.000180036 -2.30368e-05     -11.9375 
          -5      32.1662 -0.000179838 -2.30563e-05      -11.937 
          -5      32.3404 -0.000179628 -2.31154e-05     -11.9366 
          -5      32.5149 -0.000179423 -2.32635e-05     -11.9362 
          -5        32.69 -0.000179245 -2.35619e-05     -11.9358 
          -5      32.8655  -0.00017914 -2.39407e-05     -11.9354 
          -5      33.0414 -0.000179042 -2.41872e-05     -11.9349 
          -5       33.218  -0.00017892 -2.43633e-05     -11.9345 
          -5      33.3948 -0.000178779 -2.44945e-05     -11.9341 
          -5      33.5723  -0.00017862 -2.46022e-05     -11.9336 
          -5        33.75 -0.000178449 -2.47034e-05     -11.9332 
          -5      33.9284 -0.000178269 -2.48116e-05     -11.9328 
          -5      34.1073 -0.000178084 -2.49365e-05     -11.9323 
          -5      34.2865 -0.000177897 -2.50846e-05     -11.9319 
          -5      34.4663 -0.000177712 -2.52598e-05     -11.9314 
          -5      34.6465 -0.000177532 -2.54631e-05      -11.931 
          -5      34.8272 -0.000177361 -2.56937e-05     -11.9305 
          -5      35.0083 -0.000177201 -2.59482e-05     -11.9301 
          -5        35.19 -0.000177053 -2.62223e-05     -11.9296 
          -5      35.3721  -0.00017692 -2.65098e-05     -11.9291 
          -5      35.5546 -0.000176803 -2.68036e-05     -11.9287 
          -5      35.7377 -0.000176702 -2.70961e-05     -11.9282 
          -5      35.9211 -0.000176618 -2.73787e-05     -11.9277 
          -5      36.1052 -0.000176549 -2.76435e-05     -11.9272 
          -5      36.2895 -0.000176496 -2.78815e-05     -11.9268 
          -5      36.4745 -0.000176455 -2.80851e-05     -11.9263 
          -5      36.6598 -0.000176424 -2.82465e-05     -11.9258 
          -5      36.8457 -0.000176401 -2.83594e-05     -11.9253 
          -5      37.0321 -0.000176383  -2.8418e-05     -11.9248 
          -5      37.2188 -0.000176365 -2.84179e-05     -11.9243 
          -5      37.4062 -0.000176344 -2.83562e-05     -11.9238 
          -5      37.5938 -0.000176314 -2.82319e-05     -11.9233 
          -5      37.7821 -0.000176272 -2.80454e-05     -11.9228 
          -5      37.9707 -0.000176213 -2.77994e-05     -11.9223 
          -5      38.1599 -0.000175722 -2.80127e-05     -11.9218 
          -5      38.3496 -0.000175284 -2.82663e-05     -11.9213 
          -5      38.5396 -0.000174904 -2.85485e-05     -11.9208 
          -5      38.7302 -0.000174586 -2.88487e-05     -11.9203 
          -5      38.9211  -0.00017433 -2.91549e-05     -11.9198 
          -5      39.1127 -0.000174137 -2.94558e-05     -11.9192 
          -5      39.3046 -0.000174004 -2.97386e-05     -11.9187 
          -5      39.4971 -0.000173923 -2.99914e-05     -11.9182 
          -5      39.6899 -0.000173884 -3.02013e-05     -11.9177 
          -5      39.8833 -0.000173873 -3.03565e-05     -11.9171 
          -5      40.0772 -0.000173869 -3.04448e-05     -11.9166 
          -5      40.2714 -0.000173845 -3.04551e-05     -11.9161 
          -5      40.4663 -0.000173766 -3.03773e-05     -11.9155 
          -5      40.6615 -0.000173591 -3.02026e-05      -11.915 
          -5      40.8573 -0.000173267 -2.99239e-05     -11.9144 
          -5      41.0534 -0.000173026 -3.04762e-05     -11.9139 
          -5      41.2501 -0.000172711 -3.13719e-05     -11.9133 
          -5      41.4473 -0.000172304 -3.22776e-05     -11.9128 
          -5      41.6448 -0.000171891 -3.31214e-05     -11.9122 
          -5      41.8429 -0.000171562 -3.38244e-05     -11.9116 
          -5      42.0414 -0.000171424 -3.42957e-05     -11.9111 
          -5      42.2405 -0.000171588 -3.44373e-05     -11.9105 
          -5      42.4399 -0.000172007 -3.41573e-05     -11.9099 
          -5      42.6399 -0.000171964  -3.3828e-05     -11.9094 
          -5      42.8404 -0.000171882 -3.36288e-05     -11.9088 
          -5      43.0412 -0.000171766 -3.35347e-05     -11.9082 
          -5      43.2426 -0.000171618 -3.35232e-05     -11.9076 
          -5      43.4444 -0.000171445 -3.35746e-05     -11.9071 
          -5      43.6467  -0.00017125 -3.36719e-05     -11.9065 
          -5      43.8494 -0.000171038 -3.38002e-05     -11.9059 
          -5      44.0527 -0.000170813 -3.39472e-05     -11.9053 
          -5      44.2563 -0.000170579 -3.41025e-05     -11.9047 
          -5      44.4606 -0.000170341 -3.42582e-05     -11.9041 
          -5      44.6653 -0.000170101 -3.44078e-05     -11.9035 
          -5      44.8704 -0.000169864 -3.45467e-05     -11.9029 
          -5       45.076 -0.000169631 -3.46724e-05     -11.9023 
          -5       45.282 -0.000169406 -3.47834e-05     -11.9017 
          -5      45.4886 -0.000169188 -3.48796e-05     -11.9011 
          -5      45.6955  -0.00016898 -3.49622e-05     -11.9005 
          -5       45.903 -0.000168782 -3.50335e-05     -11.8998 
          -5      46.1111 -0.000168594 -3.50962e-05     -11.8992 
          -5      46.3194 -0.000168416  -3.5154e-05     -11.8986 
          -5      46.5283 -0.000168245 -3.52108e-05      -11.898 
          -5      46.7376  -0.00016808 -3.52708e-05     -11.8974 
          -5      46.9475 -0.000167919 -3.53383e-05     -11.8967 
          -5      47.1577  -0.00016776 -3.54171e-05     -11.8961 
          -5      47.3685 -0.000167599  -3.5511e-05     -11.8955 
          -5      47.5798 -0.000167434 -3.56227e-05     -11.8948 
          -5      47.7914 -0.000167262  -3.5754e-05     -11.8942 
          -5      48.0037 -0.000167078 -3.59058e-05     -11.8935 