Variables = x, y, u, v, p

Zone, I=800, F=POINT
         -25            0 -5.74018e-20 -2.12621e-24     -20.6313 
         -25     0.000234 -2.84918e-06 -1.07698e-10     -20.6313 
         -25     0.000939  -1.0797e-05 -4.33009e-10     -20.6313 
         -25     0.002113 -2.20722e-05 -9.71049e-10     -20.6313 
         -25     0.003759 -3.42793e-05 -1.69696e-09     -20.6313 
         -25     0.005872 -4.49103e-05 -2.53748e-09     -20.6313 
         -25     0.008457 -5.21026e-05 -3.35875e-09     -20.6313 
         -25      0.01151 -5.50199e-05 -3.95027e-09     -20.6313 
         -25     0.015036 -5.40961e-05 -4.03928e-09     -20.6313 
         -25     0.019031 -5.08226e-05 -3.31694e-09     -20.6313 
         -25     0.023493 -4.72057e-05 -1.48777e-09     -20.6313 
         -25     0.028429 -4.49845e-05  1.68695e-09     -20.6313 
         -25     0.033831  -4.4917e-05  6.33807e-09     -20.6313 
         -25     0.039706 -4.64022e-05  1.25035e-08     -20.6313 
         -25     0.046047 -4.77875e-05  2.01516e-08     -20.6313 
         -25     0.052863 -4.74525e-05  2.93162e-08     -20.6313 
         -25      0.06015 -4.53369e-05  4.01948e-08     -20.6313 
         -25       0.0679 -4.38077e-05   5.3236e-08     -20.6313 
         -25     0.076126 -4.54322e-05   6.9051e-08     -20.6313 
         -25     0.084816 -4.48551e-05  8.76194e-08     -20.6313 
         -25     0.093982 -4.40895e-05  1.08237e-07     -20.6313 
         -25     0.103611 -4.35684e-05  1.31505e-07     -20.6313 
         -25     0.113718 -4.31585e-05  1.57567e-07     -20.6313 
         -25     0.124286 -4.27708e-05  1.86446e-07     -20.6313 
         -25     0.135333 -4.23612e-05  2.18232e-07     -20.6313 
         -25      0.14685 -4.19274e-05  2.52916e-07     -20.6313 
         -25     0.158827 -4.14953e-05  2.90474e-07     -20.6313 
         -25     0.171284 -4.10981e-05  3.30984e-07     -20.6313 
         -25     0.184201 -4.07569e-05  3.74418e-07     -20.6313 
         -25     0.197599 -4.04614e-05  4.20911e-07     -20.6313 
         -25     0.211455 -4.01709e-05  4.70472e-07     -20.6313 
         -25     0.225792 -3.98434e-05  5.23259e-07     -20.6313 
         -25       0.2406 -3.95235e-05  5.79235e-07     -20.6313 
         -25     0.255865 -3.93319e-05  6.38449e-07     -20.6313 
         -25     0.271613 -3.90656e-05  7.01192e-07     -20.6313 
         -25     0.287818 -3.88271e-05  7.67412e-07     -20.6313 
         -25     0.304506 -3.86083e-05  8.37517e-07     -20.6313 
         -25      0.32165  -3.8403e-05  9.11392e-07     -20.6313 
         -25     0.339278  -3.8205e-05   9.8891e-07     -20.6313 
         -25     0.357377 -3.80101e-05   1.0696e-06     -20.6313 
         -25      0.37593 -3.78149e-05   1.1529e-06     -20.6313 
         -25     0.394968 -3.76163e-05  1.23853e-06     -20.6313 
         -25     0.414461 -3.74124e-05  1.32613e-06     -20.6313 
         -25      0.43444 -3.72009e-05  1.41591e-06     -20.6313 
         -25     0.454872 -3.69805e-05  1.50823e-06     -20.6313 
         -25     0.475791 -3.67487e-05  1.60425e-06     -20.6313 
         -25     0.497163  -3.6504e-05  1.70529e-06     -20.6313 
         -25     0.519021  -3.6244e-05  1.81336e-06     -20.6313 
         -25      0.54135 -3.59678e-05   1.9304e-06     -20.6313 
         -25     0.564131 -3.56762e-05  2.05796e-06     -20.6312 
         -25       0.5874  -3.5373e-05  2.19686e-06     -20.6312 
         -25     0.611121 -3.50683e-05  2.34573e-06     -20.6312 
         -25      0.63533 -3.47491e-05  2.49909e-06     -20.6312 
         -25      0.65999 -3.44206e-05  2.64929e-06     -20.6312 
         -25     0.685139 -3.40924e-05  2.79782e-06     -20.6312 
         -25     0.710759 -3.37746e-05   2.9455e-06     -20.6312 
         -25     0.736828 -3.34769e-05  3.09286e-06     -20.6312 
         -25     0.763387 -3.32084e-05  3.24046e-06     -20.6312 
         -25     0.790396 -3.29781e-05  3.38818e-06     -20.6312 
         -25     0.817896 -3.27942e-05  3.53607e-06     -20.6312 
         -25     0.845843 -3.26646e-05  3.68352e-06     -20.6312 
         -25     0.874283 -3.25961e-05  3.83026e-06     -20.6312 
         -25      0.90317 -3.25948e-05  3.97539e-06     -20.6312 
         -25     0.932551 -3.26659e-05  4.11845e-06     -20.6312 
         -25     0.962401 -3.28137e-05  4.25861e-06     -20.6312 
         -25     0.992697  -3.3041e-05  4.39514e-06     -20.6312 
         -25      1.02349 -3.33502e-05  4.52771e-06     -20.6312 
         -25      1.05472 -3.37413e-05  4.65572e-06     -20.6311 
         -25      1.08645 -3.42147e-05  4.77921e-06     -20.6311 
         -25      1.11863 -3.47675e-05  4.89798e-06     -20.6311 
         -25       1.1513 -3.53975e-05  5.01243e-06     -20.6311 
         -25      1.18444 -3.60996e-05   5.1228e-06     -20.6311 
         -25      1.21802 -3.68672e-05  5.22942e-06     -20.6311 
         -25      1.25211 -3.76939e-05  5.33281e-06     -20.6311 
         -25      1.28663 -3.85697e-05  5.43284e-06     -20.6311 
         -25      1.32165 -3.94854e-05  5.52918e-06     -20.6311 
         -25      1.35712 -4.04278e-05  5.62026e-06      -20.631 
         -25      1.39308  -4.1385e-05  5.70338e-06      -20.631 
         -25      1.42951 -4.23415e-05  5.77367e-06      -20.631 
         -25      1.46638   -4.328e-05  5.82353e-06      -20.631 
         -25      1.50375 -4.41842e-05  5.84184e-06      -20.631 
         -25      1.54156 -4.54766e-05  5.83829e-06      -20.631 
         -25      1.57987 -4.66476e-05  5.87044e-06      -20.631 
         -25      1.61863 -4.76588e-05  5.93193e-06     -20.6309 
         -25      1.65788 -4.85138e-05  6.01571e-06     -20.6309 
         -25      1.69757 -4.92152e-05  6.11508e-06     -20.6309 
         -25      1.73776 -4.97694e-05   6.2243e-06     -20.6309 
         -25      1.77842 -5.01828e-05  6.33804e-06     -20.6309 
         -25      1.81952 -5.04636e-05  6.45164e-06     -20.6309 
         -25      1.86113 -5.06218e-05  6.56137e-06     -20.6308 
         -25      1.90316 -5.06682e-05  6.66385e-06     -20.6308 
         -25      1.94571 -5.06146e-05  6.75665e-06     -20.6308 
         -25      1.98869 -5.04738e-05  6.83768e-06     -20.6308 
         -25      2.03217 -5.02591e-05  6.90574e-06     -20.6307 
         -25      2.07612 -4.99845e-05  6.95999e-06     -20.6307 
         -25      2.12051 -4.96645e-05  7.00017e-06     -20.6307 
         -25       2.1654 -4.93128e-05  7.02655e-06     -20.6307 
         -25      2.21073  -4.8944e-05  7.03976e-06     -20.6307 
         -25      2.25656 -4.85712e-05  7.04079e-06     -20.6306 
         -25      2.30283  -4.8208e-05  7.03092e-06     -20.6306 
         -25       2.3496 -4.78658e-05  7.01161e-06     -20.6306 
         -25      2.39685 -4.75559e-05  6.98447e-06     -20.6305 
         -25      2.44452 -4.72881e-05  6.95116e-06     -20.6305 
         -25      2.49271   -4.707e-05  6.91325e-06     -20.6305 
         -25      2.54132  -4.6908e-05  6.87225e-06     -20.6304 
         -25      2.59044 -4.68061e-05  6.82938e-06     -20.6304 
         -25         2.64 -4.67666e-05   6.7857e-06     -20.6304 
         -25      2.69006 -4.67894e-05  6.74177e-06     -20.6303 
         -25      2.74056 -4.68722e-05  6.69787e-06     -20.6303 
         -25      2.79156 -4.70106e-05  6.65366e-06     -20.6303 
         -25      2.84304 -4.71978e-05  6.60842e-06     -20.6302 
         -25      2.89494 -4.74248e-05  6.56086e-06     -20.6302 
         -25      2.94735 -4.76817e-05  6.50906e-06     -20.6302 
         -25       3.0002 -4.79561e-05  6.45075e-06     -20.6301 
         -25      3.05355 -4.82357e-05  6.38302e-06     -20.6301 
         -25      3.10733  -4.8507e-05  6.30277e-06       -20.63 
         -25      3.16163 -4.87575e-05  6.20641e-06       -20.63 
         -25      3.21639 -4.89756e-05  6.09047e-06     -20.6299 
         -25      3.27158 -4.91523e-05  5.95162e-06     -20.6299 
         -25      3.32729 -4.92825e-05  5.78664e-06     -20.6298 
         -25      3.38342 -4.93659e-05  5.59348e-06     -20.6298 
         -25      3.44007 -4.94098e-05  5.37067e-06     -20.6297 
         -25      3.49714   -4.943e-05  5.11902e-06     -20.6297 
         -25      3.55472  -4.9454e-05  4.84074e-06     -20.6296 
         -25      3.61273 -4.95233e-05  4.54172e-06     -20.6296 
         -25      3.67125 -4.96965e-05  4.23055e-06     -20.6295 
         -25      3.73025 -5.00526e-05  3.92097e-06     -20.6295 
         -25      3.78967 -5.02257e-05   3.5505e-06     -20.6294 
         -25      3.84961 -5.02095e-05  3.18218e-06     -20.6294 
         -25      3.90996 -5.01794e-05  2.86046e-06     -20.6293 
         -25      3.97084 -5.01354e-05  2.58241e-06     -20.6292 
         -25      4.03214 -5.00778e-05  2.34357e-06     -20.6292 
         -25      4.09395 -5.00071e-05  2.13684e-06     -20.6291 
         -25      4.15624 -4.99243e-05   1.9546e-06      -20.629 
         -25      4.21895 -4.98306e-05  1.78878e-06      -20.629 
         -25      4.28217  -4.9727e-05  1.63123e-06     -20.6289 
         -25      4.34582 -4.96153e-05  1.47519e-06     -20.6288 
         -25      4.40998 -4.94969e-05  1.31486e-06     -20.6288 
         -25      4.47457 -4.93735e-05  1.14692e-06     -20.6287 
         -25      4.53968 -4.92467e-05  9.69783e-07     -20.6286 
         -25      4.60525 -4.91179e-05  7.84877e-07     -20.6285 
         -25      4.67125 -4.89885e-05   5.9632e-07     -20.6285 
         -25      4.73777 -4.88589e-05  4.10433e-07     -20.6284 
         -25       4.8047 -4.87296e-05  2.36535e-07     -20.6283 
         -25      4.87216 -4.85999e-05  8.53567e-08     -20.6282 
         -25      4.94003 -4.84684e-05 -3.05838e-08     -20.6281 
         -25      5.00843 -4.83322e-05 -9.88549e-08      -20.628 
         -25      5.07724 -4.81875e-05 -1.07679e-07     -20.6279 
         -25      5.14658 -4.80282e-05 -4.79283e-08     -20.6279 
         -25      5.21639 -4.78464e-05   8.5058e-08     -20.6278 
         -25      5.28661  -4.7632e-05  2.88809e-07     -20.6277 
         -25      5.35736 -4.73713e-05  5.51619e-07     -20.6276 
         -25      5.42852 -4.71269e-05  5.32511e-07     -20.6275 
         -25      5.50021 -4.69678e-05  1.78182e-07     -20.6274 
         -25      5.57231 -4.68238e-05 -1.12439e-07     -20.6273 
         -25      5.64493  -4.6785e-05 -1.29777e-07     -20.6272 
         -25      5.71803 -4.68766e-05  1.11241e-07     -20.6271 
         -25      5.79154 -4.69627e-05  2.67311e-07     -20.6269 
         -25      5.86558  -4.7033e-05  3.57011e-07     -20.6268 
         -25      5.94003 -4.70808e-05  3.95805e-07     -20.6267 
         -25      6.01501 -4.71033e-05  3.96991e-07     -20.6266 
         -25       6.0904 -4.71003e-05  3.71712e-07     -20.6265 
         -25      6.16632 -4.70736e-05  3.29321e-07     -20.6264 
         -25      6.24271 -4.70266e-05   2.7776e-07     -20.6262 
         -25       6.3195 -4.69073e-05  2.32534e-07     -20.6261 
         -25      6.39683 -4.67192e-05  2.12611e-07      -20.626 
         -25      6.47457 -4.65513e-05  2.13578e-07     -20.6259 
         -25      6.55284 -4.64021e-05   2.3384e-07     -20.6257 
         -25      6.63152 -4.62686e-05  2.67808e-07     -20.6256 
         -25      6.71073 -4.61466e-05  3.07762e-07     -20.6255 
         -25      6.79034 -4.60324e-05  3.45301e-07     -20.6253 
         -25      6.87049 -4.59224e-05  3.73052e-07     -20.6252 
         -25      6.95111 -4.58146e-05  3.85768e-07      -20.625 
         -25      7.03214 -4.57091e-05   3.8156e-07     -20.6249 
         -25       7.1137 -4.56078e-05  3.62683e-07     -20.6248 
         -25      7.19566 -4.55155e-05  3.36129e-07     -20.6246 
         -25      7.27816 -4.54393e-05  3.13762e-07     -20.6245 
         -25      7.36106 -4.53887e-05  3.12299e-07     -20.6243 
         -25      7.44451 -4.53752e-05  3.52662e-07     -20.6241 
         -25      7.52842 -4.54116e-05  4.59012e-07      -20.624 
         -25      7.61273 -4.55111e-05  6.56953e-07     -20.6238 
         -25      7.69758  -4.5686e-05  9.72151e-07     -20.6236 
         -25      7.78283  -4.5946e-05  1.42624e-06     -20.6235 
         -25      7.86862  -4.6197e-05  1.71238e-06     -20.6233 
         -25      7.95481  -4.6195e-05  1.48604e-06     -20.6231 
         -25      8.04155 -4.61455e-05  1.13125e-06      -20.623 
         -25      8.12868 -4.59599e-05  1.06978e-06     -20.6228 
         -25      8.21635 -4.55111e-05  1.50209e-06     -20.6226 
         -25      8.30449 -4.53103e-05  1.88342e-06     -20.6224 
         -25      8.39303 -4.52899e-05   2.2033e-06     -20.6222 
         -25      8.48211 -4.53928e-05   2.4561e-06      -20.622 
         -25      8.57159 -4.55723e-05  2.63875e-06     -20.6218 
         -25      8.66161 -4.57905e-05  2.75166e-06     -20.6216 
         -25      8.75203 -4.60174e-05  2.79694e-06     -20.6214 
         -25      8.84299 -4.62514e-05  2.54582e-06     -20.6212 
         -25      8.93443 -4.63954e-05  2.23174e-06      -20.621 
         -25      9.02626 -4.64448e-05  1.98235e-06     -20.6208 
         -25      9.11863 -4.64235e-05  1.78701e-06     -20.6206 
         -25      9.21139 -4.63546e-05  1.63383e-06     -20.6204 
         -25      9.30471 -4.62598e-05  1.50954e-06     -20.6202 
         -25      9.39841 -4.61585e-05  1.40158e-06     -20.6199 
         -25      9.49267 -4.60668e-05  1.29815e-06     -20.6197 
         -25      9.58739 -4.59973e-05  1.18965e-06     -20.6195 
         -25      9.68251 -4.59586e-05  1.06907e-06     -20.6192 
         -25      9.77817 -4.59546e-05  9.32045e-07      -20.619 
         -25      9.87422 -4.59852e-05  7.77836e-07     -20.6188 
         -25      9.97083 -4.60462e-05  6.08394e-07     -20.6185 
         -25      10.0678 -4.61295e-05  4.29064e-07     -20.6183 
         -25      10.1654 -4.62249e-05  2.46959e-07      -20.618 
         -25      10.2633   -4.632e-05  7.12014e-08     -20.6178 
         -25      10.3618 -4.64027e-05 -8.94264e-08     -20.6175 
         -25      10.4607 -4.64624e-05  -2.2708e-07     -20.6172 
         -25      10.5601 -4.64927e-05 -3.37344e-07      -20.617 
         -25        10.66 -4.64938e-05 -4.21847e-07     -20.6167 
         -25      10.7603  -4.6476e-05 -4.90573e-07     -20.6164 
         -25      10.8611 -4.64632e-05 -5.65847e-07     -20.6162 
         -25      10.9623  -4.6497e-05 -6.85748e-07     -20.6159 
         -25      11.0641  -4.6642e-05 -9.09248e-07     -20.6156 
         -25      11.1663 -4.69113e-05 -1.19812e-06     -20.6153 
         -25       11.269 -4.71418e-05  -1.3737e-06      -20.615 
         -25      11.3721 -4.73797e-05 -1.57323e-06     -20.6147 
         -25      11.4757 -4.76047e-05 -1.78219e-06     -20.6144 
         -25      11.5798 -4.77999e-05 -1.98721e-06     -20.6141 
         -25      11.6844 -4.79507e-05 -2.17603e-06     -20.6138 
         -25      11.7894 -4.80469e-05 -2.33986e-06     -20.6135 
         -25       11.895 -4.80819e-05 -2.47336e-06     -20.6132 
         -25      12.0009 -4.80546e-05 -2.57601e-06     -20.6129 
         -25      12.1073 -4.79686e-05 -2.65298e-06     -20.6125 
         -25      12.2142 -4.78338e-05 -2.71519e-06     -20.6122 
         -25      12.3216 -4.76654e-05 -2.78019e-06     -20.6119 
         -25      12.4294 -4.74858e-05 -2.87186e-06     -20.6115 
         -25      12.5378 -4.73229e-05 -3.02088e-06     -20.6112 
         -25      12.6465 -4.72119e-05  -3.2637e-06     -20.6108 
         -25      12.7558 -4.72261e-05 -3.47884e-06     -20.6105 
         -25      12.8656 -4.73184e-05 -3.48993e-06     -20.6101 
         -25      12.9757 -4.73821e-05 -3.56445e-06     -20.6098 
         -25      13.0864 -4.74284e-05 -3.66446e-06     -20.6094 
         -25      13.1975 -4.74679e-05 -3.75924e-06     -20.6091 
         -25      13.3092 -4.75108e-05 -3.82627e-06     -20.6087 
         -25      13.4212 -4.75657e-05 -3.85097e-06     -20.6083 
         -25      13.5338 -4.76394e-05 -3.82723e-06     -20.6079 
         -25      13.6468 -4.77362e-05 -3.75709e-06     -20.6075 
         -25      13.7603 -4.78574e-05 -3.65076e-06     -20.6071 
         -25      13.8743 -4.80019e-05 -3.52573e-06     -20.6068 
         -25      13.9886 -4.81648e-05 -3.40668e-06     -20.6064 
         -25      14.1036 -4.83388e-05 -3.32385e-06     -20.6059 
         -25      14.2189 -4.85127e-05  -3.3125e-06     -20.6055 
         -25      14.3348 -4.86735e-05 -3.41103e-06     -20.6051 
         -25       14.451 -4.88054e-05 -3.65915e-06     -20.6047 
         -25      14.5678 -4.88913e-05 -4.09653e-06     -20.6043 
         -25      14.6851 -4.86683e-05 -4.24093e-06     -20.6039 
         -25      14.8028  -4.8442e-05  -4.2178e-06     -20.6034 
         -25       14.921 -4.83018e-05 -4.20012e-06      -20.603 
         -25      15.0396 -4.82201e-05 -4.19372e-06     -20.6025 
         -25      15.1588 -4.81751e-05 -4.20194e-06     -20.6021 
         -25      15.2783 -4.81505e-05 -4.22612e-06     -20.6016 
         -25      15.3984 -4.81342e-05  -4.2661e-06     -20.6012 
         -25       15.519 -4.81183e-05 -4.32055e-06     -20.6007 
         -25        15.64  -4.8098e-05 -4.38732e-06     -20.6002 
         -25      15.7615 -4.80715e-05 -4.46403e-06     -20.5998 
         -25      15.8834 -4.80388e-05 -4.54801e-06     -20.5993 
         -25      16.0058 -4.80016e-05 -4.63704e-06     -20.5988 
         -25      16.1286 -4.79625e-05 -4.72904e-06     -20.5983 
         -25       16.252 -4.79247e-05 -4.82288e-06     -20.5978 
         -25      16.3759 -4.78916e-05 -4.91793e-06     -20.5973 
         -25      16.5002  -4.7866e-05  -5.0144e-06     -20.5968 
         -25       16.625 -4.78503e-05 -5.11356e-06     -20.5963 
         -25      16.7501 -4.78457e-05 -5.21715e-06     -20.5958 
         -25      16.8759 -4.78522e-05 -5.32791e-06     -20.5953 
         -25       17.002 -4.78686e-05 -5.44864e-06     -20.5947 
         -25      17.1287 -4.78921e-05 -5.58267e-06     -20.5942 
         -25      17.2557 -4.79183e-05 -5.73269e-06     -20.5937 
         -25      17.3834 -4.79416e-05 -5.90109e-06     -20.5931 
         -25      17.5115 -4.79549e-05 -6.08862e-06     -20.5926 
         -25      17.6399 -4.79503e-05 -6.29392e-06      -20.592 
         -25       17.769  -4.7919e-05 -6.51333e-06     -20.5914 
         -25      17.8984 -4.79298e-05 -6.77106e-06     -20.5909 
         -25      18.0284 -4.80314e-05  -6.9456e-06     -20.5903 
         -25      18.1587 -4.81424e-05 -6.98071e-06     -20.5897 
         -25      18.2896 -4.82161e-05 -6.90235e-06     -20.5891 
         -25       18.421 -4.81846e-05  -6.7515e-06     -20.5886 
         -25      18.5528 -4.79554e-05 -6.58677e-06      -20.588 
         -25      18.6851 -4.74051e-05 -6.48609e-06     -20.5874 
         -25      18.8178 -4.63771e-05 -6.54988e-06     -20.5868 
         -25      18.9511 -4.65495e-05  -6.6956e-06     -20.5861 
         -25      19.0847 -4.72062e-05 -6.78452e-06     -20.5855 
         -25      19.2189  -4.7745e-05 -6.82506e-06     -20.5849 
         -25      19.3535 -4.81815e-05  -6.7988e-06     -20.5843 
         -25      19.4886 -4.85226e-05 -6.68959e-06     -20.5836 
         -25      19.6242 -4.86354e-05  -6.7089e-06      -20.583 
         -25      19.7602   -4.849e-05 -7.06255e-06     -20.5823 
         -25      19.8968 -4.83596e-05 -7.36151e-06     -20.5817 
         -25      20.0337 -4.82505e-05 -7.60111e-06      -20.581 
         -25      20.1712 -4.81654e-05 -7.78136e-06     -20.5803 
         -25      20.3091 -4.81044e-05  -7.9048e-06     -20.5797 
         -25      20.4475 -4.80653e-05 -7.97694e-06      -20.579 
         -25      20.5864 -4.80443e-05 -8.00489e-06     -20.5783 
         -25      20.7257 -4.80366e-05 -7.99714e-06     -20.5776 
         -25      20.8655 -4.80368e-05 -7.96291e-06     -20.5769 
         -25      21.0058 -4.80394e-05 -7.91169e-06     -20.5762 
         -25      21.1465  -4.8039e-05 -7.85257e-06     -20.5755 
         -25      21.2877  -4.8031e-05 -7.79421e-06     -20.5748 
         -25      21.4294 -4.80118e-05 -7.74406e-06      -20.574 
         -25      21.5716 -4.79787e-05 -7.70845e-06     -20.5733 
         -25      21.7142 -4.79308e-05 -7.69219e-06     -20.5726 
         -25      21.8573 -4.78682e-05  -7.6984e-06     -20.5718 
         -25      22.0008 -4.77927e-05 -7.72857e-06     -20.5711 
         -25      22.1449 -4.77075e-05 -7.78256e-06     -20.5703 
         -25      22.2893 -4.76172e-05 -7.85858e-06     -20.5696 
         -25      22.4344 -4.75273e-05 -7.95374e-06     -20.5688 
         -25      22.5797 -4.74443e-05 -8.06388e-06      -20.568 
         -25      22.7257 -4.73745e-05 -8.18464e-06     -20.5672 
         -25      22.8721 -4.73247e-05 -8.31139e-06     -20.5664 
         -25      23.0189 -4.73002e-05 -8.44017e-06     -20.5656 
         -25      23.1663 -4.73049e-05 -8.56883e-06     -20.5648 
         -25       23.314 -4.73401e-05 -8.69731e-06      -20.564 
         -25      23.4623 -4.74035e-05 -8.82947e-06     -20.5632 
         -25       23.611 -4.74878e-05 -8.97362e-06     -20.5624 
         -25      23.7602 -4.76076e-05 -9.02531e-06     -20.5615 
         -25        23.91 -4.76332e-05  -8.9553e-06     -20.5607 
         -25        24.06 -4.75424e-05 -8.90855e-06     -20.5599 
         -25      24.2107 -4.73915e-05 -8.89183e-06      -20.559 
         -25      24.3617 -4.72219e-05 -8.90853e-06     -20.5582 
         -25      24.5133 -4.70618e-05 -8.95916e-06     -20.5573 
         -25      24.6653 -4.69292e-05 -9.04173e-06     -20.5564 
         -25      24.8178 -4.68326e-05 -9.15262e-06     -20.5555 
         -25      24.9708  -4.6774e-05 -9.28661e-06     -20.5546 
         -25      25.1242   -4.675e-05 -9.43754e-06     -20.5538 
         -25      25.2781 -4.67533e-05 -9.59911e-06     -20.5529 
         -25      25.4324 -4.67747e-05 -9.76445e-06      -20.552 
         -25      25.5873 -4.68039e-05 -9.92755e-06      -20.551 
         -25      25.7426 -4.68311e-05 -1.00825e-05     -20.5501 
         -25      25.8984 -4.68474e-05 -1.02247e-05     -20.5492 
         -25      26.0546 -4.68463e-05 -1.03505e-05     -20.5483 
         -25      26.2114 -4.68238e-05  -1.0458e-05     -20.5473 
         -25      26.3686 -4.67785e-05 -1.05463e-05     -20.5464 
         -25      26.5262 -4.67128e-05 -1.06166e-05     -20.5454 
         -25      26.6844 -4.66314e-05 -1.06716e-05     -20.5444 
         -25      26.8429 -4.65421e-05 -1.07159e-05     -20.5435 
         -25       27.002 -4.64542e-05 -1.07556e-05     -20.5425 
         -25      27.1615 -4.63784e-05 -1.07982e-05     -20.5415 
         -25      27.3216 -4.63247e-05 -1.08527e-05     -20.5405 
         -25      27.4821 -4.63014e-05  -1.0929e-05     -20.5395 
         -25       27.643  -4.6313e-05 -1.10374e-05     -20.5385 
         -25      27.8044 -4.63576e-05 -1.11889e-05     -20.5375 
         -25      27.9663 -4.64244e-05 -1.13936e-05     -20.5365 
         -25      28.1287 -4.64906e-05 -1.16612e-05     -20.5355 
         -25      28.2914 -4.65177e-05 -1.19988e-05     -20.5344 
         -25      28.4548 -4.64478e-05  -1.2412e-05     -20.5334 
         -25      28.6185 -4.61989e-05  -1.2902e-05     -20.5323 
         -25      28.7828 -4.58584e-05 -1.31065e-05     -20.5313 
         -25      28.9475 -4.57888e-05 -1.25365e-05     -20.5302 
         -25      29.1126 -4.58706e-05 -1.17084e-05     -20.5291 
         -25      29.2784 -4.52401e-05 -1.17372e-05     -20.5281 
         -25      29.4444 -4.50244e-05 -1.17403e-05      -20.527 
         -25       29.611 -4.51616e-05 -1.19532e-05     -20.5259 
         -25       29.778 -4.52751e-05 -1.21897e-05     -20.5248 
         -25      29.9456 -4.53278e-05 -1.23241e-05     -20.5237 
         -25      30.1137 -4.53356e-05    -1.24e-05     -20.5226 
         -25      30.2821 -4.53128e-05 -1.24482e-05     -20.5214 
         -25      30.4511 -4.52718e-05 -1.24894e-05     -20.5203 
         -25      30.6204 -4.52228e-05 -1.25355e-05     -20.5192 
         -25      30.7903 -4.51741e-05 -1.25922e-05      -20.518 
         -25      30.9606 -4.51318e-05 -1.26602e-05     -20.5169 
         -25      31.1315 -4.50997e-05 -1.27372e-05     -20.5157 
         -25      31.3028 -4.50796e-05 -1.28191e-05     -20.5146 
         -25      31.4745 -4.50713e-05 -1.29011e-05     -20.5134 
         -25      31.6468 -4.50729e-05 -1.29792e-05     -20.5122 
         -25      31.8194 -4.50809e-05 -1.30502e-05      -20.511 
         -25      31.9926 -4.50907e-05 -1.31129e-05     -20.5098 
         -25      32.1662 -4.50971e-05 -1.31677e-05     -20.5086 
         -25      32.3404 -4.50944e-05 -1.32173e-05     -20.5074 
         -25      32.5149 -4.50776e-05 -1.32655e-05     -20.5062 
         -25        32.69 -4.50424e-05 -1.33177e-05      -20.505 
         -25      32.8655 -4.49866e-05 -1.33788e-05     -20.5037 
         -25      33.0414 -4.49106e-05 -1.34525e-05     -20.5025 
         -25       33.218 -4.48182e-05 -1.35398e-05     -20.5013 
         -25      33.3948 -4.47183e-05 -1.36366e-05        -20.5 
         -25      33.5723 -4.46254e-05 -1.37313e-05     -20.4987 
         -25        33.75 -4.45615e-05 -1.38023e-05     -20.4975 
         -25      33.9284 -4.45571e-05 -1.38142e-05     -20.4962 
         -25      34.1073 -4.46528e-05 -1.37145e-05     -20.4949 
         -25      34.2865 -4.49011e-05 -1.34293e-05     -20.4936 
         -25      34.4663 -4.51473e-05 -1.31503e-05     -20.4923 
         -25      34.6465 -4.46133e-05 -1.37407e-05      -20.491 
         -25      34.8272 -4.41459e-05 -1.40634e-05     -20.4897 
         -25      35.0083  -4.3765e-05 -1.41895e-05     -20.4884 
         -25        35.19 -4.34786e-05 -1.41797e-05     -20.4871 
         -25      35.3721 -4.32869e-05 -1.40843e-05     -20.4858 
         -25      35.5546 -4.31819e-05 -1.39448e-05     -20.4844 
         -25      35.7377 -4.31493e-05 -1.37938e-05     -20.4831 
         -25      35.9211 -4.31706e-05 -1.36572e-05     -20.4817 
         -25      36.1052  -4.3224e-05 -1.35538e-05     -20.4804 
         -25      36.2895 -4.32862e-05 -1.34969e-05      -20.479 
         -25      36.4745 -4.33343e-05  -1.3494e-05     -20.4776 
         -25      36.6598 -4.33475e-05 -1.35481e-05     -20.4762 
         -25      36.8457 -4.33086e-05 -1.36576e-05     -20.4748 
         -25      37.0321 -4.32064e-05 -1.38167e-05     -20.4734 
         -25      37.2188 -4.30375e-05 -1.40155e-05      -20.472 
         -25      37.4062 -4.28077e-05 -1.42403e-05     -20.4706 
         -25      37.5938 -4.25354e-05  -1.4473e-05     -20.4692 
         -25      37.7821 -4.22523e-05 -1.46917e-05     -20.4678 
         -25      37.9707 -4.20068e-05  -1.4869e-05     -20.4664 
         -25      38.1599 -4.18654e-05  -1.4973e-05     -20.4649 
         -25      38.3496  -4.1916e-05 -1.49653e-05     -20.4635 
         -25      38.5396 -4.21618e-05 -1.49665e-05      -20.462 
         -25      38.7302 -4.22833e-05  -1.5011e-05     -20.4606 
         -25      38.9211 -4.23182e-05 -1.49162e-05     -20.4591 
         -25      39.1127 -4.23031e-05 -1.47308e-05     -20.4576 
         -25      39.3046  -4.2269e-05 -1.45011e-05     -20.4561 
         -25      39.4971   -4.224e-05 -1.42682e-05     -20.4546 
         -25      39.6899 -4.22323e-05 -1.40677e-05     -20.4532 
         -25      39.8833 -4.22523e-05 -1.39263e-05     -20.4517 
         -25      40.0772 -4.22952e-05 -1.38608e-05     -20.4501 
         -25      40.2714 -4.23432e-05 -1.38755e-05     -20.4486 
         -25      40.4663 -4.23638e-05 -1.39602e-05     -20.4471 
         -25      40.6615 -4.23075e-05 -1.40874e-05     -20.4456 
         -25      40.8573 -4.21055e-05 -1.42106e-05      -20.444 
         -25      41.0534 -4.19389e-05 -1.42854e-05     -20.4425 
         -25      41.2501 -4.20009e-05 -1.43109e-05      -20.441 
         -25      41.4473 -4.20011e-05 -1.42875e-05     -20.4394 
         -25      41.6448 -4.19556e-05 -1.42361e-05     -20.4378 
         -25      41.8429 -4.18778e-05 -1.41729e-05     -20.4363 
         -25      42.0414  -4.1779e-05 -1.41102e-05     -20.4347 
         -25      42.2405 -4.16681e-05 -1.40568e-05     -20.4331 
         -25      42.4399 -4.15522e-05 -1.40186e-05     -20.4315 
         -25      42.6399 -4.14366e-05 -1.39989e-05     -20.4299 
         -25      42.8404  -4.1325e-05 -1.39989e-05     -20.4283 
         -25      43.0412 -4.12201e-05 -1.40179e-05     -20.4267 
         -25      43.2426 -4.11227e-05 -1.40539e-05     -20.4251 
         -25      43.4444 -4.10334e-05 -1.41041e-05     -20.4235 
         -25      43.6467 -4.09514e-05 -1.41649e-05     -20.4219 
         -25      43.8494 -4.08755e-05 -1.42323e-05     -20.4202 
         -25      44.0527 -4.08039e-05 -1.43023e-05     -20.4186 
         -25      44.2563 -4.07346e-05 -1.43711e-05      -20.417 
         -25      44.4606 -4.06651e-05 -1.44353e-05     -20.4153 
         -25      44.6653 -4.05933e-05 -1.44921e-05     -20.4136 
         -25      44.8704 -4.05168e-05 -1.45394e-05      -20.412 
         -25       45.076 -4.04336e-05 -1.45762e-05     -20.4103 
         -25       45.282 -4.03419e-05 -1.46021e-05     -20.4086 
         -25      45.4886 -4.02402e-05 -1.46181e-05      -20.407 
         -25      45.6955 -4.01279e-05  -1.4626e-05     -20.4053 
         -25       45.903 -4.00045e-05 -1.46284e-05     -20.4036 
         -25      46.1111 -3.98705e-05 -1.46291e-05     -20.4019 
         -25      46.3194 -3.97269e-05 -1.46323e-05     -20.4002 
         -25      46.5283 -3.95755e-05 -1.46429e-05     -20.3985 
         -25      46.7376  -3.9419e-05 -1.46662e-05     -20.3967 
         -25      46.9475 -3.92604e-05 -1.47071e-05      -20.395 
         -25      47.1577 -3.91041e-05 -1.47705e-05     -20.3933 
         -25      47.3685 -3.89547e-05 -1.48603e-05     -20.3916 
         -25      47.5798 -3.88179e-05 -1.49793e-05     -20.3898 
         -25      47.7914    -3.87e-05 -1.51281e-05     -20.3881 
         -25      48.0037 -3.86351e-05 -1.53001e-05     -20.3863 