Variables = x, y, u, v, p

Zone, I=800, F=POINT
         500            0           -0           -0      8.17993 
         500     0.000234  7.33843e-07  3.43966e-12      8.17993 
         500     0.000939  3.09063e-06  5.89684e-11      8.17993 
         500     0.002113  7.46547e-06  3.08044e-10      8.17993 
         500     0.003759  1.44286e-05  1.00795e-09      8.17993 
         500     0.005872  2.45306e-05  2.55622e-09      8.17993 
         500     0.008457  3.82284e-05  5.53915e-09      8.17993 
         500      0.01151  5.56701e-05  1.07652e-08      8.17993 
         500     0.015036  7.67203e-05  1.93408e-08      8.17993 
         500     0.019031  0.000100871  3.26963e-08      8.17993 
         500     0.023493  0.000127405   5.2654e-08      8.17993 
         500     0.028429  0.000155598  8.15365e-08      8.17993 
         500     0.033831  0.000184766   1.2209e-07      8.17993 
         500     0.039706  0.000214579  1.77705e-07      8.17993 
         500     0.046047  0.000244938  2.52234e-07      8.17993 
         500     0.052863  0.000275999  3.50307e-07      8.17993 
         500      0.06015  0.000307739  4.77019e-07      8.17993 
         500       0.0679  0.000339674  6.37921e-07      8.17993 
         500     0.076126  0.000370864  8.39558e-07      8.17993 
         500     0.084816  0.000400705  1.08842e-06      8.17993 
         500     0.093982  0.000430401  1.39213e-06      8.17993 
         500     0.103611  0.000458531  1.75785e-06      8.17993 
         500     0.113718  0.000484987  2.19404e-06      8.17993 
         500     0.124286  0.000509568  2.70801e-06      8.17993 
         500     0.135333  0.000532151  3.30874e-06      8.17993 
         500      0.14685  0.000552547  4.00385e-06      8.17993 
         500     0.158827  0.000570589  4.80047e-06      8.17993 
         500     0.171284  0.000586177  5.70741e-06      8.17993 
         500     0.184201  0.000599201  6.73021e-06      8.17993 
         500     0.197599  0.000609656  7.87699e-06      8.17993 
         500     0.211455  0.000617558  9.15151e-06      8.17993 
         500     0.225792  0.000622997  1.05609e-05      8.17993 
         500       0.2406  0.000626026  1.21084e-05      8.17993 
         500     0.255865  0.000626676  1.37958e-05      8.17993 
         500     0.271613  0.000625206  1.56282e-05      8.17993 
         500     0.287818  0.000621734  1.76039e-05      8.17993 
         500     0.304506  0.000616448  1.97265e-05      8.17993 
         500      0.32165  0.000609563  2.19922e-05      8.17993 
         500     0.339278  0.000601289  2.44033e-05      8.17993 
         500     0.357377  0.000591856   2.6956e-05      8.17993 
         500      0.37593  0.000581501   2.9645e-05      8.17993 
         500     0.394968  0.000570432   3.2471e-05      8.17993 
         500     0.414461  0.000558888  3.54254e-05      8.17993 
         500      0.43444  0.000547061  3.85082e-05      8.17993 
         500     0.454872  0.000535168  4.17092e-05      8.17993 
         500     0.475791  0.000523372  4.50283e-05      8.17993 
         500     0.497163   0.00051186  4.84544e-05      8.17993 
         500     0.519021  0.000500757  5.19869e-05      8.17993 
         500      0.54135  0.000490198  5.56174e-05      8.17993 
         500     0.564131  0.000480294  5.93365e-05      8.17993 
         500       0.5874  0.000471109  6.31432e-05      8.17993 
         500     0.611121  0.000462713  6.70247e-05      8.17993 
         500      0.63533  0.000455125  7.09834e-05      8.17993 
         500      0.65999  0.000448394  7.50036e-05      8.17993 
         500     0.685139  0.000442491  7.90854e-05      8.17993 
         500     0.710759  0.000437388  8.32194e-05      8.17993 
         500     0.736828  0.000433035  8.73951e-05      8.17993 
         500     0.763387  0.000429355  9.16118e-05      8.17993 
         500     0.790396  0.000426268  9.58559e-05      8.17993 
         500     0.817896   0.00042367  0.000100126      8.17993 
         500     0.845843  0.000421452  0.000104408      8.17993 
         500     0.874283  0.000419488    0.0001087      8.17993 
         500      0.90317  0.000417653  0.000112987      8.17993 
         500     0.932551  0.000415808   0.00011727      8.17993 
         500     0.962401  0.000413824  0.000121535      8.17993 
         500     0.992697   0.00041157  0.000125774      8.17993 
         500      1.02349  0.000408919  0.000129985      8.17993 
         500      1.05472  0.000405763  0.000134154      8.17993 
         500      1.08645  0.000401999  0.000138283      8.17993 
         500      1.11863  0.000397554  0.000142358      8.17993 
         500       1.1513  0.000392363  0.000146382      8.17993 
         500      1.18444  0.000386394  0.000150347      8.17993 
         500      1.21802  0.000379646  0.000154245      8.17993 
         500      1.25211  0.000372125  0.000158081      8.17993 
         500      1.28663  0.000363888  0.000161846      8.17993 
         500      1.32165  0.000354988  0.000165544      8.17993 
         500      1.35712  0.000345522  0.000169169      8.17993 
         500      1.39308  0.000335571  0.000172726      8.17993 
         500      1.42951  0.000325235  0.000176213      8.17993 
         500      1.46638  0.000314601  0.000179627      8.17993 
         500      1.50375  0.000303696  0.000182975      8.17993 
         500      1.54156  0.000292371  0.000186261      8.17993 
         500      1.57987  0.000281171  0.000189484      8.17993 
         500      1.61863  0.000270118  0.000192638      8.17993 
         500      1.65788  0.000259175  0.000195725      8.17993 
         500      1.69757  0.000248339  0.000198738      8.17992 
         500      1.73776  0.000237573   0.00020168      8.17992 
         500      1.77842  0.000226869  0.000204547      8.17992 
         500      1.81952  0.000216219  0.000207333      8.17992 
         500      1.86113  0.000205592   0.00021004      8.17992 
         500      1.90316  0.000194994  0.000212661      8.17992 
         500      1.94571  0.000184395  0.000215197      8.17992 
         500      1.98869  0.000173806   0.00021764      8.17992 
         500      2.03217  0.000163202  0.000219992      8.17992 
         500      2.07612  0.000152589  0.000222245      8.17992 
         500      2.12051  0.000141972  0.000224396      8.17992 
         500       2.1654  0.000131336  0.000226444      8.17992 
         500      2.21073  0.000120698  0.000228381      8.17992 
         500      2.25656  0.000110048  0.000230208      8.17992 
         500      2.30283  9.94087e-05  0.000231918      8.17992 
         500       2.3496  8.87724e-05   0.00023351      8.17992 
         500      2.39685  7.81584e-05  0.000234981      8.17992 
         500      2.44452  6.75884e-05  0.000236324      8.17992 
         500      2.49271  5.70606e-05  0.000237541      8.17991 
         500      2.54132  4.66082e-05  0.000238626      8.17991 
         500      2.59044  3.62329e-05  0.000239579      8.17991 
         500         2.64   2.5971e-05  0.000240397      8.17991 
         500      2.69006  1.58272e-05   0.00024108      8.17991 
         500      2.74056  5.83973e-06  0.000241625      8.17991 
         500      2.79156 -3.98434e-06  0.000242033      8.17991 
         500      2.84304 -1.36134e-05  0.000242304      8.17991 
         500      2.89494 -2.30161e-05  0.000242438      8.17991 
         500      2.94735 -3.21836e-05  0.000242436      8.17991 
         500       3.0002 -4.10772e-05    0.0002423       8.1799 
         500      3.05355 -4.96874e-05   0.00024203       8.1799 
         500      3.10733 -5.79782e-05  0.000241632       8.1799 
         500      3.16163 -6.59409e-05  0.000241105       8.1799 
         500      3.21639 -7.35483e-05  0.000240455       8.1799 
         500      3.27158 -8.07762e-05  0.000239684       8.1799 
         500      3.32729  -8.7619e-05  0.000238795       8.1799 
         500      3.38342 -9.40514e-05  0.000237793       8.1799 
         500      3.44007 -0.000100071  0.000236679      8.17989 
         500      3.49714 -0.000105659  0.000235459      8.17989 
         500      3.55472 -0.000110817  0.000234131      8.17989 
         500      3.61273 -0.000115533    0.0002327      8.17989 
         500      3.67125 -0.000119814  0.000231163      8.17989 
         500      3.73025  -0.00012366   0.00022952      8.17989 
         500      3.78967    -0.000127  0.000227805      8.17989 
         500      3.84961 -0.000129891  0.000226012      8.17988 
         500      3.90996 -0.000132405  0.000224134      8.17988 
         500      3.97084 -0.000134589  0.000222173      8.17988 
         500      4.03214 -0.000136474  0.000220138      8.17988 
         500      4.09395 -0.000138096  0.000218032      8.17988 
         500      4.15624 -0.000139483  0.000215861      8.17988 
         500      4.21895  -0.00014066  0.000213631      8.17988 
         500      4.28217  -0.00014165  0.000211345      8.17988 
         500      4.34582 -0.000142472  0.000209009      8.17987 
         500      4.40998 -0.000143033  0.000206533      8.17987 
         500      4.47457 -0.000143429  0.000204002      8.17987 
         500      4.53968 -0.000143697  0.000201442      8.17987 
         500      4.60525 -0.000143843  0.000198856      8.17987 
         500      4.67125 -0.000143871  0.000196251      8.17987 
         500      4.73777 -0.000143784  0.000193625      8.17987 
         500       4.8047 -0.000143585  0.000190986      8.17986 
         500      4.87216 -0.000143275  0.000188334      8.17986 
         500      4.94003 -0.000142855  0.000185677      8.17986 
         500      5.00843 -0.000142326  0.000183014      8.17986 
         500      5.07724 -0.000141689  0.000180355      8.17986 
         500      5.14658 -0.000140944  0.000177699      8.17986 
         500      5.21639 -0.000140094  0.000175052      8.17986 
         500      5.28661  -0.00013914  0.000172422      8.17986 
         500      5.35736 -0.000138085  0.000169808      8.17985 
         500      5.42852 -0.000136935  0.000167219      8.17985 
         500      5.50021  -0.00013569  0.000164656      8.17985 
         500      5.57231 -0.000134361  0.000162125      8.17985 
         500      5.64493  -0.00013295  0.000159627      8.17985 
         500      5.71803 -0.000131468  0.000157167      8.17985 
         500      5.79154 -0.000129922  0.000154748      8.17985 
         500      5.86558 -0.000128321  0.000152369      8.17985 
         500      5.94003 -0.000126675  0.000150033      8.17985 
         500      6.01501  -0.00012499  0.000147736      8.17984 
         500       6.0904 -0.000123279  0.000145478      8.17984 
         500      6.16632 -0.000121544  0.000143252      8.17984 
         500      6.24271 -0.000119793  0.000141053      8.17984 
         500       6.3195 -0.000118029  0.000138873      8.17984 
         500      6.39683 -0.000116247  0.000136696      8.17984 
         500      6.47457 -0.000114443  0.000134511      8.17984 
         500      6.55284 -0.000112601  0.000132294      8.17984 
         500      6.63152 -0.000110702  0.000130026      8.17984 
         500      6.71073 -0.000109093   0.00012804      8.17984 
         500      6.79034 -0.000107521   0.00012611      8.17984 
         500      6.87049 -0.000105884  0.000124134      8.17983 
         500      6.95111 -0.000104211  0.000122134      8.17983 
         500      7.03214 -0.000102522  0.000120127      8.17983 
         500       7.1137 -0.000100832  0.000118126      8.17983 
         500      7.19566 -9.91583e-05  0.000116142      8.17983 
         500      7.27816 -9.75066e-05   0.00011418      8.17983 
         500      7.36106 -9.58869e-05  0.000112248      8.17983 
         500      7.44451 -9.43005e-05  0.000110346      8.17983 
         500      7.52842 -9.27508e-05  0.000108476      8.17983 
         500      7.61273  -9.1239e-05   0.00010664      8.17983 
         500      7.69758  -8.9761e-05  0.000104833      8.17983 
         500      7.78283 -8.83169e-05  0.000103056      8.17983 
         500      7.86862 -8.69007e-05  0.000101303      8.17983 
         500      7.95481  -8.5511e-05  9.95727e-05      8.17982 
         500      8.04155 -8.41416e-05  9.78605e-05      8.17982 
         500      8.12868  -8.2791e-05   9.6166e-05      8.17982 
         500      8.21635 -8.14538e-05  9.44843e-05      8.17982 
         500      8.30449 -8.01283e-05  9.28151e-05      8.17982 
         500      8.39303 -7.88139e-05  9.11591e-05      8.17982 
         500      8.48211 -7.75076e-05  8.95138e-05      8.17982 
         500      8.57159 -7.62118e-05  8.78832e-05      8.17982 
         500      8.66161 -7.49257e-05  8.62668e-05      8.17982 
         500      8.75203 -7.36538e-05  8.46706e-05      8.17982 
         500      8.84299 -7.23973e-05   8.3096e-05      8.17982 
         500      8.93443 -7.11613e-05   8.1549e-05      8.17982 
         500      9.02626  -6.9951e-05  8.00359e-05      8.17982 
         500      9.11863 -6.87818e-05   7.8562e-05      8.17982 
         500      9.21139 -6.77152e-05  7.71277e-05      8.17982 
         500      9.30471 -6.66459e-05   7.5695e-05      8.17982 
         500      9.39841 -6.55777e-05  7.42658e-05      8.17982 
         500      9.49267 -6.45103e-05  7.28366e-05      8.17982 
         500      9.58739 -6.34452e-05  7.14064e-05      8.17982 
         500      9.68251 -6.23832e-05  6.99727e-05      8.17982 
         500      9.77817 -6.13208e-05  6.85276e-05      8.17982 
         500      9.87422 -6.02597e-05  6.70817e-05      8.17982 
         500      9.97083 -5.92619e-05   6.5818e-05      8.17981 
         500      10.0678 -5.83128e-05  6.45669e-05      8.17981 
         500      10.1654 -5.73961e-05  6.33253e-05      8.17981 
         500      10.2633 -5.65018e-05  6.20946e-05      8.17981 
         500      10.3618 -5.56198e-05  6.08732e-05      8.17981 
         500      10.4607 -5.47447e-05  5.96626e-05      8.17981 
         500      10.5601 -5.38733e-05  5.84648e-05      8.17981 
         500        10.66 -5.30023e-05   5.7279e-05      8.17981 
         500      10.7603  -5.2133e-05  5.61086e-05      8.17981 
         500      10.8611  -5.1265e-05   5.4953e-05      8.17981 
         500      10.9623  -5.0402e-05  5.38155e-05      8.17981 
         500      11.0641 -4.95457e-05  5.26954e-05      8.17981 
         500      11.1663 -4.87004e-05  5.15944e-05      8.17981 
         500       11.269 -4.78704e-05  5.05143e-05      8.17981 
         500      11.3721 -4.70583e-05  4.94534e-05      8.17981 
         500      11.4757 -4.62689e-05  4.84135e-05      8.17981 
         500      11.5798 -4.55041e-05  4.73925e-05      8.17981 
         500      11.6844 -4.47676e-05  4.63913e-05      8.17981 
         500      11.7894 -4.40598e-05   4.5407e-05      8.17981 
         500       11.895 -4.34128e-05  4.44335e-05      8.17981 
         500      12.0009 -4.28085e-05    4.347e-05      8.17981 
         500      12.1073 -4.22096e-05  4.25188e-05      8.17981 
         500      12.2142   -4.161e-05   4.1581e-05      8.17981 
         500      12.3216 -4.10025e-05  4.06549e-05      8.17981 
         500      12.4294 -4.03832e-05  3.97424e-05      8.17981 
         500      12.5378 -3.97491e-05   3.8843e-05      8.17981 
         500      12.6465 -3.91032e-05  3.79602e-05      8.17981 
         500      12.7558 -3.84517e-05  3.70956e-05      8.17981 
         500      12.8656 -3.78094e-05  3.62548e-05      8.17982 
         500      12.9757 -3.72001e-05  3.54454e-05      8.17982 
         500      13.0864 -3.66571e-05  3.46753e-05      8.17982 
         500      13.1975  -3.6229e-05  3.39582e-05      8.17982 
         500      13.3092 -3.58034e-05  3.32499e-05      8.17982 
         500      13.4212 -3.49205e-05  3.24774e-05      8.17982 
         500      13.5338 -3.40626e-05  3.18369e-05      8.17982 
         500      13.6468 -3.33578e-05  3.12136e-05      8.17982 
         500      13.7603 -3.29961e-05  3.03727e-05      8.17982 
         500      13.8743  -3.2616e-05   2.9577e-05      8.17982 
         500      13.9886 -3.22233e-05  2.88254e-05      8.17982 
         500      14.1036 -3.18219e-05   2.8114e-05      8.17982 
         500      14.2189  -3.1416e-05  2.74405e-05      8.17982 
         500      14.3348 -3.10077e-05  2.68002e-05      8.17982 
         500       14.451 -3.05998e-05  2.61903e-05      8.17982 
         500      14.5678 -3.01935e-05  2.56055e-05      8.17982 
         500      14.6851   -2.979e-05  2.50423e-05      8.17982 
         500      14.8028 -2.93906e-05  2.44969e-05      8.17982 
         500       14.921 -2.89949e-05  2.39645e-05      8.17982 
         500      15.0396  -2.8604e-05  2.34421e-05      8.17982 
         500      15.1588 -2.82171e-05  2.29254e-05      8.17982 
         500      15.2783 -2.78349e-05  2.24121e-05      8.17982 
         500      15.3984 -2.74567e-05  2.18988e-05      8.17982 
         500       15.519 -2.70827e-05  2.13836e-05      8.17982 
         500        15.64 -2.67133e-05  2.08654e-05      8.17983 
         500      15.7615  -2.6348e-05  2.03423e-05      8.17983 
         500      15.8834 -2.59877e-05  1.98149e-05      8.17983 
         500      16.0058 -2.56363e-05  1.92746e-05      8.17983 
         500      16.1286 -2.53029e-05  1.87172e-05      8.17983 
         500       16.252 -2.49754e-05  1.81719e-05      8.17983 
         500      16.3759 -2.46535e-05  1.76406e-05      8.17983 
         500      16.5002  -2.4337e-05  1.71249e-05      8.17983 
         500       16.625 -2.40252e-05  1.66254e-05      8.17983 
         500      16.7501 -2.37187e-05  1.61442e-05      8.17983 
         500      16.8759 -2.34173e-05   1.5682e-05      8.17983 
         500       17.002 -2.31221e-05  1.52405e-05      8.17983 
         500      17.1287 -2.28334e-05  1.48201e-05      8.17983 
         500      17.2557 -2.25529e-05   1.4422e-05      8.17983 
         500      17.3834 -2.22814e-05  1.40457e-05      8.17984 
         500      17.5115 -2.20204e-05  1.36911e-05      8.17984 
         500      17.6399 -2.17719e-05  1.33572e-05      8.17984 
         500       17.769 -2.15369e-05  1.30412e-05      8.17984 
         500      17.8984 -2.13174e-05  1.27403e-05      8.17984 
         500      18.0284 -2.11146e-05  1.24492e-05      8.17984 
         500      18.1587 -2.09301e-05  1.21619e-05      8.17984 
         500      18.2896 -2.07644e-05  1.18693e-05      8.17984 
         500       18.421 -2.06182e-05  1.15607e-05      8.17984 
         500      18.5528 -2.04914e-05   1.1223e-05      8.17984 
         500      18.6851 -2.03831e-05  1.08388e-05      8.17984 
         500      18.8178 -2.02914e-05  1.03885e-05      8.17985 
         500      18.9511 -2.02134e-05  9.84735e-06      8.17985 
         500      19.0847 -1.98764e-05  9.61453e-06      8.17985 
         500      19.2189 -1.94894e-05  9.51098e-06      8.17985 
         500      19.3535 -1.91418e-05  9.45318e-06      8.17985 
         500      19.4886 -1.89237e-05  9.34001e-06      8.17985 
         500      19.6242 -1.89009e-05  8.92083e-06      8.17985 
         500      19.7602 -1.87962e-05  8.55599e-06      8.17985 
         500      19.8968 -1.86374e-05  8.23479e-06      8.17985 
         500      20.0337 -1.84474e-05  7.94905e-06      8.17986 
         500      20.1712 -1.82436e-05  7.69091e-06      8.17986 
         500      20.3091 -1.80399e-05  7.45457e-06      8.17986 
         500      20.4475 -1.78456e-05  7.23453e-06      8.17986 
         500      20.5864 -1.76673e-05  7.02682e-06      8.17986 
         500      20.7257 -1.75089e-05   6.8283e-06      8.17986 
         500      20.8655 -1.73711e-05  6.63612e-06      8.17986 
         500      21.0058 -1.72536e-05  6.44871e-06      8.17986 
         500      21.1465  -1.7154e-05  6.26448e-06      8.17986 
         500      21.2877 -1.70692e-05  6.08286e-06      8.17987 
         500      21.4294  -1.6995e-05  5.90311e-06      8.17987 
         500      21.5716 -1.69274e-05  5.72521e-06      8.17987 
         500      21.7142 -1.68619e-05  5.54933e-06      8.17987 
         500      21.8573 -1.67944e-05   5.3754e-06      8.17987 
         500      22.0008 -1.67214e-05  5.20395e-06      8.17987 
         500      22.1449   -1.664e-05  5.03502e-06      8.17987 
         500      22.2893 -1.65484e-05  4.86913e-06      8.17988 
         500      22.4344 -1.64454e-05  4.70621e-06      8.17988 
         500      22.5797 -1.63315e-05  4.54664e-06      8.17988 
         500      22.7257 -1.62077e-05  4.39013e-06      8.17988 
         500      22.8721 -1.60765e-05  4.23667e-06      8.17988 
         500      23.0189 -1.59413e-05  4.08611e-06      8.17988 
         500      23.1663 -1.58061e-05  3.93785e-06      8.17988 
         500       23.314 -1.56759e-05  3.79166e-06      8.17989 
         500      23.4623 -1.55554e-05  3.64683e-06      8.17989 
         500       23.611 -1.54498e-05  3.50315e-06      8.17989 
         500      23.7602 -1.53633e-05  3.36004e-06      8.17989 
         500        23.91 -1.52991e-05  3.21747e-06      8.17989 
         500        24.06 -1.52589e-05  3.07573e-06      8.17989 
         500      24.2107 -1.52414e-05  2.93519e-06      8.17989 
         500      24.3617 -1.52424e-05   2.7973e-06       8.1799 
         500      24.5133 -1.52531e-05  2.66382e-06       8.1799 
         500      24.6653 -1.52595e-05  2.53793e-06       8.1799 
         500      24.8178  -1.5241e-05  2.42357e-06       8.1799 
         500      24.9708 -1.51691e-05  2.32645e-06       8.1799 
         500      25.1242 -1.50062e-05  2.25392e-06       8.1799 
         500      25.2781 -1.47897e-05  2.17291e-06      8.17991 
         500      25.4324 -1.48463e-05  1.93521e-06      8.17991 
         500      25.5873 -1.48105e-05  1.75159e-06      8.17991 
         500      25.7426 -1.47078e-05  1.63736e-06      8.17991 
         500      25.8984 -1.45704e-05  1.60998e-06      8.17991 
         500      26.0546 -1.44389e-05  1.68924e-06      8.17992 
         500      26.2114 -1.43633e-05  1.89656e-06      8.17992 
         500      26.3686 -1.43751e-05  1.93569e-06      8.17992 
         500      26.5262 -1.43901e-05  1.67135e-06      8.17992 
         500      26.6844 -1.43964e-05   1.4405e-06      8.17992 
         500      26.8429 -1.43888e-05  1.23818e-06      8.17992 
         500       27.002 -1.43643e-05  1.05881e-06      8.17993 
         500      27.1615 -1.43213e-05  8.97533e-07      8.17993 
         500      27.3216 -1.42604e-05  7.49018e-07      8.17993 
         500      27.4821 -1.41839e-05  6.08422e-07      8.17993 
         500       27.643 -1.40965e-05   4.7097e-07      8.17993 
         500      27.8044 -1.40161e-05   4.2918e-07      8.17994 
         500      27.9663 -1.39607e-05  4.92066e-07      8.17994 
         500      28.1287 -1.39164e-05  5.10107e-07      8.17994 
         500      28.2914 -1.38823e-05  4.91148e-07      8.17994 
         500      28.4548  -1.3857e-05  4.42324e-07      8.17994 
         500      28.6185 -1.38396e-05  3.70183e-07      8.17995 
         500      28.7828 -1.38286e-05  2.80413e-07      8.17995 
         500      28.9475 -1.38229e-05  1.78236e-07      8.17995 
         500      29.1126 -1.38211e-05  6.82896e-08      8.17995 
         500      29.2784 -1.38221e-05 -4.56392e-08      8.17996 
         500      29.4444 -1.38246e-05 -1.59973e-07      8.17996 
         500       29.611 -1.38276e-05 -2.72027e-07      8.17996 
         500       29.778   -1.383e-05 -3.79263e-07      8.17996 
         500      29.9456  -1.3831e-05  -4.7996e-07      8.17996 
         500      30.1137 -1.38297e-05 -5.72581e-07      8.17997 
         500      30.2821 -1.38254e-05 -6.56028e-07      8.17997 
         500      30.4511 -1.38177e-05 -7.29775e-07      8.17997 
         500      30.6204 -1.38061e-05 -7.93397e-07      8.17997 
         500      30.7903 -1.37905e-05 -8.47001e-07      8.17998 
         500      30.9606 -1.37708e-05 -8.90787e-07      8.17998 
         500      31.1315  -1.3747e-05 -9.25358e-07      8.17998 
         500      31.3028 -1.37194e-05 -9.51422e-07      8.17998 
         500      31.4745 -1.36885e-05 -9.69892e-07      8.17999 
         500      31.6468 -1.36547e-05 -9.81864e-07      8.17999 
         500      31.8194 -1.36188e-05 -9.88495e-07      8.17999 
         500      31.9926 -1.35814e-05  -9.9104e-07      8.17999 
         500      32.1662 -1.35434e-05 -9.90777e-07         8.18 
         500      32.3404 -1.35058e-05 -9.88988e-07         8.18 
         500      32.5149 -1.34696e-05 -9.86921e-07         8.18 
         500        32.69 -1.34356e-05 -9.85745e-07         8.18 
         500      32.8655 -1.34049e-05 -9.86525e-07      8.18001 
         500      33.0414 -1.33783e-05 -9.90177e-07      8.18001 
         500       33.218 -1.33566e-05  -9.9744e-07      8.18001 
         500      33.3948 -1.33402e-05 -1.00882e-06      8.18001 
         500      33.5723 -1.33296e-05 -1.02459e-06      8.18002 
         500        33.75 -1.33248e-05 -1.04471e-06      8.18002 
         500      33.9284 -1.33255e-05 -1.06884e-06      8.18002 
         500      34.1073 -1.33309e-05 -1.09626e-06      8.18002 
         500      34.2865 -1.33398e-05 -1.12583e-06      8.18003 
         500      34.4663 -1.33502e-05 -1.15604e-06      8.18003 
         500      34.6465 -1.33596e-05 -1.18484e-06      8.18003 
         500      34.8272 -1.33646e-05 -1.20977e-06      8.18004 
         500      35.0083 -1.33608e-05 -1.22775e-06      8.18004 
         500        35.19  -1.3343e-05  -1.2352e-06      8.18004 
         500      35.3721 -1.33045e-05 -1.22791e-06      8.18004 
         500      35.5546 -1.32378e-05 -1.20109e-06      8.18005 
         500      35.7377 -1.31334e-05  -1.1492e-06      8.18005 
         500      35.9211 -1.30417e-05 -1.11576e-06      8.18005 
         500      36.1052 -1.31038e-05 -1.20833e-06      8.18006 
         500      36.2895 -1.31534e-05 -1.28645e-06      8.18006 
         500      36.4745 -1.31912e-05 -1.35056e-06      8.18006 
         500      36.6598 -1.32175e-05 -1.40116e-06      8.18006 
         500      36.8457 -1.32333e-05 -1.43917e-06      8.18007 
         500      37.0321 -1.32396e-05 -1.46563e-06      8.18007 
         500      37.2188 -1.32375e-05 -1.48179e-06      8.18007 
         500      37.4062 -1.32281e-05  -1.4891e-06      8.18008 
         500      37.5938 -1.32128e-05 -1.48907e-06      8.18008 
         500      37.7821 -1.31927e-05 -1.48336e-06      8.18008 
         500      37.9707 -1.31691e-05 -1.47366e-06      8.18009 
         500      38.1599  -1.3143e-05 -1.46169e-06      8.18009 
         500      38.3496 -1.31157e-05 -1.44917e-06      8.18009 
         500      38.5396 -1.30882e-05  -1.4378e-06       8.1801 
         500      38.7302 -1.30612e-05 -1.42917e-06       8.1801 
         500      38.9211 -1.30358e-05 -1.42483e-06       8.1801 
         500      39.1127 -1.30126e-05 -1.42613e-06      8.18011 
         500      39.3046 -1.29922e-05 -1.43431e-06      8.18011 
         500      39.4971 -1.29753e-05  -1.4504e-06      8.18011 
         500      39.6899 -1.29623e-05 -1.47517e-06      8.18012 
         500      39.8833 -1.29537e-05 -1.50922e-06      8.18012 
         500      40.0772 -1.29501e-05 -1.55277e-06      8.18012 
         500      40.2714  -1.2952e-05 -1.60574e-06      8.18013 
         500      40.4663   -1.296e-05  -1.6678e-06      8.18013 
         500      40.6615  -1.2975e-05 -1.73808e-06      8.18014 
         500      40.8573 -1.29981e-05 -1.81552e-06      8.18014 
         500      41.0534 -1.30306e-05 -1.89839e-06      8.18014 
         500      41.2501 -1.30744e-05 -1.98476e-06      8.18015 
         500      41.4473 -1.30838e-05 -1.98108e-06      8.18015 
         500      41.6448  -1.3068e-05  -1.9363e-06      8.18015 
         500      41.8429 -1.30473e-05 -1.89453e-06      8.18016 
         500      42.0414 -1.30227e-05 -1.85644e-06      8.18016 
         500      42.2405 -1.29957e-05 -1.82248e-06      8.18016 
         500      42.4399 -1.29678e-05 -1.79319e-06      8.18017 
         500      42.6399 -1.29406e-05 -1.76894e-06      8.18017 
         500      42.8404 -1.29156e-05 -1.75008e-06      8.18018 
         500      43.0412 -1.28945e-05 -1.73684e-06      8.18018 
         500      43.2426 -1.28787e-05  -1.7293e-06      8.18018 
         500      43.4444 -1.28695e-05 -1.72746e-06      8.18019 
         500      43.6467 -1.28679e-05 -1.73113e-06      8.18019 
         500      43.8494 -1.28746e-05 -1.73994e-06       8.1802 
         500      44.0527 -1.28896e-05 -1.75336e-06       8.1802 
         500      44.2563 -1.29126e-05 -1.77059e-06       8.1802 
         500      44.4606 -1.29424e-05 -1.79062e-06      8.18021 
         500      44.6653 -1.29771e-05 -1.81214e-06      8.18021 
         500      44.8704 -1.30135e-05 -1.83352e-06      8.18022 
         500       45.076 -1.30475e-05 -1.85283e-06      8.18022 
         500       45.282 -1.30737e-05 -1.86772e-06      8.18023 
         500      45.4886 -1.30851e-05 -1.87549e-06      8.18023 
         500      45.6955 -1.30729e-05 -1.87293e-06      8.18023 
         500       45.903 -1.30267e-05 -1.85639e-06      8.18024 
         500      46.1111 -1.29337e-05 -1.82166e-06      8.18024 
         500      46.3194 -1.27905e-05 -1.76526e-06      8.18025 
         500      46.5283 -1.29046e-05 -1.73669e-06      8.18025 
         500      46.7376 -1.29901e-05 -1.71976e-06      8.18026 
         500      46.9475 -1.30522e-05 -1.71144e-06      8.18026 
         500      47.1577 -1.30954e-05 -1.70906e-06      8.18027 
         500      47.3685 -1.31234e-05 -1.71022e-06      8.18027 
         500      47.5798 -1.31392e-05 -1.71286e-06      8.18027 
         500      47.7914 -1.31451e-05 -1.71516e-06      8.18028 
         500      48.0037 -1.31432e-05 -1.71563e-06      8.18028 