Variables = x, y, u, v, p

Zone, I=800, F=POINT
         850            0           -0           -0     -9.99809 
         850     0.000234  -9.9026e-07  3.16844e-11     -9.99809 
         850     0.000939 -4.24114e-06  5.08537e-10     -9.99809 
         850     0.002113 -1.04695e-05  2.56282e-09     -9.99809 
         850     0.003759 -2.06684e-05  8.05738e-09     -9.99809 
         850     0.005872 -3.57443e-05  1.94959e-08     -9.99809 
         850     0.008457 -5.63476e-05  4.00221e-08     -9.99809 
         850      0.01151 -8.25427e-05  7.32301e-08     -9.99809 
         850     0.015036 -0.000113906  1.23207e-07     -9.99809 
         850     0.019031  -0.00014952  1.94218e-07     -9.99809 
         850     0.023493 -0.000188373  2.90665e-07     -9.99809 
         850     0.028429 -0.000229803  4.17182e-07     -9.99809 
         850     0.033831 -0.000273597  5.77911e-07     -9.99809 
         850     0.039706 -0.000320299  7.77125e-07     -9.99809 
         850     0.046047 -0.000370643  1.01824e-06     -9.99809 
         850     0.052863 -0.000425082  1.30471e-06     -9.99809 
         850      0.06015 -0.000482753  1.63882e-06     -9.99809 
         850       0.0679 -0.000541463  2.02181e-06     -9.99809 
         850     0.076126  -0.00060012  2.45507e-06     -9.99809 
         850     0.084816 -0.000663759  2.93773e-06     -9.99809 
         850     0.093982 -0.000726705   3.4692e-06     -9.99809 
         850     0.103611 -0.000790809   4.0464e-06     -9.99809 
         850     0.113718 -0.000855617  4.66684e-06     -9.99809 
         850     0.124286 -0.000920497  5.32505e-06     -9.99809 
         850     0.135333 -0.000985081  6.01665e-06     -9.99809 
         850      0.14685  -0.00104888  6.73463e-06     -9.99809 
         850     0.158827  -0.00111145  7.47106e-06     -9.99809 
         850     0.171284  -0.00117254  8.21909e-06     -9.99809 
         850     0.184201  -0.00123169   8.9688e-06     -9.99809 
         850     0.197599  -0.00128867  9.71219e-06     -9.99809 
         850     0.211455  -0.00134302  1.04384e-05     -9.99809 
         850     0.225792  -0.00139452   1.1139e-05     -9.99809 
         850       0.2406   -0.0014429  1.18034e-05     -9.99809 
         850     0.255865  -0.00148803  1.24213e-05     -9.99809 
         850     0.271613  -0.00152971  1.29847e-05     -9.99809 
         850     0.287818  -0.00156781  1.34837e-05     -9.99809 
         850     0.304506  -0.00160235  1.39105e-05     -9.99809 
         850      0.32165  -0.00163324  1.42567e-05     -9.99809 
         850     0.339278  -0.00166057   1.4516e-05     -9.99809 
         850     0.357377  -0.00168438   1.4682e-05     -9.99809 
         850      0.37593  -0.00170477  1.47498e-05     -9.99809 
         850     0.394968  -0.00172191  1.47153e-05     -9.99809 
         850     0.414461  -0.00173596  1.45758e-05     -9.99809 
         850      0.43444  -0.00174712  1.43291e-05     -9.99809 
         850     0.454872   -0.0017556  1.39745e-05     -9.99809 
         850     0.475791  -0.00176165  1.35117e-05     -9.99809 
         850     0.497163   -0.0017655  1.29422e-05     -9.99809 
         850     0.519021  -0.00176738  1.22672e-05     -9.99809 
         850      0.54135  -0.00176753  1.14899e-05     -9.99809 
         850     0.564131  -0.00176618  1.06149e-05     -9.99809 
         850       0.5874  -0.00176354  9.64623e-06     -9.99809 
         850     0.611121  -0.00175984  8.59247e-06     -9.99809 
         850      0.63533  -0.00175522  7.45653e-06     -9.99809 
         850      0.65999  -0.00174989  6.24204e-06     -9.99809 
         850     0.685139  -0.00174397  4.95592e-06     -9.99809 
         850     0.710759  -0.00173756  3.60798e-06     -9.99809 
         850     0.736828  -0.00173074   2.2085e-06     -9.99809 
         850     0.763387  -0.00172356  7.64427e-07     -9.99809 
         850     0.790396  -0.00171605 -7.12889e-07     -9.99809 
         850     0.817896   -0.0017082 -2.21651e-06     -9.99809 
         850     0.845843  -0.00169999 -3.73489e-06     -9.99809 
         850     0.874283  -0.00169135 -5.26145e-06     -9.99809 
         850      0.90317  -0.00168224 -6.78474e-06     -9.99809 
         850     0.932551  -0.00167254 -8.29838e-06     -9.99809 
         850     0.962401  -0.00166216 -9.79232e-06     -9.99809 
         850     0.992697  -0.00165098  -1.1257e-05     -9.99809 
         850      1.02349  -0.00163888 -1.26864e-05     -9.99809 
         850      1.05472  -0.00162574 -1.40703e-05     -9.99809 
         850      1.08645  -0.00161143 -1.54033e-05     -9.99809 
         850      1.11863  -0.00159587 -1.66761e-05     -9.99809 
         850       1.1513  -0.00157894 -1.78844e-05     -9.99809 
         850      1.18444  -0.00156058 -1.90211e-05     -9.99809 
         850      1.21802  -0.00154077 -2.00808e-05     -9.99809 
         850      1.25211  -0.00151947 -2.10618e-05     -9.99809 
         850      1.28663  -0.00149673 -2.19604e-05     -9.99809 
         850      1.32165  -0.00147256 -2.27786e-05     -9.99809 
         850      1.35712  -0.00144708 -2.35177e-05     -9.99809 
         850      1.39308  -0.00142037 -2.41849e-05     -9.99809 
         850      1.42951  -0.00139256 -2.47898e-05     -9.99809 
         850      1.46638  -0.00136382  -2.5347e-05     -9.99809 
         850      1.50375  -0.00133422 -2.58785e-05     -9.99809 
         850      1.54156  -0.00130331 -2.62539e-05     -9.99809 
         850      1.57987  -0.00127233 -2.65902e-05     -9.99809 
         850      1.61863  -0.00124142 -2.68998e-05     -9.99809 
         850      1.65788  -0.00121054 -2.71855e-05     -9.99809 
         850      1.69757  -0.00117975 -2.74491e-05     -9.99809 
         850      1.73776    -0.001149 -2.76931e-05     -9.99809 
         850      1.77842  -0.00111831 -2.79193e-05     -9.99809 
         850      1.81952  -0.00108771 -2.81293e-05     -9.99809 
         850      1.86113  -0.00105713  -2.8325e-05     -9.99809 
         850      1.90316  -0.00102661 -2.85077e-05     -9.99809 
         850      1.94571 -0.000996085 -2.86788e-05     -9.99809 
         850      1.98869 -0.000965587  -2.8839e-05     -9.99809 
         850      2.03217 -0.000935042 -2.89896e-05     -9.99808 
         850      2.07612 -0.000904452 -2.91309e-05     -9.99808 
         850      2.12051 -0.000873816 -2.92633e-05     -9.99808 
         850       2.1654 -0.000843061 -2.93873e-05     -9.99808 
         850      2.21073 -0.000812211 -2.95026e-05     -9.99808 
         850      2.25656 -0.000781193 -2.96091e-05     -9.99808 
         850      2.30283 -0.000750033 -2.97065e-05     -9.99808 
         850       2.3496 -0.000718663 -2.97942e-05     -9.99808 
         850      2.39685  -0.00068709 -2.98714e-05     -9.99808 
         850      2.44452 -0.000655328 -2.99372e-05     -9.99807 
         850      2.49271 -0.000623318 -2.99908e-05     -9.99807 
         850      2.54132 -0.000591108 -3.00308e-05     -9.99807 
         850      2.59044 -0.000558652 -3.00563e-05     -9.99807 
         850         2.64 -0.000526012 -3.00659e-05     -9.99807 
         850      2.69006 -0.000493153 -3.00585e-05     -9.99807 
         850      2.74056 -0.000460154 -3.00328e-05     -9.99806 
         850      2.79156 -0.000426996 -2.99876e-05     -9.99806 
         850      2.84304 -0.000393745  -2.9922e-05     -9.99806 
         850      2.89494 -0.000360477 -2.98351e-05     -9.99806 
         850      2.94735 -0.000327196 -2.97261e-05     -9.99806 
         850       3.0002 -0.000294017 -2.95949e-05     -9.99805 
         850      3.05355 -0.000260957 -2.94411e-05     -9.99805 
         850      3.10733 -0.000228141 -2.92653e-05     -9.99805 
         850      3.16163 -0.000195593  -2.9068e-05     -9.99805 
         850      3.21639 -0.000163416 -2.88505e-05     -9.99804 
         850      3.27158  -0.00013171 -2.86151e-05     -9.99804 
         850      3.32729 -0.000100493 -2.83637e-05     -9.99804 
         850      3.38342 -6.98742e-05 -2.81001e-05     -9.99803 
         850      3.44007 -3.98527e-05 -2.78279e-05     -9.99803 
         850      3.49714  -1.0503e-05 -2.75526e-05     -9.99803 
         850      3.55472  1.82183e-05 -2.72796e-05     -9.99803 
         850      3.61273  4.62957e-05 -2.70163e-05     -9.99802 
         850      3.67125  7.38418e-05 -2.67705e-05     -9.99802 
         850      3.73025  0.000100953 -2.65518e-05     -9.99802 
         850      3.78967  0.000127436 -2.62274e-05     -9.99801 
         850      3.84961  0.000152952 -2.58322e-05     -9.99801 
         850      3.90996   0.00017748 -2.54311e-05     -9.99801 
         850      3.97084  0.000201036 -2.50242e-05       -9.998 
         850      4.03214  0.000223561 -2.46129e-05       -9.998 
         850      4.09395   0.00024507 -2.41971e-05       -9.998 
         850      4.15624  0.000265533 -2.37781e-05     -9.99799 
         850      4.21895  0.000284922 -2.33569e-05     -9.99799 
         850      4.28217   0.00030326 -2.29334e-05     -9.99798 
         850      4.34582  0.000320514 -2.25093e-05     -9.99798 
         850      4.40998  0.000336711 -2.20844e-05     -9.99798 
         850      4.47457  0.000351826 -2.16602e-05     -9.99797 
         850      4.53968  0.000365889 -2.12367e-05     -9.99797 
         850      4.60525  0.000378896  -2.0815e-05     -9.99797 
         850      4.67125  0.000390851 -2.03959e-05     -9.99796 
         850      4.73777  0.000401786 -1.99796e-05     -9.99796 
         850       4.8047  0.000411704 -1.95671e-05     -9.99795 
         850      4.87216  0.000420639 -1.91586e-05     -9.99795 
         850      4.94003  0.000428602 -1.87551e-05     -9.99795 
         850      5.00843   0.00043563 -1.83566e-05     -9.99794 
         850      5.07724  0.000441741 -1.79641e-05     -9.99794 
         850      5.14658  0.000446976 -1.75775e-05     -9.99794 
         850      5.21639  0.000451362 -1.71974e-05     -9.99793 
         850      5.28661   0.00045493 -1.68245e-05     -9.99793 
         850      5.35736  0.000457722 -1.64586e-05     -9.99792 
         850      5.42852  0.000459772 -1.61004e-05     -9.99792 
         850      5.50021  0.000461122 -1.57496e-05     -9.99792 
         850      5.57231  0.000461808 -1.54068e-05     -9.99791 
         850      5.64493  0.000461874 -1.50717e-05     -9.99791 
         850      5.71803  0.000461359 -1.47446e-05      -9.9979 
         850      5.79154  0.000460305 -1.44257e-05      -9.9979 
         850      5.86558  0.000458752 -1.41145e-05      -9.9979 
         850      5.94003  0.000456744 -1.38113e-05     -9.99789 
         850      6.01501  0.000454318 -1.35156e-05     -9.99789 
         850       6.0904  0.000451519 -1.32276e-05     -9.99789 
         850      6.16632  0.000448379 -1.29466e-05     -9.99788 
         850      6.24271  0.000444939 -1.26726e-05     -9.99788 
         850       6.3195  0.000441239 -1.24055e-05     -9.99788 
         850      6.39683  0.000437307 -1.21445e-05     -9.99787 
         850      6.47457  0.000433182 -1.18899e-05     -9.99787 
         850      6.55284  0.000428887 -1.16406e-05     -9.99786 
         850      6.63152  0.000424458 -1.13969e-05     -9.99786 
         850      6.71073  0.000419914  -1.1158e-05     -9.99786 
         850      6.79034  0.000415285  -1.0924e-05     -9.99785 
         850      6.87049  0.000410584 -1.06941e-05     -9.99785 
         850      6.95111  0.000405832 -1.04683e-05     -9.99785 
         850      7.03214  0.000401049 -1.02467e-05     -9.99784 
         850       7.1137  0.000396238 -1.00288e-05     -9.99784 
         850      7.19566  0.000391417 -9.81493e-06     -9.99784 
         850      7.27816  0.000386584 -9.60488e-06     -9.99783 
         850      7.36106   0.00038175 -9.39928e-06     -9.99783 
         850      7.44451  0.000376918 -9.18036e-06     -9.99783 
         850      7.52842  0.000372096 -8.94165e-06     -9.99782 
         850      7.61273  0.000367286 -8.70536e-06     -9.99782 
         850      7.69758  0.000362481 -8.46927e-06     -9.99782 
         850      7.78283   0.00035769 -8.23186e-06     -9.99781 
         850      7.86862  0.000352907 -7.99072e-06     -9.99781 
         850      7.95481  0.000348139 -7.74411e-06     -9.99781 
         850      8.04155  0.000343381 -7.48939e-06      -9.9978 
         850      8.12868  0.000338643 -7.22461e-06      -9.9978 
         850      8.21635  0.000333923 -6.94685e-06      -9.9978 
         850      8.30449  0.000329231 -6.65369e-06      -9.9978 
         850      8.39303  0.000324586 -6.34258e-06     -9.99779 
         850      8.48211  0.000319995  -6.0101e-06     -9.99779 
         850      8.57159  0.000315491 -5.65363e-06     -9.99779 
         850      8.66161  0.000311098 -5.26929e-06     -9.99778 
         850      8.75203  0.000306846 -4.87262e-06     -9.99778 
         850      8.84299  0.000302406 -4.73055e-06     -9.99778 
         850      8.93443  0.000298041 -4.54812e-06     -9.99777 
         850      9.02626  0.000293746 -4.33309e-06     -9.99777 
         850      9.11863  0.000289507 -4.09213e-06     -9.99777 
         850      9.21139  0.000285323 -3.83204e-06     -9.99777 
         850      9.30471  0.000281184 -3.55829e-06     -9.99776 
         850      9.39841  0.000277092 -3.27661e-06     -9.99776 
         850      9.49267  0.000273037 -2.99133e-06     -9.99776 
         850      9.58739   0.00026902 -2.70691e-06     -9.99776 
         850      9.68251  0.000265042 -2.42731e-06     -9.99775 
         850      9.77817  0.000261096 -2.15534e-06     -9.99775 
         850      9.87422  0.000257187 -1.89417e-06     -9.99775 
         850      9.97083  0.000253311  -1.6457e-06     -9.99775 
         850      10.0678  0.000249473  -1.4122e-06     -9.99774 
         850      10.1654   0.00024567 -1.19476e-06     -9.99774 
         850      10.2633  0.000241907 -9.94802e-07     -9.99774 
         850      10.3618  0.000238181 -8.12716e-07     -9.99774 
         850      10.4607  0.000234486 -6.42872e-07     -9.99773 
         850      10.5601  0.000230788 -4.61226e-07     -9.99773 
         850        10.66  0.000227138 -2.89728e-07     -9.99773 
         850      10.7603   0.00022354 -1.26563e-07     -9.99773 
         850      10.8611  0.000219987  3.05355e-08     -9.99772 
         850      10.9623  0.000216485   1.8319e-07     -9.99772 
         850      11.0641  0.000213028  3.33353e-07     -9.99772 
         850      11.1663  0.000209617   4.8241e-07     -9.99772 
         850       11.269  0.000206254  6.31514e-07     -9.99771 
         850      11.3721  0.000202935  7.81911e-07     -9.99771 
         850      11.4757  0.000199663  9.34092e-07     -9.99771 
         850      11.5798  0.000196432  1.08873e-06     -9.99771 
         850      11.6844  0.000193248  1.24569e-06     -9.99771 
         850      11.7894  0.000190105  1.40504e-06      -9.9977 
         850       11.895  0.000187004  1.56616e-06      -9.9977 
         850      12.0009  0.000183947  1.72813e-06      -9.9977 
         850      12.1073  0.000180928  1.89015e-06      -9.9977 
         850      12.2142  0.000177951  2.05067e-06      -9.9977 
         850      12.3216   0.00017501  2.20846e-06     -9.99769 
         850      12.4294  0.000172109  2.36164e-06     -9.99769 
         850      12.5378  0.000169243  2.50875e-06     -9.99769 
         850      12.6465  0.000166415  2.64787e-06     -9.99769 
         850      12.7558  0.000163619  2.77762e-06     -9.99769 
         850      12.8656  0.000160858  2.89651e-06     -9.99768 
         850      12.9757  0.000158133  3.00341e-06     -9.99768 
         850      13.0864  0.000155441  3.09792e-06     -9.99768 
         850      13.1975  0.000152786  3.17998e-06     -9.99768 
         850      13.3092  0.000150165  3.25061e-06     -9.99768 
         850      13.4212  0.000147585  3.31161e-06     -9.99768 
         850      13.5338  0.000145044  3.36625e-06     -9.99767 
         850      13.6468  0.000142549  3.41912e-06     -9.99767 
         850      13.7603  0.000140108  3.47659e-06     -9.99767 
         850      13.8743  0.000137723  3.54723e-06     -9.99767 
         850      13.9886  0.000135407  3.64176e-06     -9.99767 
         850      14.1036  0.000133167  3.77392e-06     -9.99767 
         850      14.2189   0.00013084  3.83522e-06     -9.99767 
         850      14.3348   0.00012848  3.84712e-06     -9.99766 
         850       14.451  0.000126172   3.8635e-06     -9.99766 
         850      14.5678  0.000123908  3.88425e-06     -9.99766 
         850      14.6851  0.000121686  3.90904e-06     -9.99766 
         850      14.8028  0.000119507  3.93739e-06     -9.99766 
         850       14.921  0.000117363  3.96879e-06     -9.99766 
         850      15.0396  0.000115257  4.00254e-06     -9.99765 
         850      15.1588  0.000113184  4.03796e-06     -9.99765 
         850      15.2783  0.000111146  4.07423e-06     -9.99765 
         850      15.3984  0.000109139   4.1106e-06     -9.99765 
         850       15.519  0.000107165  4.14622e-06     -9.99765 
         850        15.64  0.000105225  4.18026e-06     -9.99765 
         850      15.7615  0.000103315  4.21199e-06     -9.99765 
         850      15.8834  0.000101439  4.24062e-06     -9.99765 
         850      16.0058  9.95934e-05  4.26555e-06     -9.99764 
         850      16.1286  9.77823e-05  4.28614e-06     -9.99764 
         850       16.252  9.60028e-05  4.30195e-06     -9.99764 
         850      16.3759  9.42566e-05   4.3126e-06     -9.99764 
         850      16.5002  9.25453e-05  4.31784e-06     -9.99764 
         850       16.625  9.08664e-05  4.31759e-06     -9.99764 
         850      16.7501  8.92225e-05  4.31191e-06     -9.99764 
         850      16.8759  8.76111e-05  4.30103e-06     -9.99764 
         850       17.002  8.60345e-05  4.28535e-06     -9.99763 
         850      17.1287  8.44897e-05  4.26544e-06     -9.99763 
         850      17.2557  8.29788e-05  4.24211e-06     -9.99763 
         850      17.3834  8.14985e-05  4.21627e-06     -9.99763 
         850      17.5115   8.0049e-05   4.1891e-06     -9.99763 
         850      17.6399  7.86305e-05  4.16194e-06     -9.99763 
         850       17.769  7.72391e-05  4.13629e-06     -9.99763 
         850      17.8984  7.57743e-05  4.16382e-06     -9.99763 
         850      18.0284  7.42899e-05  4.22782e-06     -9.99763 
         850      18.1587   7.2862e-05   4.2924e-06     -9.99763 
         850      18.2896   7.1487e-05  4.35556e-06     -9.99762 
         850       18.421  7.01639e-05  4.41525e-06     -9.99762 
         850      18.5528  6.88908e-05  4.46959e-06     -9.99762 
         850      18.6851  6.76621e-05    4.517e-06     -9.99762 
         850      18.8178  6.64754e-05  4.55593e-06     -9.99762 
         850      18.9511   6.5324e-05  4.58525e-06     -9.99762 
         850      19.0847  6.42044e-05  4.60404e-06     -9.99762 
         850      19.2189  6.31088e-05  4.61178e-06     -9.99762 
         850      19.3535  6.20331e-05  4.60833e-06     -9.99762 
         850      19.4886  6.09694e-05  4.59399e-06     -9.99762 
         850      19.6242  5.99126e-05   4.5696e-06     -9.99762 
         850      19.7602  5.88579e-05  4.53659e-06     -9.99762 
         850      19.8968  5.77986e-05  4.49695e-06     -9.99761 
         850      20.0337  5.67322e-05  4.45349e-06     -9.99761 
         850      20.1712  5.56539e-05  4.40963e-06     -9.99761 
         850      20.3091   5.4564e-05  4.36982e-06     -9.99761 
         850      20.4475  5.34612e-05  4.33926e-06     -9.99761 
         850      20.5864  5.23492e-05  4.32429e-06     -9.99761 
         850      20.7257  5.12344e-05  4.33226e-06     -9.99761 
         850      20.8655  5.01181e-05  4.29556e-06     -9.99761 
         850      21.0058  4.90548e-05  4.16621e-06     -9.99761 
         850      21.1465  4.80638e-05  4.04334e-06     -9.99761 
         850      21.2877  4.71377e-05  3.92925e-06     -9.99761 
         850      21.4294  4.62665e-05  3.82528e-06     -9.99761 
         850      21.5716  4.54432e-05  3.73254e-06     -9.99761 
         850      21.7142  4.46608e-05  3.65163e-06      -9.9976 
         850      21.8573  4.39113e-05  3.58251e-06      -9.9976 
         850      22.0008  4.31894e-05  3.52499e-06      -9.9976 
         850      22.1449  4.24881e-05  3.47832e-06      -9.9976 
         850      22.2893  4.18031e-05  3.44161e-06      -9.9976 
         850      22.4344  4.11284e-05  3.41354e-06      -9.9976 
         850      22.5797  4.04604e-05  3.39268e-06      -9.9976 
         850      22.7257  3.97941e-05  3.37728e-06      -9.9976 
         850      22.8721  3.91263e-05  3.36546e-06      -9.9976 
         850      23.0189  3.84541e-05   3.3552e-06      -9.9976 
         850      23.1663  3.77735e-05  3.34431e-06      -9.9976 
         850       23.314   3.7083e-05  3.33054e-06      -9.9976 
         850      23.4623   3.6379e-05  3.31151e-06      -9.9976 
         850       23.611  3.57582e-05  3.22345e-06      -9.9976 
         850      23.7602  3.51417e-05   3.1561e-06      -9.9976 
         850        23.91   3.4529e-05  3.10667e-06      -9.9976 
         850        24.06  3.39212e-05  3.07168e-06      -9.9976 
         850      24.2107  3.33184e-05  3.04796e-06      -9.9976 
         850      24.3617  3.27232e-05  3.03271e-06     -9.99759 
         850      24.5133  3.21362e-05   3.0234e-06     -9.99759 
         850      24.6653  3.15603e-05  3.01778e-06     -9.99759 
         850      24.8178  3.09963e-05  3.01385e-06     -9.99759 
         850      24.9708  3.04467e-05  3.00987e-06     -9.99759 
         850      25.1242  2.99134e-05  3.00429e-06     -9.99759 
         850      25.2781  2.93971e-05  2.99579e-06     -9.99759 
         850      25.4324  2.88997e-05  2.98326e-06     -9.99759 
         850      25.5873  2.84212e-05  2.96573e-06     -9.99759 
         850      25.7426  2.79629e-05  2.94249e-06     -9.99759 
         850      25.8984  2.75238e-05  2.91292e-06     -9.99759 
         850      26.0546  2.71042e-05   2.8767e-06     -9.99759 
         850      26.2114  2.67025e-05  2.83358e-06     -9.99759 
         850      26.3686  2.63175e-05  2.78356e-06     -9.99759 
         850      26.5262  2.59476e-05  2.72691e-06     -9.99759 
         850      26.6844    2.559e-05  2.66398e-06     -9.99759 
         850      26.8429  2.52424e-05  2.59552e-06     -9.99759 
         850       27.002  2.49013e-05  2.52237e-06     -9.99759 
         850      27.1615  2.45641e-05  2.44589e-06     -9.99759 
         850      27.3216  2.42268e-05  2.36752e-06     -9.99759 
         850      27.4821  2.38864e-05  2.28926e-06     -9.99759 
         850       27.643    2.354e-05  2.21353e-06     -9.99758 
         850      27.8044  2.31843e-05  2.14303e-06     -9.99758 
         850      27.9663  2.28174e-05  2.08123e-06     -9.99758 
         850      28.1287  2.24372e-05  2.03197e-06     -9.99758 
         850      28.2914  2.20437e-05  1.99992e-06     -9.99758 
         850      28.4548  2.16369e-05  1.99037e-06     -9.99758 
         850      28.6185  2.12198e-05  2.00951e-06     -9.99758 
         850      28.7828  2.07957e-05  2.06445e-06     -9.99758 
         850      28.9475  2.03715e-05  2.16329e-06     -9.99758 
         850      29.1126  2.02409e-05  2.06882e-06     -9.99758 
         850      29.2784  2.01385e-05  1.93465e-06     -9.99758 
         850      29.4444  1.99878e-05  1.82371e-06     -9.99758 
         850       29.611  1.97987e-05  1.73322e-06     -9.99758 
         850       29.778  1.95806e-05  1.66092e-06     -9.99758 
         850      29.9456  1.93412e-05  1.60451e-06     -9.99758 
         850      30.1137  1.90875e-05  1.56208e-06     -9.99758 
         850      30.2821  1.88258e-05  1.53183e-06     -9.99758 
         850      30.4511  1.85607e-05  1.51209e-06     -9.99758 
         850      30.6204  1.82969e-05   1.5014e-06     -9.99758 
         850      30.7903  1.80374e-05  1.49842e-06     -9.99758 
         850      30.9606  1.77854e-05  1.50195e-06     -9.99758 
         850      31.1315  1.75424e-05  1.51091e-06     -9.99758 
         850      31.3028  1.73102e-05  1.52433e-06     -9.99758 
         850      31.4745  1.70898e-05  1.54131e-06     -9.99758 
         850      31.6468  1.68813e-05  1.56109e-06     -9.99758 
         850      31.8194  1.66851e-05  1.58292e-06     -9.99758 
         850      31.9926  1.65004e-05   1.6062e-06     -9.99757 
         850      32.1662  1.63269e-05  1.63029e-06     -9.99757 
         850      32.3404  1.61634e-05  1.65472e-06     -9.99757 
         850      32.5149   1.6009e-05  1.67894e-06     -9.99757 
         850        32.69  1.58623e-05  1.70256e-06     -9.99757 
         850      32.8655   1.5722e-05  1.72513e-06     -9.99757 
         850      33.0414  1.55868e-05  1.74626e-06     -9.99757 
         850       33.218  1.54551e-05  1.76563e-06     -9.99757 
         850      33.3948  1.53258e-05  1.78287e-06     -9.99757 
         850      33.5723  1.51974e-05  1.79772e-06     -9.99757 
         850        33.75   1.5069e-05  1.80987e-06     -9.99757 
         850      33.9284  1.49395e-05  1.81909e-06     -9.99757 
         850      34.1073  1.48082e-05  1.82517e-06     -9.99757 
         850      34.2865  1.46747e-05  1.82791e-06     -9.99757 
         850      34.4663  1.45386e-05  1.82721e-06     -9.99757 
         850      34.6465  1.44001e-05  1.82297e-06     -9.99757 
         850      34.8272  1.42593e-05  1.81518e-06     -9.99757 
         850      35.0083  1.41171e-05  1.80391e-06     -9.99757 
         850        35.19  1.39742e-05  1.78929e-06     -9.99757 
         850      35.3721  1.38321e-05   1.7716e-06     -9.99757 
         850      35.5546  1.36925e-05  1.75122e-06     -9.99757 
         850      35.7377  1.35571e-05  1.72865e-06     -9.99757 
         850      35.9211  1.34285e-05  1.70463e-06     -9.99757 
         850      36.1052   1.3309e-05  1.67999e-06     -9.99757 
         850      36.2895  1.32017e-05  1.65589e-06     -9.99757 
         850      36.4745  1.31095e-05  1.63363e-06     -9.99757 
         850      36.6598  1.30359e-05  1.61491e-06     -9.99756 
         850      36.8457  1.29842e-05  1.60165e-06     -9.99756 
         850      37.0321   1.2958e-05  1.59618e-06     -9.99756 
         850      37.2188   1.2961e-05  1.60122e-06     -9.99756 
         850      37.4062  1.29968e-05  1.61996e-06     -9.99756 
         850      37.5938  1.30496e-05  1.62011e-06     -9.99756 
         850      37.7821  1.30827e-05  1.60436e-06     -9.99756 
         850      37.9707  1.30873e-05  1.57451e-06     -9.99756 
         850      38.1599  1.30537e-05  1.53163e-06     -9.99756 
         850      38.3496  1.29708e-05  1.47627e-06     -9.99756 
         850      38.5396  1.28264e-05   1.4082e-06     -9.99756 
         850      38.7302  1.26065e-05  1.32609e-06     -9.99756 
         850      38.9211  1.22964e-05  1.22772e-06     -9.99756 
         850      39.1127  1.18788e-05  1.10918e-06     -9.99756 
         850      39.3046  1.15875e-05  1.04104e-06     -9.99756 
         850      39.4971  1.17322e-05  1.08847e-06     -9.99756 
         850      39.6899  1.18509e-05  1.10765e-06     -9.99756 
         850      39.8833   1.1945e-05  1.10896e-06     -9.99756 
         850      40.0772  1.20163e-05  1.10087e-06     -9.99756 
         850      40.2714  1.20666e-05  1.09006e-06     -9.99756 
         850      40.4663  1.20985e-05  1.08153e-06     -9.99756 
         850      40.6615  1.21147e-05  1.07879e-06     -9.99756 
         850      40.8573  1.20281e-05  1.05512e-06     -9.99756 
         850      41.0534  1.18324e-05  1.01121e-06     -9.99756 
         850      41.2501  1.16539e-05  9.83871e-07     -9.99755 
         850      41.4473   1.1495e-05  9.69141e-07     -9.99755 
         850      41.6448  1.13573e-05  9.63536e-07     -9.99755 
         850      41.8429  1.12413e-05  9.64042e-07     -9.99755 
         850      42.0414  1.11472e-05  9.68107e-07     -9.99755 
         850      42.2405  1.10742e-05  9.73608e-07     -9.99755 
         850      42.4399  1.10213e-05  9.78797e-07     -9.99755 
         850      42.6399  1.09868e-05  9.82307e-07     -9.99755 
         850      42.8404  1.09689e-05  9.83089e-07     -9.99755 
         850      43.0412  1.09656e-05  9.80405e-07     -9.99755 
         850      43.2426  1.09744e-05  9.73782e-07     -9.99755 
         850      43.4444  1.09929e-05   9.6301e-07     -9.99755 
         850      43.6467  1.10189e-05  9.48063e-07     -9.99755 
         850      43.8494  1.10497e-05  9.29145e-07     -9.99755 
         850      44.0527  1.10832e-05  9.06565e-07     -9.99755 
         850      44.2563  1.11171e-05  8.80828e-07     -9.99755 
         850      44.4606  1.11496e-05  8.52468e-07     -9.99755 
         850      44.6653  1.11789e-05  8.22157e-07     -9.99755 
         850      44.8704  1.12034e-05  7.90624e-07     -9.99755 
         850       45.076  1.12221e-05   7.5855e-07     -9.99755 
         850       45.282   1.1234e-05  7.26718e-07     -9.99754 
         850      45.4886  1.12387e-05  6.95787e-07     -9.99754 
         850      45.6955  1.12359e-05  6.66473e-07     -9.99754 
         850       45.903  1.12258e-05  6.39328e-07     -9.99754 
         850      46.1111  1.12087e-05   6.1489e-07     -9.99754 
         850      46.3194  1.11855e-05  5.93581e-07     -9.99754 
         850      46.5283  1.11569e-05  5.75647e-07     -9.99754 
         850      46.7376  1.11244e-05  5.61254e-07     -9.99754 
         850      46.9475  1.10891e-05   5.5036e-07     -9.99754 
         850      47.1577  1.10525e-05  5.42787e-07     -9.99754 
         850      47.3685  1.10161e-05  5.38142e-07     -9.99754 
         850      47.5798  1.09811e-05  5.35856e-07     -9.99754 
         850      47.7914  1.09489e-05  5.35141e-07     -9.99754 
         850      48.0037  1.09201e-05  5.34994e-07     -9.99754 