Variables = x, y, u, v, p

Zone, I=800, F=POINT
         900            0           -0           -0      6.95721 
         900     0.000234  4.77952e-06 -5.29784e-11      6.95721 
         900     0.000939  1.76169e-05 -8.63053e-10      6.95721 
         900     0.002113  3.42276e-05 -4.37788e-09      6.95721 
         900     0.003759  4.89178e-05 -1.38571e-08      6.95721 
         900     0.005872  5.61029e-05 -3.37986e-08      6.95721 
         900     0.008457  5.20957e-05 -7.00475e-08      6.95721 
         900      0.01151  3.61796e-05   -1.296e-07      6.95721 
         900     0.015036  1.08659e-05 -2.20839e-07      6.95721 
         900     0.019031 -1.88362e-05 -3.53142e-07      6.95721 
         900     0.023493 -4.72467e-05 -5.36992e-07      6.95721 
         900     0.028429 -7.02567e-05 -7.84352e-07      6.95721 
         900     0.033831  -8.7002e-05 -1.10748e-06      6.95721 
         900     0.039706 -0.000100436 -1.52033e-06      6.95721 
         900     0.046047 -0.000115479 -2.03675e-06      6.95721 
         900     0.052863 -0.000135171 -2.67248e-06      6.95721 
         900      0.06015 -0.000156109  -3.4428e-06      6.95721 
         900       0.0679 -0.000167938 -4.36261e-06      6.95721 
         900     0.076126 -0.000165865 -5.44949e-06      6.95721 
         900     0.084816  -0.00017987 -6.71789e-06      6.95721 
         900     0.093982  -0.00017614  -8.1854e-06      6.95721 
         900     0.103611 -0.000170798 -9.86533e-06      6.95721 
         900     0.113718  -0.00016218 -1.17751e-05      6.95721 
         900     0.124286 -0.000149127 -1.39254e-05      6.95721 
         900     0.135333 -0.000130973 -1.63328e-05      6.95721 
         900      0.14685  -0.00010758 -1.90073e-05      6.95721 
         900     0.158827 -7.92105e-05 -2.19565e-05      6.95721 
         900     0.171284 -4.62577e-05 -2.51941e-05      6.95721 
         900     0.184201 -9.20282e-06  -2.8722e-05      6.95721 
         900     0.197599   3.1776e-05 -3.25511e-05      6.95721 
         900     0.211455  7.66069e-05 -3.66782e-05      6.95721 
         900     0.225792  0.000125364 -4.11116e-05      6.95721 
         900       0.2406   0.00017729 -4.58479e-05      6.95721 
         900     0.255865  0.000230789 -5.08802e-05      6.95721 
         900     0.271613     0.000287  -5.6213e-05      6.95721 
         900     0.287818  0.000344585 -6.18316e-05      6.95721 
         900     0.304506  0.000403143 -6.77375e-05      6.95721 
         900      0.32165   0.00046208 -7.39123e-05      6.95721 
         900     0.339278  0.000520989  -8.0356e-05      6.95721 
         900     0.357377  0.000579331 -8.70528e-05      6.95721 
         900      0.37593  0.000636577 -9.39843e-05      6.95721 
         900     0.394968  0.000692374  -0.00010115      6.95721 
         900     0.414461  0.000746216 -0.000108524      6.95721 
         900      0.43444  0.000797813 -0.000116107      6.95721 
         900     0.454872   0.00084675 -0.000123872      6.95721 
         900     0.475791  0.000892828 -0.000131819      6.95721 
         900     0.497163  0.000935742 -0.000139922      6.95721 
         900     0.519021  0.000975377 -0.000148182      6.95721 
         900      0.54135   0.00101157 -0.000156582      6.95721 
         900     0.564131   0.00104418 -0.000165103      6.95721 
         900       0.5874   0.00107321  -0.00017375      6.95721 
         900     0.611121   0.00109854   -0.0001825      6.95721 
         900      0.63533    0.0011203  -0.00019136      6.95721 
         900      0.65999   0.00113844 -0.000200305      6.95721 
         900     0.685139   0.00115307 -0.000209342      6.95721 
         900     0.710759   0.00116428 -0.000218461      6.95721 
         900     0.736828   0.00117215 -0.000227649      6.95721 
         900     0.763387   0.00117684 -0.000236916      6.95721 
         900     0.790396   0.00117846 -0.000246244      6.95721 
         900     0.817896   0.00117718 -0.000255642      6.95721 
         900     0.845843   0.00117315  -0.00026509      6.95721 
         900     0.874283   0.00116654 -0.000274601      6.95721 
         900      0.90317   0.00115756 -0.000284153      6.95721 
         900     0.932551   0.00114638 -0.000293757      6.95721 
         900     0.962401   0.00113321   -0.0003034      6.95721 
         900     0.992697    0.0011183 -0.000313068      6.95721 
         900      1.02349   0.00110183  -0.00032277      6.95721 
         900      1.05472   0.00108406 -0.000332485      6.95721 
         900      1.08645    0.0010652  -0.00034222      6.95721 
         900      1.11863   0.00104551 -0.000351951      6.95721 
         900       1.1513    0.0010252 -0.000361686      6.95721 
         900      1.18444   0.00100451 -0.000371406      6.95721 
         900      1.21802  0.000983692 -0.000381094      6.95721 
         900      1.25211  0.000962928 -0.000390755      6.95721 
         900      1.28663  0.000942459 -0.000400363      6.95721 
         900      1.32165  0.000922438 -0.000409922      6.95721 
         900      1.35712  0.000903062 -0.000419406      6.95721 
         900      1.39308  0.000884431 -0.000428821      6.95721 
         900      1.42951  0.000866655 -0.000438153      6.95721 
         900      1.46638  0.000849795 -0.000447388      6.95721 
         900      1.50375  0.000833813 -0.000456539      6.95721 
         900      1.54156  0.000818531 -0.000465574      6.95721 
         900      1.57987  0.000804281 -0.000474491      6.95721 
         900      1.61863  0.000790933 -0.000483276      6.95721 
         900      1.65788  0.000778297 -0.000491943      6.95721 
         900      1.69757  0.000766237 -0.000500478      6.95721 
         900      1.73776  0.000754588 -0.000508894      6.95721 
         900      1.77842  0.000743223 -0.000517183      6.95721 
         900      1.81952  0.000732028 -0.000525336      6.95721 
         900      1.86113  0.000720871 -0.000533364      6.95721 
         900      1.90316  0.000709673 -0.000541251      6.95721 
         900      1.94571  0.000698328 -0.000549004      6.95721 
         900      1.98869   0.00068678 -0.000556607      6.95721 
         900      2.03217  0.000674949 -0.000564067      6.95721 
         900      2.07612  0.000662793 -0.000571372      6.95721 
         900      2.12051  0.000650285  -0.00057851      6.95721 
         900       2.1654  0.000637378 -0.000585485      6.95721 
         900      2.21073  0.000624077  -0.00059228      6.95721 
         900      2.25656  0.000610356 -0.000598898      6.95721 
         900      2.30283  0.000596238  -0.00060532      6.95721 
         900       2.3496  0.000581714 -0.000611549      6.95721 
         900      2.39685  0.000566813 -0.000617572      6.95721 
         900      2.44452  0.000551572 -0.000623376      6.95721 
         900      2.49271  0.000535997 -0.000628962      6.95721 
         900      2.54132  0.000520145 -0.000634313      6.95721 
         900      2.59044  0.000504028 -0.000639431       6.9572 
         900         2.64  0.000487708 -0.000644299       6.9572 
         900      2.69006  0.000471196 -0.000648919       6.9572 
         900      2.74056  0.000454553 -0.000653277       6.9572 
         900      2.79156  0.000437788 -0.000657374       6.9572 
         900      2.84304  0.000420943   -0.0006612       6.9572 
         900      2.89494  0.000404058 -0.000664748       6.9572 
         900      2.94735  0.000387129 -0.000668019       6.9572 
         900       3.0002    0.0003702 -0.000671004       6.9572 
         900      3.05355  0.000353258 -0.000673705       6.9572 
         900      3.10733  0.000336337 -0.000676116       6.9572 
         900      3.16163  0.000319418 -0.000678236       6.9572 
         900      3.21639  0.000302518 -0.000680063       6.9572 
         900      3.27158  0.000285656 -0.000681594       6.9572 
         900      3.32729  0.000268814 -0.000682828       6.9572 
         900      3.38342  0.000252034  -0.00068376      6.95719 
         900      3.44007  0.000235319  -0.00068439      6.95719 
         900      3.49714  0.000218739 -0.000684712      6.95719 
         900      3.55472   0.00020234 -0.000684719      6.95719 
         900      3.61273  0.000186247 -0.000684403      6.95719 
         900      3.67125  0.000170581 -0.000683752      6.95719 
         900      3.73025  0.000155548  -0.00068275      6.95719 
         900      3.78967  0.000140698 -0.000681515      6.95719 
         900      3.84961  0.000125931 -0.000680028      6.95719 
         900      3.90996  0.000111546 -0.000678245      6.95719 
         900      3.97084  9.75496e-05 -0.000676169      6.95719 
         900      4.03214  8.39917e-05 -0.000673812      6.95718 
         900      4.09395  7.08755e-05 -0.000671179      6.95718 
         900      4.15624  5.82341e-05  -0.00066828      6.95718 
         900      4.21895  4.60961e-05 -0.000665127      6.95718 
         900      4.28217  3.44591e-05 -0.000661724      6.95718 
         900      4.34582  2.33555e-05 -0.000658086      6.95718 
         900      4.40998   1.2779e-05 -0.000654217      6.95718 
         900      4.47457  2.75518e-06 -0.000650131      6.95718 
         900      4.53968 -6.72608e-06 -0.000645833      6.95717 
         900      4.60525 -1.56531e-05 -0.000641336      6.95717 
         900      4.67125 -2.40187e-05 -0.000636653      6.95717 
         900      4.73777 -3.18378e-05 -0.000631787      6.95717 
         900       4.8047 -3.91022e-05 -0.000626755      6.95717 
         900      4.87216 -4.58301e-05 -0.000621561      6.95717 
         900      4.94003 -5.20196e-05 -0.000616221      6.95717 
         900      5.00843 -5.76917e-05 -0.000610736      6.95717 
         900      5.07724 -6.28504e-05 -0.000605127      6.95716 
         900      5.14658 -6.75193e-05 -0.000599393      6.95716 
         900      5.21639 -7.17108e-05 -0.000593548      6.95716 
         900      5.28661  -7.5441e-05 -0.000587607      6.95716 
         900      5.35736  -7.8736e-05 -0.000581568      6.95716 
         900      5.42852 -8.16123e-05 -0.000575451      6.95716 
         900      5.50021 -8.40975e-05 -0.000569254      6.95716 
         900      5.57231 -8.61866e-05 -0.000562994      6.95715 
         900      5.64493 -8.78454e-05 -0.000556665      6.95715 
         900      5.71803 -8.91654e-05 -0.000550287      6.95715 
         900      5.79154 -9.01683e-05 -0.000543873      6.95715 
         900      5.86558 -9.08783e-05 -0.000537418      6.95715 
         900      5.94003 -9.13171e-05  -0.00053094      6.95715 
         900      6.01501 -9.15078e-05 -0.000524434      6.95715 
         900       6.0904 -9.14723e-05 -0.000517919      6.95714 
         900      6.16632 -9.12326e-05 -0.000511389      6.95714 
         900      6.24271 -9.08098e-05 -0.000504857      6.95714 
         900       6.3195 -9.02253e-05 -0.000498336      6.95714 
         900      6.39683 -8.94979e-05  -0.00049182      6.95714 
         900      6.47457 -8.86477e-05 -0.000485327      6.95714 
         900      6.55284 -8.76912e-05 -0.000478854      6.95714 
         900      6.63152 -8.66466e-05 -0.000472415      6.95713 
         900      6.71073 -8.55276e-05 -0.000466009      6.95713 
         900      6.79034 -8.43501e-05 -0.000459649      6.95713 
         900      6.87049 -8.31245e-05 -0.000453332      6.95713 
         900      6.95111 -8.18629e-05 -0.000447067      6.95713 
         900      7.03214 -8.05756e-05 -0.000440864      6.95713 
         900       7.1137 -7.92683e-05 -0.000434715      6.95713 
         900      7.19566 -7.79491e-05 -0.000428634      6.95712 
         900      7.27816 -7.66202e-05 -0.000422612      6.95712 
         900      7.36106 -7.52866e-05 -0.000416658      6.95712 
         900      7.44451 -7.39471e-05 -0.000410762      6.95712 
         900      7.52842 -7.26024e-05 -0.000404925      6.95712 
         900      7.61273 -7.12517e-05 -0.000399146      6.95712 
         900      7.69758 -6.98897e-05 -0.000393408      6.95712 
         900      7.78283 -6.85144e-05  -0.00038771      6.95711 
         900      7.86862 -6.71184e-05 -0.000382029      6.95711 
         900      7.95481 -6.56982e-05 -0.000376357      6.95711 
         900      8.04155 -6.42454e-05 -0.000370664      6.95711 
         900      8.12868 -6.30192e-05 -0.000365273      6.95711 
         900      8.21635 -6.18084e-05 -0.000359965      6.95711 
         900      8.30449 -6.05646e-05 -0.000354685       6.9571 
         900      8.39303 -5.92907e-05 -0.000349442       6.9571 
         900      8.48211 -5.79864e-05 -0.000344228       6.9571 
         900      8.57159 -5.66559e-05 -0.000339055       6.9571 
         900      8.66161 -5.52994e-05 -0.000333917       6.9571 
         900      8.75203 -5.39216e-05 -0.000328825       6.9571 
         900      8.84299 -5.25233e-05 -0.000323773       6.9571 
         900      8.93443 -5.11089e-05 -0.000318769      6.95709 
         900      9.02626 -4.96833e-05 -0.000313819      6.95709 
         900      9.11863 -4.82484e-05  -0.00030892      6.95709 
         900      9.21139 -4.68113e-05 -0.000304081      6.95709 
         900      9.30471  -4.5375e-05   -0.0002993      6.95709 
         900      9.39841 -4.39478e-05 -0.000294588      6.95709 
         900      9.49267 -4.25341e-05 -0.000289943      6.95708 
         900      9.58739 -4.11425e-05 -0.000285372      6.95708 
         900      9.68251 -3.97823e-05 -0.000280886      6.95708 
         900      9.77817 -3.84606e-05 -0.000276481      6.95708 
         900      9.87422 -3.71373e-05 -0.000272104      6.95708 
         900      9.97083 -3.57682e-05 -0.000267687      6.95708 
         900      10.0678   -3.443e-05 -0.000263339      6.95708 
         900      10.1654 -3.31139e-05 -0.000259052      6.95707 
         900      10.2633  -3.1816e-05 -0.000254829      6.95707 
         900      10.3618 -3.05291e-05  -0.00025066      6.95707 
         900      10.4607 -2.92496e-05 -0.000246548      6.95707 
         900      10.5601 -2.79745e-05 -0.000242493      6.95707 
         900        10.66 -2.66988e-05 -0.000238487      6.95707 
         900      10.7603  -2.5422e-05 -0.000234535      6.95706 
         900      10.8611 -2.41404e-05 -0.000230628      6.95706 
         900      10.9623 -2.28549e-05 -0.000226772      6.95706 
         900      11.0641 -2.15631e-05  -0.00022296      6.95706 
         900      11.1663 -2.02662e-05 -0.000219194      6.95706 
         900       11.269 -1.89662e-05 -0.000215475      6.95706 
         900      11.3721 -1.76622e-05 -0.000211798      6.95706 
         900      11.4757 -1.63583e-05 -0.000208167      6.95705 
         900      11.5798 -1.50545e-05 -0.000204577      6.95705 
         900      11.6844 -1.37555e-05 -0.000201034      6.95705 
         900      11.7894 -1.24618e-05 -0.000197531      6.95705 
         900       11.895 -1.11773e-05 -0.000194072      6.95705 
         900      12.0009 -9.90569e-06 -0.000190659      6.95705 
         900      12.1073  -8.6474e-06 -0.000187287      6.95704 
         900      12.2142 -7.40651e-06 -0.000183963      6.95704 
         900      12.3216 -6.18259e-06  -0.00018068      6.95704 
         900      12.4294 -4.97824e-06 -0.000177445      6.95704 
         900      12.5378 -3.79125e-06 -0.000174253      6.95704 
         900      12.6465  -2.6219e-06 -0.000171109      6.95704 
         900      12.7558 -1.46516e-06 -0.000168009      6.95703 
         900      12.8656 -3.16942e-07 -0.000164954      6.95703 
         900      12.9757  8.29041e-07 -0.000161947      6.95703 
         900      13.0864  1.98439e-06 -0.000158984      6.95703 
         900      13.1975  3.15994e-06 -0.000156067      6.95703 
         900      13.3092  4.37361e-06 -0.000153193      6.95703 
         900      13.4212  5.64324e-06 -0.000150363      6.95703 
         900      13.5338  6.99499e-06 -0.000147572      6.95702 
         900      13.6468  8.45675e-06  -0.00014482      6.95702 
         900      13.7603   9.4479e-06 -0.000142126      6.95702 
         900      13.8743  1.03925e-05 -0.000139476      6.95702 
         900      13.9886  1.13608e-05 -0.000136873      6.95702 
         900      14.1036  1.23506e-05 -0.000134309      6.95702 
         900      14.2189  1.33567e-05 -0.000131788      6.95701 
         900      14.3348  1.43772e-05 -0.000129304      6.95701 
         900       14.451  1.54073e-05 -0.000126861      6.95701 
         900      14.5678  1.64457e-05 -0.000124453      6.95701 
         900      14.6851  1.74885e-05 -0.000122082      6.95701 
         900      14.8028  1.85326e-05 -0.000119748      6.95701 
         900       14.921  1.95769e-05 -0.000117448        6.957 
         900      15.0396  2.06177e-05 -0.000115184        6.957 
         900      15.1588  2.16547e-05 -0.000112952        6.957 
         900      15.2783  2.26842e-05 -0.000110756        6.957 
         900      15.3984  2.37064e-05 -0.000108592        6.957 
         900       15.519  2.47188e-05  -0.00010646        6.957 
         900        15.64  2.57195e-05 -0.000104364      6.95699 
         900      15.7615   2.6709e-05 -0.000102298      6.95699 
         900      15.8834  2.76847e-05 -0.000100267      6.95699 
         900      16.0058  2.86474e-05  -9.8267e-05      6.95699 
         900      16.1286  2.95951e-05 -9.63013e-05      6.95699 
         900       16.252  3.05288e-05 -9.43667e-05      6.95699 
         900      16.3759  3.14476e-05 -9.24649e-05      6.95698 
         900      16.5002  3.23506e-05 -9.05972e-05      6.95698 
         900       16.625  3.32394e-05 -8.87608e-05      6.95698 
         900      16.7501  3.41126e-05 -8.69584e-05      6.95698 
         900      16.8759  3.49722e-05 -8.51873e-05      6.95698 
         900       17.002  3.58171e-05   -8.345e-05      6.95698 
         900      17.1287  3.66494e-05 -8.17436e-05      6.95697 
         900      17.2557  3.74685e-05 -8.00708e-05      6.95697 
         900      17.3834  3.82766e-05 -7.84286e-05      6.95697 
         900      17.5115   3.9074e-05 -7.68179e-05      6.95697 
         900      17.6399  3.98612e-05 -7.52397e-05      6.95697 
         900       17.769  4.06407e-05 -7.36909e-05      6.95696 
         900      17.8984  4.14126e-05 -7.21733e-05      6.95696 
         900      18.0284  4.21795e-05  -7.0684e-05      6.95696 
         900      18.1587  4.29418e-05 -6.92244e-05      6.95696 
         900      18.2896  4.37021e-05 -6.77913e-05      6.95696 
         900       18.421  4.44617e-05 -6.63849e-05      6.95696 
         900      18.5528  4.52217e-05 -6.50051e-05      6.95695 
         900      18.6851  4.59851e-05 -6.36483e-05      6.95695 
         900      18.8178  4.67526e-05 -6.23153e-05      6.95695 
         900      18.9511  4.75275e-05 -6.10024e-05      6.95695 
         900      19.0847  4.83105e-05   -5.971e-05      6.95695 
         900      19.2189   4.9105e-05 -5.84341e-05      6.95694 
         900      19.3535  4.99119e-05 -5.71749e-05      6.95694 
         900      19.4886  5.07347e-05  -5.5928e-05      6.95694 
         900      19.6242  5.14871e-05  -5.4695e-05      6.95694 
         900      19.7602   5.2183e-05 -5.34994e-05      6.95694 
         900      19.8968     5.29e-05 -5.23466e-05      6.95693 
         900      20.0337  5.36348e-05 -5.12406e-05      6.95693 
         900      20.1712  5.43868e-05 -5.01808e-05      6.95693 
         900      20.3091  5.48478e-05 -4.89903e-05      6.95693 
         900      20.4475  5.53405e-05 -4.78226e-05      6.95693 
         900      20.5864  5.58794e-05 -4.66903e-05      6.95692 
         900      20.7257  5.64524e-05  -4.5592e-05      6.95692 
         900      20.8655  5.70386e-05 -4.45577e-05      6.95692 
         900      21.0058  5.75995e-05 -4.36514e-05      6.95692 
         900      21.1465   5.8167e-05 -4.27555e-05      6.95692 
         900      21.2877  5.87384e-05 -4.18714e-05      6.95691 
         900      21.4294  5.93129e-05  -4.0998e-05      6.95691 
         900      21.5716  5.98884e-05  -4.0136e-05      6.95691 
         900      21.7142  6.04627e-05 -3.92865e-05      6.95691 
         900      21.8573  6.10352e-05 -3.84484e-05      6.95691 
         900      22.0008  6.16034e-05 -3.76234e-05       6.9569 
         900      22.1449  6.21667e-05 -3.68105e-05       6.9569 
         900      22.2893  6.27229e-05 -3.60113e-05       6.9569 
         900      22.4344  6.32716e-05 -3.52249e-05       6.9569 
         900      22.5797  6.38108e-05 -3.44529e-05       6.9569 
         900      22.7257  6.43404e-05 -3.36944e-05      6.95689 
         900      22.8721   6.4859e-05 -3.29503e-05      6.95689 
         900      23.0189  6.53657e-05 -3.22215e-05      6.95689 
         900      23.1663  6.58605e-05 -3.15071e-05      6.95689 
         900       23.314  6.63425e-05 -3.08084e-05      6.95689 
         900      23.4623  6.68121e-05 -3.01244e-05      6.95688 
         900       23.611  6.72685e-05 -2.94564e-05      6.95688 
         900      23.7602  6.77125e-05 -2.88033e-05      6.95688 
         900        23.91  6.81442e-05 -2.81656e-05      6.95688 
         900        24.06  6.85636e-05 -2.75438e-05      6.95687 
         900      24.2107  6.89719e-05 -2.69367e-05      6.95687 
         900      24.3617  6.93694e-05 -2.63451e-05      6.95687 
         900      24.5133  6.97574e-05 -2.57678e-05      6.95687 
         900      24.6653  7.01364e-05 -2.52054e-05      6.95686 
         900      24.8178  7.05082e-05 -2.46565e-05      6.95686 
         900      24.9708  7.08735e-05 -2.41213e-05      6.95686 
         900      25.1242  7.12334e-05 -2.35996e-05      6.95686 
         900      25.2781  7.15898e-05 -2.30899e-05      6.95686 
         900      25.4324  7.19434e-05 -2.25927e-05      6.95685 
         900      25.5873   7.2296e-05 -2.21063e-05      6.95685 
         900      25.7426  7.26482e-05  -2.1631e-05      6.95685 
         900      25.8984  7.30018e-05 -2.11654e-05      6.95685 
         900      26.0546  7.33571e-05 -2.07095e-05      6.95684 
         900      26.2114  7.37155e-05  -2.0262e-05      6.95684 
         900      26.3686  7.40772e-05 -1.98226e-05      6.95684 
         900      26.5262   7.4442e-05 -1.93911e-05      6.95684 
         900      26.6844  7.48104e-05 -1.89663e-05      6.95683 
         900      26.8429  7.51811e-05 -1.85486e-05      6.95683 
         900       27.002  7.55536e-05 -1.81371e-05      6.95683 
         900      27.1615  7.59256e-05 -1.77321e-05      6.95683 
         900      27.3216  7.62951e-05 -1.73333e-05      6.95682 
         900      27.4821  7.66587e-05  -1.6941e-05      6.95682 
         900       27.643  7.70119e-05 -1.65563e-05      6.95682 
         900      27.8044  7.73504e-05 -1.61792e-05      6.95682 
         900      27.9663  7.76673e-05 -1.58115e-05      6.95681 
         900      28.1287  7.79559e-05  -1.5454e-05      6.95681 
         900      28.2914  7.82069e-05 -1.51092e-05      6.95681 
         900      28.4548  7.84105e-05 -1.47788e-05       6.9568 
         900      28.6185  7.85316e-05 -1.45129e-05       6.9568 
         900      28.7828  7.86736e-05 -1.42744e-05       6.9568 
         900      28.9475  7.88623e-05  -1.4032e-05       6.9568 
         900      29.1126  7.90859e-05 -1.37873e-05      6.95679 
         900      29.2784  7.93343e-05 -1.35411e-05      6.95679 
         900      29.4444  7.95986e-05 -1.32952e-05      6.95679 
         900       29.611  7.98717e-05 -1.30502e-05      6.95678 
         900       29.778  8.01471e-05 -1.28076e-05      6.95678 
         900      29.9456  8.04203e-05 -1.25677e-05      6.95678 
         900      30.1137  8.06872e-05 -1.23318e-05      6.95678 
         900      30.2821  8.09446e-05 -1.21005e-05      6.95677 
         900      30.4511   8.1191e-05 -1.18744e-05      6.95677 
         900      30.6204  8.14246e-05 -1.16541e-05      6.95677 
         900      30.7903  8.16451e-05   -1.144e-05      6.95676 
         900      30.9606  8.18523e-05 -1.12327e-05      6.95676 
         900      31.1315  8.20469e-05 -1.10323e-05      6.95676 
         900      31.3028  8.22295e-05 -1.08393e-05      6.95676 
         900      31.4745  8.24013e-05 -1.06539e-05      6.95675 
         900      31.6468  8.25639e-05 -1.04761e-05      6.95675 
         900      31.8194  8.27187e-05 -1.03062e-05      6.95675 
         900      31.9926  8.28675e-05 -1.01441e-05      6.95674 
         900      32.1662  8.30117e-05 -9.98994e-06      6.95674 
         900      32.3404  8.31532e-05  -9.8435e-06      6.95674 
         900      32.5149  8.32934e-05 -9.70489e-06      6.95673 
         900        32.69  8.34336e-05 -9.57373e-06      6.95673 
         900      32.8655  8.35751e-05 -9.44993e-06      6.95673 
         900      33.0414  8.37183e-05 -9.33335e-06      6.95672 
         900       33.218  8.38643e-05 -9.22348e-06      6.95672 
         900      33.3948  8.40129e-05 -9.12014e-06      6.95672 
         900      33.5723  8.41642e-05 -9.02276e-06      6.95671 
         900        33.75  8.43176e-05 -8.93102e-06      6.95671 
         900      33.9284  8.44723e-05 -8.84425e-06      6.95671 
         900      34.1073  8.46272e-05 -8.76191e-06       6.9567 
         900      34.2865  8.47803e-05 -8.68342e-06       6.9567 
         900      34.4663    8.493e-05 -8.60789e-06       6.9567 
         900      34.6465   8.5074e-05 -8.53462e-06      6.95669 
         900      34.8272  8.52098e-05 -8.46258e-06      6.95669 
         900      35.0083  8.53346e-05 -8.39086e-06      6.95669 
         900        35.19  8.54457e-05 -8.31825e-06      6.95668 
         900      35.3721  8.55401e-05 -8.24354e-06      6.95668 
         900      35.5546   8.5615e-05 -8.16544e-06      6.95667 
         900      35.7377  8.56676e-05 -8.08233e-06      6.95667 
         900      35.9211  8.56954e-05 -7.99267e-06      6.95667 
         900      36.1052  8.56963e-05  -7.8945e-06      6.95666 
         900      36.2895  8.56689e-05 -7.78597e-06      6.95666 
         900      36.4745  8.56122e-05 -7.66471e-06      6.95666 
         900      36.6598  8.55263e-05 -7.52848e-06      6.95665 
         900      36.8457  8.56686e-05  -7.4261e-06      6.95665 
         900      37.0321  8.58459e-05 -7.33451e-06      6.95664 
         900      37.2188  8.60154e-05 -7.24741e-06      6.95664 
         900      37.4062   8.6182e-05 -7.16651e-06      6.95664 
         900      37.5938  8.63516e-05 -7.09404e-06      6.95663 
         900      37.7821  8.65317e-05 -7.03223e-06      6.95663 
         900      37.9707  8.67312e-05 -6.98383e-06      6.95662 
         900      38.1599  8.69609e-05 -6.95173e-06      6.95662 
         900      38.3496  8.72332e-05 -6.93925e-06      6.95662 
         900      38.5396  8.74503e-05 -6.87677e-06      6.95661 
         900      38.7302  8.75386e-05 -6.74656e-06      6.95661 
         900      38.9211  8.76036e-05 -6.62504e-06       6.9566 
         900      39.1127  8.76528e-05  -6.5113e-06       6.9566 
         900      39.3046  8.76923e-05  -6.4052e-06      6.95659 
         900      39.4971  8.77274e-05 -6.30664e-06      6.95659 
         900      39.6899  8.77623e-05 -6.21616e-06      6.95659 
         900      39.8833  8.78007e-05 -6.13429e-06      6.95658 
         900      40.0772  8.78453e-05 -6.06206e-06      6.95658 
         900      40.2714   8.7898e-05  -6.0007e-06      6.95657 
         900      40.4663  8.78876e-05 -5.96359e-06      6.95657 
         900      40.6615  8.77888e-05 -5.94896e-06      6.95656 
         900      40.8573  8.77258e-05 -5.93252e-06      6.95656 
         900      41.0534  8.76932e-05 -5.91469e-06      6.95656 
         900      41.2501   8.7686e-05 -5.89577e-06      6.95655 
         900      41.4473  8.76997e-05 -5.87602e-06      6.95655 
         900      41.6448  8.77303e-05 -5.85564e-06      6.95654 
         900      41.8429  8.77741e-05 -5.83475e-06      6.95654 
         900      42.0414  8.78278e-05  -5.8135e-06      6.95653 
         900      42.2405  8.78885e-05 -5.79194e-06      6.95653 
         900      42.4399  8.79538e-05 -5.77017e-06      6.95652 
         900      42.6399  8.80214e-05 -5.74823e-06      6.95652 
         900      42.8404  8.80895e-05 -5.72619e-06      6.95651 
         900      43.0412  8.81564e-05 -5.70413e-06      6.95651 
         900      43.2426   8.8221e-05 -5.68209e-06       6.9565 
         900      43.4444   8.8282e-05 -5.66021e-06       6.9565 
         900      43.6467  8.83388e-05 -5.63855e-06      6.95649 
         900      43.8494  8.83907e-05 -5.61725e-06      6.95649 
         900      44.0527  8.84374e-05 -5.59644e-06      6.95648 
         900      44.2563  8.84786e-05 -5.57628e-06      6.95648 
         900      44.4606  8.85143e-05 -5.55691e-06      6.95647 
         900      44.6653  8.85447e-05 -5.53851e-06      6.95647 
         900      44.8704  8.85699e-05 -5.52126e-06      6.95646 
         900       45.076  8.85904e-05  -5.5053e-06      6.95646 
         900       45.282  8.86066e-05 -5.49077e-06      6.95645 
         900      45.4886  8.86191e-05 -5.47777e-06      6.95645 
         900      45.6955  8.86284e-05 -5.46637e-06      6.95644 
         900       45.903  8.86354e-05 -5.45656e-06      6.95644 
         900      46.1111  8.86407e-05 -5.44825e-06      6.95643 
         900      46.3194  8.86451e-05 -5.44127e-06      6.95642 
         900      46.5283  8.86495e-05 -5.43531e-06      6.95642 
         900      46.7376  8.86547e-05 -5.42991e-06      6.95641 
         900      46.9475  8.86615e-05 -5.42442e-06      6.95641 
         900      47.1577  8.86708e-05 -5.41802e-06       6.9564 
         900      47.3685  8.86835e-05 -5.40962e-06       6.9564 
         900      47.5798  8.87004e-05 -5.39785e-06      6.95639 
         900      47.7914  8.87224e-05 -5.38105e-06      6.95639 
         900      48.0037  8.87504e-05 -5.35718e-06      6.95638 