Variables = x, y, u, v, p

Zone, I=800, F=POINT
         -70            0           -0           -0     -112.803 
         -70     0.000234 -4.15205e-05 -8.15904e-09     -112.803 
         -70     0.000939 -0.000156643 -3.21126e-08     -112.803 
         -70     0.002113 -0.000317799 -7.00551e-08     -112.803 
         -70     0.003759 -0.000488183 -1.19638e-07     -112.803 
         -70     0.005872 -0.000630403 -1.78134e-07     -112.803 
         -70     0.008457 -0.000718393 -2.43546e-07     -112.803 
         -70      0.01151 -0.000743333 -3.14507e-07     -112.803 
         -70     0.015036  -0.00071641 -3.90903e-07     -112.803 
         -70     0.019031 -0.000664149 -4.73262e-07     -112.803 
         -70     0.023493 -0.000618221 -5.62506e-07     -112.803 
         -70     0.028429 -0.000602172 -6.59392e-07     -112.803 
         -70     0.033831 -0.000620443 -7.63416e-07     -112.803 
         -70     0.039706 -0.000654931 -8.73159e-07     -112.803 
         -70     0.046047 -0.000674324 -9.86109e-07     -112.803 
         -70     0.052863 -0.000656657 -1.10027e-06     -112.803 
         -70      0.06015 -0.000615934 -1.21497e-06     -112.803 
         -70       0.0679 -0.000607633 -1.33139e-06     -112.803 
         -70     0.076126  -0.00066108  -1.4498e-06     -112.803 
         -70     0.084816 -0.000611396 -1.56125e-06     -112.803 
         -70     0.093982 -0.000627217 -1.66974e-06     -112.803 
         -70     0.103611 -0.000630757 -1.76749e-06     -112.803 
         -70     0.113718 -0.000628458 -1.85609e-06     -112.803 
         -70     0.124286 -0.000624915  -1.9338e-06     -112.803 
         -70     0.135333 -0.000622679 -1.99642e-06     -112.803 
         -70      0.14685 -0.000622408 -2.03752e-06     -112.803 
         -70     0.158827 -0.000623363 -2.05006e-06     -112.803 
         -70     0.171284 -0.000624202  -2.0278e-06     -112.803 
         -70     0.184201 -0.000623921 -1.96673e-06     -112.803 
         -70     0.197599 -0.000622634 -1.86562e-06     -112.802 
         -70     0.211455 -0.000621779 -1.72545e-06     -112.802 
         -70     0.225792 -0.000623056 -1.54492e-06     -112.802 
         -70       0.2406 -0.000625222  -1.3126e-06     -112.802 
         -70     0.255865   -0.0006235 -1.02994e-06     -112.802 
         -70     0.271613  -0.00062456 -7.53689e-07     -112.802 
         -70     0.287818 -0.000625286  -4.7971e-07     -112.802 
         -70     0.304506 -0.000625777 -2.40048e-07     -112.802 
         -70      0.32165 -0.000626104 -6.28199e-08     -112.802 
         -70     0.339278 -0.000626311  3.12638e-08     -112.802 
         -70     0.357377 -0.000626419  2.97213e-08     -112.802 
         -70      0.37593 -0.000626432 -6.92452e-08     -112.802 
         -70     0.394968 -0.000626343 -2.56118e-07     -112.802 
         -70     0.414461 -0.000626139 -5.08873e-07     -112.802 
         -70      0.43444 -0.000625816 -7.94612e-07     -112.802 
         -70     0.454872 -0.000625382 -1.07001e-06     -112.802 
         -70     0.475791 -0.000624862 -1.28687e-06     -112.801 
         -70     0.497163 -0.000624302 -1.39663e-06     -112.801 
         -70     0.519021 -0.000623763 -1.36094e-06     -112.801 
         -70      0.54135 -0.000623305 -1.16381e-06     -112.801 
         -70     0.564131 -0.000622959 -8.30036e-07     -112.801 
         -70       0.5874 -0.000622682 -4.47177e-07     -112.801 
         -70     0.611121 -0.000622296 -2.26892e-07     -112.801 
         -70      0.63533 -0.000621894  -4.0023e-07       -112.8 
         -70      0.65999 -0.000621571 -5.01528e-07       -112.8 
         -70     0.685139 -0.000621338 -5.47422e-07       -112.8 
         -70     0.710759 -0.000621204 -5.52447e-07       -112.8 
         -70     0.736828 -0.000621179 -5.29347e-07       -112.8 
         -70     0.763387 -0.000621267 -4.88864e-07     -112.799 
         -70     0.790396 -0.000621473 -4.39944e-07     -112.799 
         -70     0.817896 -0.000621802 -3.89634e-07     -112.799 
         -70     0.845843 -0.000622252 -3.43531e-07     -112.799 
         -70     0.874283 -0.000622827 -3.05703e-07     -112.798 
         -70      0.90317 -0.000623523 -2.79257e-07     -112.798 
         -70     0.932551 -0.000624339  -2.6641e-07     -112.798 
         -70     0.962401 -0.000625271  -2.6901e-07     -112.798 
         -70     0.992697 -0.000626315 -2.88763e-07     -112.797 
         -70      1.02349 -0.000627468 -3.27683e-07     -112.797 
         -70      1.05472 -0.000628721 -3.88246e-07     -112.797 
         -70      1.08645 -0.000630072 -4.73901e-07     -112.796 
         -70      1.11863  -0.00063151 -5.88805e-07     -112.796 
         -70       1.1513  -0.00063303 -7.38392e-07     -112.795 
         -70      1.18444 -0.000634623 -9.28602e-07     -112.795 
         -70      1.21802 -0.000636277 -1.16558e-06     -112.795 
         -70      1.25211 -0.000637981 -1.45566e-06     -112.794 
         -70      1.28663 -0.000639716 -1.80278e-06     -112.794 
         -70      1.32165 -0.000641464 -2.20884e-06     -112.793 
         -70      1.35712 -0.000643196 -2.66923e-06     -112.793 
         -70      1.39308 -0.000644877 -3.17277e-06     -112.792 
         -70      1.42951  -0.00064646 -3.69557e-06     -112.791 
         -70      1.46638 -0.000647882 -4.19765e-06     -112.791 
         -70      1.50375 -0.000649066 -4.61875e-06      -112.79 
         -70      1.54156 -0.000649957 -5.11334e-06      -112.79 
         -70      1.57987 -0.000650645  -5.7017e-06     -112.789 
         -70      1.61863 -0.000651188 -6.37263e-06     -112.788 
         -70      1.65788 -0.000651637 -7.12354e-06     -112.788 
         -70      1.69757 -0.000652035 -7.94812e-06     -112.787 
         -70      1.73776  -0.00065242 -8.84137e-06     -112.786 
         -70      1.77842  -0.00065282 -9.79514e-06     -112.785 
         -70      1.81952 -0.000653258    -1.08e-05     -112.785 
         -70      1.86113 -0.000653751 -1.18485e-05     -112.784 
         -70      1.90316 -0.000654308 -1.29288e-05     -112.783 
         -70      1.94571 -0.000654933 -1.40326e-05     -112.782 
         -70      1.98869 -0.000655623 -1.51476e-05     -112.781 
         -70      2.03217 -0.000656374 -1.62655e-05      -112.78 
         -70      2.07612 -0.000657173 -1.73755e-05     -112.779 
         -70      2.12051 -0.000658004 -1.84677e-05     -112.778 
         -70       2.1654 -0.000658852 -1.95355e-05     -112.777 
         -70      2.21073 -0.000659695 -2.05704e-05     -112.776 
         -70      2.25656 -0.000660513 -2.15685e-05     -112.775 
         -70      2.30283 -0.000661283 -2.25246e-05     -112.774 
         -70       2.3496 -0.000661986 -2.34385e-05     -112.773 
         -70      2.39685 -0.000662602 -2.43101e-05     -112.771 
         -70      2.44452 -0.000663113 -2.51415e-05      -112.77 
         -70      2.49271 -0.000663505 -2.59395e-05     -112.769 
         -70      2.54132 -0.000663769 -2.67109e-05     -112.767 
         -70      2.59044   -0.0006639 -2.74676e-05     -112.766 
         -70         2.64 -0.000663898 -2.82215e-05     -112.765 
         -70      2.69006 -0.000663768 -2.89894e-05     -112.763 
         -70      2.74056 -0.000663524 -2.97877e-05     -112.762 
         -70      2.79156 -0.000663183 -3.06371e-05      -112.76 
         -70      2.84304  -0.00066277 -3.15575e-05     -112.759 
         -70      2.89494 -0.000662315 -3.25693e-05     -112.757 
         -70      2.94735 -0.000661851 -3.36948e-05     -112.755 
         -70       3.0002 -0.000661417 -3.49515e-05     -112.754 
         -70      3.05355  -0.00066105 -3.63581e-05     -112.752 
         -70      3.10733 -0.000660789 -3.79248e-05      -112.75 
         -70      3.16163 -0.000660667 -3.96605e-05     -112.748 
         -70      3.21639 -0.000660711 -4.15622e-05     -112.746 
         -70      3.27158 -0.000660934 -4.36158e-05     -112.744 
         -70      3.32729 -0.000661335  -4.5799e-05     -112.742 
         -70      3.38342 -0.000661886 -4.80659e-05      -112.74 
         -70      3.44007 -0.000662529 -5.03575e-05     -112.738 
         -70      3.49714 -0.000663167 -5.25833e-05     -112.736 
         -70      3.55472 -0.000663655 -5.46308e-05     -112.734 
         -70      3.61273 -0.000663785 -5.63468e-05     -112.732 
         -70      3.67125 -0.000663278 -5.75437e-05     -112.729 
         -70      3.73025 -0.000661766 -5.79831e-05     -112.727 
         -70      3.78967 -0.000660803 -6.02704e-05     -112.725 
         -70      3.84961  -0.00066045 -6.29996e-05     -112.722 
         -70      3.90996 -0.000659922  -6.5021e-05      -112.72 
         -70      3.97084 -0.000659179  -6.6595e-05     -112.717 
         -70      4.03214 -0.000658198 -6.79309e-05     -112.715 
         -70      4.09395 -0.000656955 -6.91984e-05     -112.712 
         -70      4.15624 -0.000656043 -7.08976e-05     -112.709 
         -70      4.21895 -0.000655536 -7.29092e-05     -112.706 
         -70      4.28217  -0.00065507  -7.4952e-05     -112.703 
         -70      4.34582 -0.000654627 -7.70113e-05       -112.7 
         -70      4.40998 -0.000654189 -7.90811e-05     -112.697 
         -70      4.47457 -0.000653739 -8.11498e-05     -112.694 
         -70      4.53968 -0.000653262 -8.32124e-05     -112.691 
         -70      4.60525 -0.000652747 -8.52578e-05     -112.688 
         -70      4.67125 -0.000652188 -8.72729e-05     -112.685 
         -70      4.73777 -0.000651583 -8.92474e-05     -112.681 
         -70       4.8047 -0.000650936 -9.11621e-05     -112.678 
         -70      4.87216 -0.000650255 -9.30017e-05     -112.675 
         -70      4.94003 -0.000649555 -9.47437e-05     -112.671 
         -70      5.00843 -0.000648853 -9.63709e-05     -112.667 
         -70      5.07724  -0.00064817 -9.78624e-05     -112.664 
         -70      5.14658 -0.000647527 -9.92063e-05      -112.66 
         -70      5.21639 -0.000646942 -0.000100394     -112.656 
         -70      5.28661 -0.000646428 -0.000101429     -112.652 
         -70      5.35736 -0.000645989 -0.000102332     -112.648 
         -70      5.42852 -0.000645613 -0.000103145     -112.644 
         -70      5.50021 -0.000645266 -0.000103938      -112.64 
         -70      5.57231 -0.000644886 -0.000104818     -112.636 
         -70      5.64493 -0.000644373 -0.000105938     -112.632 
         -70      5.71803 -0.000643582  -0.00010751     -112.627 
         -70      5.79154 -0.000642308 -0.000109811     -112.623 
         -70      5.86558 -0.000641386 -0.000111303     -112.618 
         -70      5.94003 -0.000641186 -0.000111339     -112.614 
         -70      6.01501 -0.000640651 -0.000111892     -112.609 
         -70       6.0904  -0.00063991 -0.000112861     -112.604 
         -70      6.16632 -0.000639048  -0.00011416     -112.599 
         -70      6.24271 -0.000638119 -0.000115717     -112.595 
         -70       6.3195 -0.000637157 -0.000117469      -112.59 
         -70      6.39683 -0.000636174 -0.000119372     -112.584 
         -70      6.47457 -0.000635181 -0.000121386     -112.579 
         -70      6.55284 -0.000634181 -0.000123486     -112.574 
         -70      6.63152 -0.000633184 -0.000125648     -112.569 
         -70      6.71073 -0.000632202 -0.000127861     -112.563 
         -70      6.79034 -0.000631257  -0.00013011     -112.558 
         -70      6.87049 -0.000630373 -0.000132385     -112.552 
         -70      6.95111 -0.000629579 -0.000134671     -112.546 
         -70      7.03214 -0.000628903 -0.000136941      -112.54 
         -70       7.1137 -0.000628359 -0.000139168     -112.535 
         -70      7.19566 -0.000627938 -0.000141298     -112.528 
         -70      7.27816 -0.000627595 -0.000143266     -112.522 
         -70      7.36106 -0.000627225 -0.000144973     -112.516 
         -70      7.44451 -0.000626643 -0.000146293      -112.51 
         -70      7.52842 -0.000625556 -0.000147058     -112.504 
         -70      7.61273 -0.000624177 -0.000150207     -112.497 
         -70      7.69758  -0.00062285 -0.000153288      -112.49 
         -70      7.78283 -0.000621664 -0.000155314     -112.484 
         -70      7.86862 -0.000620767 -0.000155232     -112.477 
         -70      7.95481 -0.000620623 -0.000155061      -112.47 
         -70      8.04155 -0.000620182 -0.000158572     -112.463 
         -70      8.12868 -0.000618801 -0.000160461     -112.456 
         -70      8.21635 -0.000617017 -0.000161366     -112.449 
         -70      8.30449 -0.000615204 -0.000161748     -112.442 
         -70      8.39303 -0.000613597 -0.000161921     -112.434 
         -70      8.48211 -0.000612331 -0.000162141     -112.427 
         -70      8.57159 -0.000611298  -0.00016359     -112.419 
         -70      8.66161 -0.000609956 -0.000165131     -112.411 
         -70      8.75203 -0.000608399 -0.000166801     -112.404 
         -70      8.84299 -0.000606728  -0.00016861     -112.396 
         -70      8.93443 -0.000605049 -0.000170534     -112.388 
         -70      9.02626 -0.000603453 -0.000172528     -112.379 
         -70      9.11863 -0.000602003 -0.000174539     -112.371 
         -70      9.21139 -0.000600737 -0.000176503     -112.363 
         -70      9.30471 -0.000599654 -0.000178366     -112.354 
         -70      9.39841 -0.000598717 -0.000180077     -112.346 
         -70      9.49267 -0.000597852 -0.000181612     -112.337 
         -70      9.58739 -0.000596955 -0.000182968     -112.328 
         -70      9.68251 -0.000595904  -0.00018418     -112.319 
         -70      9.77817 -0.000594566  -0.00018533      -112.31 
         -70      9.87422 -0.000592826 -0.000186544     -112.301 
         -70      9.97083 -0.000590598 -0.000188017     -112.292 
         -70      10.0678 -0.000587875 -0.000190004     -112.283 
         -70      10.1654 -0.000585804 -0.000192048     -112.273 
         -70      10.2633 -0.000585456 -0.000192868     -112.264 
         -70      10.3618 -0.000584845 -0.000193685     -112.254 
         -70      10.4607  -0.00058405 -0.000194563     -112.244 
         -70      10.5601  -0.00058313 -0.000195552     -112.234 
         -70        10.66 -0.000582128   -0.0001967     -112.224 
         -70      10.7603 -0.000581066 -0.000198046     -112.214 
         -70      10.8611 -0.000579941 -0.000199644     -112.204 
         -70      10.9623 -0.000578725 -0.000201558     -112.193 
         -70      11.0641 -0.000577362 -0.000203883     -112.183 
         -70      11.1663 -0.000575865 -0.000205143     -112.172 
         -70       11.269 -0.000574348 -0.000205449     -112.161 
         -70      11.3721 -0.000572754 -0.000206497      -112.15 
         -70      11.4757 -0.000571099 -0.000208038     -112.139 
         -70      11.5798 -0.000569401  -0.00020986     -112.128 
         -70      11.6844 -0.000567685 -0.000211789     -112.117 
         -70      11.7894 -0.000565975 -0.000213697     -112.106 
         -70       11.895 -0.000564297  -0.00021549     -112.094 
         -70      12.0009 -0.000562675 -0.000217115     -112.083 
         -70      12.1073 -0.000561126 -0.000218562     -112.071 
         -70      12.2142 -0.000559665 -0.000219845     -112.059 
         -70      12.3216 -0.000558294 -0.000221008     -112.047 
         -70      12.4294 -0.000557008 -0.000222111     -112.035 
         -70      12.5378 -0.000555789 -0.000223221     -112.023 
         -70      12.6465 -0.000554607 -0.000224397     -112.011 
         -70      12.7558 -0.000553415 -0.000225678     -111.998 
         -70      12.8656 -0.000552152 -0.000227062     -111.986 
         -70      12.9757 -0.000550738 -0.000228485     -111.973 
         -70      13.0864 -0.000549073   -0.0002298      -111.96 
         -70      13.1975 -0.000547041 -0.000230747     -111.947 
         -70      13.3092 -0.000544501 -0.000230923     -111.934 
         -70      13.4212 -0.000541894 -0.000231228     -111.921 
         -70      13.5338 -0.000539915 -0.000232267     -111.908 
         -70      13.6468 -0.000538239 -0.000233235     -111.894 
         -70      13.7603 -0.000536767 -0.000234181     -111.881 
         -70      13.8743 -0.000535416  -0.00023514     -111.867 
         -70      13.9886 -0.000534122 -0.000236129     -111.853 
         -70      14.1036  -0.00053283 -0.000237156     -111.839 
         -70      14.2189 -0.000531504 -0.000238216     -111.825 
         -70      14.3348 -0.000530115 -0.000239303     -111.811 
         -70       14.451 -0.000528646 -0.000240402     -111.797 
         -70      14.5678 -0.000527086 -0.000241501     -111.782 
         -70      14.6851 -0.000525436 -0.000242584     -111.768 
         -70      14.8028 -0.000523703 -0.000243642     -111.753 
         -70       14.921 -0.000521893 -0.000244667     -111.739 
         -70      15.0396 -0.000520022 -0.000245656     -111.724 
         -70      15.1588 -0.000518104 -0.000246612     -111.709 
         -70      15.2783 -0.000516158 -0.000247545     -111.694 
         -70      15.3984 -0.000514199  -0.00024847     -111.678 
         -70       15.519 -0.000512242 -0.000249407     -111.663 
         -70        15.64 -0.000510304 -0.000250377     -111.647 
         -70      15.7615 -0.000508389  -0.00025141     -111.632 
         -70      15.8834 -0.000506507  -0.00025253     -111.616 
         -70      16.0058 -0.000504654  -0.00025376       -111.6 
         -70      16.1286 -0.000502826 -0.000255116     -111.584 
         -70       16.252 -0.000501008 -0.000256604     -111.568 
         -70      16.3759 -0.000499181 -0.000258211     -111.552 
         -70      16.5002 -0.000497318 -0.000259901     -111.536 
         -70       16.625 -0.000495378 -0.000261614     -111.519 
         -70      16.7501  -0.00049332 -0.000263243     -111.503 
         -70      16.8759 -0.000491087 -0.000264645     -111.486 
         -70       17.002 -0.000488619 -0.000265611     -111.469 
         -70      17.1287 -0.000485843  -0.00026587     -111.452 
         -70      17.2557 -0.000484951 -0.000266232     -111.435 
         -70      17.3834 -0.000484785 -0.000265862     -111.418 
         -70      17.5115   -0.0004845 -0.000264365     -111.401 
         -70      17.6399 -0.000483375 -0.000261422     -111.383 
         -70       17.769 -0.000481961   -0.0002638     -111.366 
         -70      17.8984 -0.000480221 -0.000265894     -111.348 
         -70      18.0284 -0.000478243 -0.000267372     -111.331 
         -70      18.1587 -0.000476174 -0.000268489     -111.313 
         -70      18.2896 -0.000474127 -0.000269445     -111.295 
         -70       18.421 -0.000472101  -0.00027054     -111.277 
         -70      18.5528 -0.000469754 -0.000272091     -111.259 
         -70      18.6851 -0.000467321 -0.000273568      -111.24 
         -70      18.8178 -0.000464858 -0.000274939     -111.222 
         -70      18.9511 -0.000462402  -0.00027619     -111.203 
         -70      19.0847 -0.000459988  -0.00027731     -111.185 
         -70      19.2189 -0.000457635 -0.000278299     -111.166 
         -70      19.3535 -0.000455361 -0.000279165     -111.147 
         -70      19.4886 -0.000453171 -0.000279918     -111.128 
         -70      19.6242 -0.000451069 -0.000280574     -111.109 
         -70      19.7602 -0.000449052  -0.00028115      -111.09 
         -70      19.8968 -0.000447113 -0.000281665     -111.071 
         -70      20.0337 -0.000445243 -0.000282139     -111.051 
         -70      20.1712  -0.00044343 -0.000282589     -111.032 
         -70      20.3091 -0.000441663 -0.000283031     -111.012 
         -70      20.4475 -0.000439926  -0.00028348     -110.993 
         -70      20.5864 -0.000438207 -0.000283945     -110.973 
         -70      20.7257 -0.000436495 -0.000284434     -110.953 
         -70      20.8655 -0.000434777 -0.000284949     -110.933 
         -70      21.0058 -0.000433045  -0.00028549     -110.913 
         -70      21.1465  -0.00043129 -0.000286051     -110.893 
         -70      21.2877 -0.000429507 -0.000286624     -110.872 
         -70      21.4294 -0.000427692 -0.000287197     -110.852 
         -70      21.5716 -0.000425845 -0.000287755     -110.831 
         -70      21.7142 -0.000423968 -0.000288282     -110.811 
         -70      21.8573 -0.000422061 -0.000288763      -110.79 
         -70      22.0008 -0.000420131 -0.000289183     -110.769 
         -70      22.1449  -0.00041818  -0.00028953     -110.748 
         -70      22.2893 -0.000416216 -0.000289797     -110.727 
         -70      22.4344  -0.00041424 -0.000289988     -110.706 
         -70      22.5797 -0.000412256 -0.000290112     -110.685 
         -70      22.7257  -0.00041026 -0.000290197     -110.664 
         -70      22.8721 -0.000408415 -0.000290729     -110.643 
         -70      23.0189 -0.000406808 -0.000291488     -110.621 
         -70      23.1663 -0.000405232 -0.000291956       -110.6 
         -70       23.314 -0.000403646 -0.000292213     -110.578 
         -70      23.4623 -0.000402014 -0.000292327     -110.556 
         -70       23.611 -0.000400318 -0.000292361     -110.534 
         -70      23.7602 -0.000398545 -0.000292365     -110.513 
         -70        23.91 -0.000396695 -0.000292383     -110.491 
         -70        24.06 -0.000394775 -0.000292448     -110.468 
         -70      24.2107 -0.000392794 -0.000292585     -110.446 
         -70      24.3617 -0.000390772 -0.000292811     -110.424 
         -70      24.5133 -0.000388727 -0.000293131     -110.402 
         -70      24.6653 -0.000386687 -0.000293545     -110.379 
         -70      24.8178 -0.000384673 -0.000294043     -110.357 
         -70      24.9708 -0.000382711 -0.000294607     -110.334 
         -70      25.1242 -0.000380827 -0.000295212     -110.312 
         -70      25.2781 -0.000379039 -0.000295827     -110.289 
         -70      25.4324 -0.000377367 -0.000296414     -110.266 
         -70      25.5873  -0.00037582  -0.00029693     -110.243 
         -70      25.7426 -0.000374407 -0.000297325      -110.22 
         -70      25.8984 -0.000373124  -0.00029755     -110.197 
         -70      26.0546 -0.000371963 -0.000297549     -110.174 
         -70      26.2114 -0.000370901 -0.000297267     -110.151 
         -70      26.3686 -0.000367117 -0.000298892     -110.128 
         -70      26.5262 -0.000363676 -0.000300164     -110.104 
         -70      26.6844 -0.000360878 -0.000300896     -110.081 
         -70      26.8429 -0.000358597 -0.000301223     -110.058 
         -70       27.002 -0.000356709 -0.000301261     -110.034 
         -70      27.1615 -0.000355112 -0.000301103      -110.01 
         -70      27.3216  -0.00035371 -0.000300824     -109.987 
         -70      27.4821 -0.000352422 -0.000300481     -109.963 
         -70       27.643 -0.000351182 -0.000300112     -109.939 
         -70      27.8044  -0.00034993 -0.000299741     -109.915 
         -70      27.9663 -0.000348623  -0.00029938     -109.891 
         -70      28.1287 -0.000347227 -0.000299029     -109.867 
         -70      28.2914 -0.000345722 -0.000298681     -109.843 
         -70      28.4548 -0.000344092 -0.000298322     -109.819 
         -70      28.6185  -0.00034234 -0.000297942     -109.795 
         -70      28.7828  -0.00034047 -0.000297526     -109.771 
         -70      28.9475 -0.000338501 -0.000297071     -109.746 
         -70      29.1126  -0.00033646 -0.000296582     -109.722 
         -70      29.2784 -0.000334375 -0.000296079     -109.698 
         -70      29.4444 -0.000332289 -0.000295605     -109.673 
         -70       29.611 -0.000330243 -0.000295227     -109.649 
         -70       29.778 -0.000327929 -0.000294775     -109.624 
         -70      29.9456 -0.000324751 -0.000293608     -109.599 
         -70      30.1137  -0.00032226 -0.000292808     -109.575 
         -70      30.2821  -0.00032029 -0.000292338      -109.55 
         -70      30.4511 -0.000318698 -0.000292143     -109.525 
         -70      30.6204 -0.000317371  -0.00029216       -109.5 
         -70      30.7903 -0.000316209  -0.00029232     -109.475 
         -70      30.9606 -0.000315136 -0.000292552      -109.45 
         -70      31.1315 -0.000314085 -0.000292792     -109.425 
         -70      31.3028 -0.000313005 -0.000292981       -109.4 
         -70      31.4745 -0.000311856  -0.00029307     -109.375 
         -70      31.6468 -0.000310602 -0.000293023      -109.35 
         -70      31.8194 -0.000309221 -0.000292816     -109.325 
         -70      31.9926 -0.000307693 -0.000292442       -109.3 
         -70      32.1662 -0.000306007 -0.000291907     -109.274 
         -70      32.3404 -0.000304157 -0.000291231     -109.249 
         -70      32.5149 -0.000302147 -0.000290447     -109.224 
         -70        32.69 -0.000299985 -0.000289594     -109.198 
         -70      32.8655 -0.000297692  -0.00028872     -109.173 
         -70      33.0414 -0.000295301 -0.000287873     -109.147 
         -70       33.218 -0.000292857 -0.000287095     -109.122 
         -70      33.3948 -0.000290427 -0.000286418     -109.096 
         -70      33.5723 -0.000288095 -0.000285852     -109.071 
         -70        33.75 -0.000285979  -0.00028538     -109.045 
         -70      33.9284 -0.000284221 -0.000284944     -109.019 
         -70      34.1073 -0.000283008 -0.000284434     -108.994 
         -70      34.2865  -0.00028257 -0.000283675     -108.968 
         -70      34.4663 -0.000283191  -0.00028241     -108.942 
         -70      34.6465 -0.000285215 -0.000280289     -108.916 
         -70      34.8272 -0.000289063 -0.000276841     -108.891 
         -70      35.0083 -0.000285033  -0.00027936     -108.865 
         -70        35.19 -0.000281613 -0.000281852     -108.839 
         -70      35.3721 -0.000278009 -0.000282892     -108.813 
         -70      35.5546 -0.000275124 -0.000283509     -108.787 
         -70      35.7377 -0.000272761 -0.000283794     -108.761 
         -70      35.9211 -0.000270768 -0.000283818     -108.735 
         -70      36.1052 -0.000269022 -0.000283641     -108.709 
         -70      36.2895 -0.000267429 -0.000283312     -108.683 
         -70      36.4745 -0.000265921 -0.000282869     -108.657 
         -70      36.6598 -0.000264452 -0.000282341     -108.631 
         -70      36.8457 -0.000262992  -0.00028175     -108.605 
         -70      37.0321 -0.000261527 -0.000281114     -108.579 
         -70      37.2188 -0.000260054 -0.000280444     -108.553 
         -70      37.4062 -0.000258579 -0.000279749     -108.527 
         -70      37.5938 -0.000257113 -0.000279036       -108.5 
         -70      37.7821 -0.000255669  -0.00027831     -108.474 
         -70      37.9707 -0.000254264 -0.000277575     -108.448 
         -70      38.1599 -0.000252911 -0.000276835     -108.422 
         -70      38.3496 -0.000251623 -0.000276095     -108.395 
         -70      38.5396 -0.000250407 -0.000275361     -108.369 
         -70      38.7302 -0.000249263 -0.000274637     -108.343 
         -70      38.9211 -0.000248191 -0.000273933     -108.317 
         -70      39.1127 -0.000247179 -0.000273253      -108.29 
         -70      39.3046 -0.000246211 -0.000272606     -108.264 
         -70      39.4971 -0.000245264 -0.000271998     -108.238 
         -70      39.6899 -0.000244314 -0.000271436     -108.211 
         -70      39.8833 -0.000243327  -0.00027092     -108.185 
         -70      40.0772 -0.000242271  -0.00027045     -108.159 
         -70      40.2714 -0.000241115  -0.00027002     -108.132 
         -70      40.4663 -0.000239828 -0.000269616     -108.106 
         -70      40.6615 -0.000238387 -0.000269213      -108.08 
         -70      40.8573 -0.000236777 -0.000268777     -108.053 
         -70      41.0534 -0.000235002 -0.000268257     -108.027 
         -70      41.2501 -0.000233079 -0.000267587     -108.001 
         -70      41.4473 -0.000231054 -0.000266676     -107.974 
         -70      41.6448 -0.000229006 -0.000265415     -107.948 
         -70      41.8429 -0.000228346 -0.000264725     -107.922 
         -70      42.0414 -0.000227281 -0.000264008     -107.895 
         -70      42.2405 -0.000224835 -0.000263432     -107.869 
         -70      42.4399  -0.00022284 -0.000262928     -107.842 
         -70      42.6399 -0.000221198 -0.000262479     -107.816 
         -70      42.8404 -0.000219828 -0.000262069      -107.79 
         -70      43.0412 -0.000218657 -0.000261684     -107.763 
         -70      43.2426 -0.000217624 -0.000261309     -107.737 
         -70      43.4444 -0.000216677 -0.000260932      -107.71 
         -70      43.6467 -0.000215774 -0.000260541     -107.684 
         -70      43.8494  -0.00021488 -0.000260127     -107.658 
         -70      44.0527 -0.000213968  -0.00025968     -107.631 
         -70      44.2563 -0.000213019 -0.000259195     -107.605 
         -70      44.4606 -0.000212019 -0.000258665     -107.579 
         -70      44.6653  -0.00021096 -0.000258086     -107.552 
         -70      44.8704 -0.000209841 -0.000257459     -107.526 
         -70       45.076 -0.000208659  -0.00025678       -107.5 
         -70       45.282 -0.000207423 -0.000256053     -107.473 
         -70      45.4886 -0.000206137  -0.00025528     -107.447 
         -70      45.6955 -0.000204814 -0.000254466     -107.421 
         -70       45.903 -0.000203463 -0.000253615     -107.394 
         -70      46.1111 -0.000202098 -0.000252736     -107.368 
         -70      46.3194 -0.000200748 -0.000251841     -107.342 
         -70      46.5283 -0.000199483 -0.000250967     -107.316 
         -70      46.7376 -0.000198261 -0.000250119     -107.289 
         -70      46.9475 -0.000197087 -0.000249304     -107.263 
         -70      47.1577  -0.00019597 -0.000248533     -107.237 
         -70      47.3685 -0.000194913 -0.000247811     -107.211 
         -70      47.5798 -0.000193916 -0.000247142     -107.185 
         -70      47.7914 -0.000192978  -0.00024653     -107.158 
         -70      48.0037 -0.000192092 -0.000245973     -107.132 