Variables = x, y, u, v, p

Zone, I=800, F=POINT
         -70            0           -0           -0      30.3618 
         -70     0.000234  1.26264e-06  -7.8069e-12      30.3618 
         -70     0.000939  4.78608e-06 -8.29796e-11      30.3618 
         -70     0.002113  9.78305e-06 -3.90235e-10      30.3618 
         -70     0.003759  1.51712e-05 -1.23309e-09      30.3618 
         -70     0.005872   1.9784e-05 -3.06952e-09      30.3618 
         -70     0.008457  2.27001e-05 -6.51955e-09      30.3618 
         -70      0.01151  2.34275e-05 -1.22986e-08      30.3618 
         -70     0.015036  2.20477e-05 -2.11316e-08      30.3618 
         -70     0.019031  1.91833e-05 -3.35511e-08      30.3618 
         -70     0.023493  1.58172e-05 -4.97154e-08      30.3618 
         -70     0.028429  1.29782e-05 -6.92674e-08      30.3618 
         -70     0.033831  1.14115e-05 -9.11608e-08      30.3618 
         -70     0.039706  1.12886e-05 -1.13871e-07      30.3618 
         -70     0.046047  1.21463e-05 -1.35624e-07      30.3618 
         -70     0.052863  1.31173e-05 -1.55109e-07      30.3618 
         -70      0.06015  1.34707e-05 -1.72125e-07      30.3618 
         -70       0.0679  1.32885e-05 -1.88236e-07      30.3618 
         -70     0.076126  1.37627e-05 -2.06639e-07      30.3618 
         -70     0.084816  1.55034e-05 -2.28086e-07      30.3618 
         -70     0.093982  1.52569e-05  -2.4391e-07      30.3618 
         -70     0.103611  1.55171e-05 -2.60185e-07      30.3618 
         -70     0.113718  1.59797e-05 -2.73539e-07      30.3618 
         -70     0.124286  1.64223e-05 -2.81505e-07      30.3618 
         -70     0.135333  1.67165e-05 -2.82198e-07      30.3618 
         -70      0.14685  1.68185e-05 -2.73575e-07      30.3617 
         -70     0.158827  1.67493e-05 -2.52585e-07      30.3617 
         -70     0.171284  1.65582e-05 -2.14174e-07      30.3617 
         -70     0.184201  1.62822e-05 -1.50839e-07      30.3617 
         -70     0.197599  1.59111e-05 -5.25704e-08      30.3617 
         -70     0.211455  1.53822e-05  9.09258e-08      30.3617 
         -70     0.225792  1.46291e-05  2.86614e-07      30.3617 
         -70       0.2406   1.3734e-05  5.29191e-07      30.3617 
         -70     0.255865  1.29239e-05  7.97859e-07      30.3617 
         -70     0.271613  1.18874e-05  1.13367e-06      30.3617 
         -70     0.287818  1.08173e-05  1.53244e-06      30.3616 
         -70     0.304506  9.71304e-06  1.97446e-06      30.3616 
         -70      0.32165  8.58594e-06  2.43836e-06      30.3616 
         -70     0.339278  7.45133e-06  2.90437e-06      30.3616 
         -70     0.357377  6.33351e-06   3.3524e-06      30.3616 
         -70      0.37593  5.26131e-06  3.76376e-06      30.3616 
         -70     0.394968  4.26287e-06  4.12291e-06      30.3615 
         -70     0.414461  3.36905e-06  4.41605e-06      30.3615 
         -70      0.43444  2.60423e-06  4.63424e-06      30.3615 
         -70     0.454872    1.989e-06  4.77267e-06      30.3615 
         -70     0.475791  1.53285e-06  4.83332e-06      30.3614 
         -70     0.497163  1.23648e-06  4.82555e-06      30.3614 
         -70     0.519021  1.08858e-06  4.76831e-06      30.3614 
         -70      0.54135  1.06951e-06  4.69223e-06      30.3613 
         -70     0.564131  1.15492e-06  4.64219e-06      30.3613 
         -70       0.5874   1.3249e-06  4.68039e-06      30.3612 
         -70     0.611121  1.56121e-06  4.90667e-06      30.3612 
         -70      0.63533  1.64097e-06  5.49241e-06      30.3612 
         -70      0.65999  1.65402e-06  6.17731e-06      30.3611 
         -70     0.685139  1.60751e-06  6.89556e-06      30.3611 
         -70     0.710759  1.50874e-06  7.59366e-06       30.361 
         -70     0.736828  1.36526e-06  8.23209e-06      30.3609 
         -70     0.763387  1.18425e-06   8.7865e-06      30.3609 
         -70     0.790396  9.73228e-07  9.24351e-06      30.3608 
         -70     0.817896  7.38843e-07  9.60295e-06      30.3607 
         -70     0.845843   4.8806e-07  9.87343e-06      30.3607 
         -70     0.874283  2.26559e-07  1.00727e-05      30.3606 
         -70      0.90317 -3.97455e-08  1.02235e-05      30.3605 
         -70     0.932551  -3.0647e-07  1.03524e-05      30.3604 
         -70     0.962401 -5.69307e-07  1.04862e-05      30.3604 
         -70     0.992697 -8.24763e-07  1.06493e-05      30.3603 
         -70      1.02349 -1.07072e-06  1.08616e-05      30.3602 
         -70      1.05472 -1.30496e-06  1.11349e-05      30.3601 
         -70      1.08645 -1.52668e-06   1.1472e-05        30.36 
         -70      1.11863 -1.73477e-06  1.18641e-05      30.3599 
         -70       1.1513 -1.92903e-06  1.22922e-05      30.3597 
         -70      1.18444 -2.10862e-06  1.27257e-05      30.3596 
         -70      1.21802 -2.27218e-06   1.3126e-05      30.3595 
         -70      1.25211 -2.41761e-06   1.3452e-05      30.3594 
         -70      1.28663  -2.5405e-06  1.36651e-05      30.3593 
         -70      1.32165 -2.63418e-06  1.37411e-05      30.3591 
         -70      1.35712 -2.68794e-06  1.36827e-05       30.359 
         -70      1.39308 -2.68635e-06  1.35385e-05      30.3588 
         -70      1.42951 -2.60741e-06  1.34257e-05      30.3587 
         -70      1.46638 -2.42125e-06  1.35593e-05      30.3585 
         -70      1.50375 -2.08739e-06  1.42882e-05      30.3583 
         -70      1.54156 -1.05097e-06  1.49254e-05      30.3582 
         -70      1.57987 -6.73061e-07  1.53556e-05       30.358 
         -70      1.61863  -8.5566e-07   1.5651e-05      30.3578 
         -70      1.65788 -1.43926e-06  1.58442e-05      30.3576 
         -70      1.69757  -2.2791e-06  1.59646e-05      30.3574 
         -70      1.73776 -3.24901e-06  1.60387e-05      30.3572 
         -70      1.77842 -4.23757e-06    1.609e-05       30.357 
         -70      1.81952 -5.15017e-06  1.61388e-05      30.3568 
         -70      1.86113 -5.91139e-06  1.62024e-05      30.3565 
         -70      1.90316 -6.45983e-06  1.62948e-05      30.3563 
         -70      1.94571 -6.75245e-06   1.6427e-05       30.356 
         -70      1.98869 -6.76061e-06  1.66068e-05      30.3558 
         -70      2.03217 -6.47099e-06  1.68395e-05      30.3555 
         -70      2.07612 -5.88409e-06  1.71269e-05      30.3553 
         -70      2.12051  -5.0141e-06  1.74684e-05       30.355 
         -70       2.1654 -3.88443e-06  1.78616e-05      30.3547 
         -70      2.21073 -2.53151e-06  1.83006e-05      30.3544 
         -70      2.25656 -9.96101e-07  1.87792e-05      30.3541 
         -70      2.30283  6.70088e-07  1.92879e-05      30.3538 
         -70       2.3496  2.41579e-06  1.98173e-05      30.3534 
         -70      2.39685  4.18336e-06   2.0356e-05      30.3531 
         -70      2.44452  5.91455e-06  2.08919e-05      30.3528 
         -70      2.49271  7.55686e-06  2.14139e-05      30.3524 
         -70      2.54132  9.05628e-06   2.1909e-05       30.352 
         -70      2.59044  1.03694e-05  2.23668e-05      30.3517 
         -70         2.64  1.14559e-05  2.27756e-05      30.3513 
         -70      2.69006  1.22888e-05  2.31266e-05      30.3509 
         -70      2.74056  1.28487e-05   2.3411e-05      30.3505 
         -70      2.79156  1.31308e-05  2.36229e-05      30.3501 
         -70      2.84304  1.31415e-05  2.37574e-05      30.3496 
         -70      2.89494  1.29019e-05  2.38119e-05      30.3492 
         -70      2.94735  1.24451e-05  2.37862e-05      30.3487 
         -70       3.0002  1.18183e-05   2.3682e-05      30.3483 
         -70      3.05355  1.10776e-05  2.35029e-05      30.3478 
         -70      3.10733    1.029e-05  2.32546e-05      30.3473 
         -70      3.16163  9.52542e-06  2.29433e-05      30.3468 
         -70      3.21639  8.85645e-06  2.25766e-05      30.3463 
         -70      3.27158  8.35038e-06  2.21624e-05      30.3457 
         -70      3.32729  8.06121e-06   2.1706e-05      30.3452 
         -70      3.38342  8.02323e-06  2.12122e-05      30.3446 
         -70      3.44007  8.23877e-06  2.06803e-05      30.3441 
         -70      3.49714  8.66596e-06  2.01054e-05      30.3435 
         -70      3.55472  9.20515e-06  1.94731e-05      30.3429 
         -70      3.61273  9.67957e-06  1.87603e-05      30.3423 
         -70      3.67125  9.81825e-06  1.79285e-05      30.3416 
         -70      3.73025  9.23059e-06  1.69237e-05       30.341 
         -70      3.78967  7.81147e-06  1.66324e-05      30.3403 
         -70      3.84961  6.68881e-06  1.69421e-05      30.3397 
         -70      3.90996  5.94062e-06  1.74153e-05       30.339 
         -70      3.97084  5.53444e-06  1.80092e-05      30.3383 
         -70      4.03214  5.44777e-06  1.86801e-05      30.3376 
         -70      4.09395  5.66503e-06  1.93885e-05      30.3368 
         -70      4.15624  5.39714e-06  1.94025e-05      30.3361 
         -70      4.21895   4.8094e-06  1.91312e-05      30.3353 
         -70      4.28217  4.38734e-06   1.9033e-05      30.3345 
         -70      4.34582  4.09867e-06  1.90358e-05      30.3337 
         -70      4.40998  3.91323e-06  1.90809e-05      30.3329 
         -70      4.47457  3.80491e-06  1.91224e-05       30.332 
         -70      4.53968  3.75031e-06  1.91276e-05      30.3312 
         -70      4.60525  3.72937e-06  1.90758e-05      30.3303 
         -70      4.67125  3.72497e-06  1.89582e-05      30.3294 
         -70      4.73777  3.72293e-06  1.87759e-05      30.3285 
         -70       4.8047   3.7119e-06  1.85398e-05      30.3276 
         -70      4.87216  3.68319e-06  1.82677e-05      30.3266 
         -70      4.94003   3.6308e-06  1.79834e-05      30.3257 
         -70      5.00843  3.55105e-06   1.7713e-05      30.3247 
         -70      5.07724  3.44282e-06  1.74835e-05      30.3237 
         -70      5.14658   3.3069e-06  1.73183e-05      30.3227 
         -70      5.21639  3.14647e-06   1.7234e-05      30.3216 
         -70      5.28661  2.96676e-06  1.72362e-05      30.3206 
         -70      5.35736  2.77445e-06   1.7314e-05      30.3195 
         -70      5.42852  2.57861e-06  1.74352e-05      30.3184 
         -70      5.50021  2.38944e-06  1.75398e-05      30.3172 
         -70      5.57231  2.21938e-06   1.7533e-05      30.3161 
         -70      5.64493  2.08196e-06  1.72777e-05      30.3149 
         -70      5.71803  1.99278e-06   1.6586e-05      30.3137 
         -70      5.79154   1.9689e-06  1.52115e-05      30.3125 
         -70      5.86558  1.86303e-06  1.46155e-05      30.3113 
         -70      5.94003  1.80715e-06  1.54003e-05        30.31 
         -70      6.01501  1.89949e-06  1.57154e-05      30.3088 
         -70       6.0904  2.00781e-06  1.56727e-05      30.3075 
         -70      6.16632  2.05652e-06    1.538e-05      30.3061 
         -70      6.24271  2.01456e-06  1.49353e-05      30.3048 
         -70       6.3195  1.88468e-06  1.44243e-05      30.3034 
         -70      6.39683  1.69224e-06  1.39146e-05       30.302 
         -70      6.47457  1.47609e-06   1.3457e-05      30.3006 
         -70      6.55284  1.27861e-06  1.30809e-05      30.2992 
         -70      6.63152  1.13916e-06  1.27969e-05      30.2977 
         -70      6.71073  1.08661e-06  1.25959e-05      30.2962 
         -70      6.79034  1.13539e-06  1.24535e-05      30.2947 
         -70      6.87049  1.28236e-06  1.23329e-05      30.2932 
         -70      6.95111  1.50597e-06  1.21918e-05      30.2916 
         -70      7.03214  1.76785e-06  1.19903e-05        30.29 
         -70       7.1137  2.01811e-06  1.17003e-05      30.2884 
         -70      7.19566  2.20142e-06  1.13198e-05      30.2868 
         -70      7.27816  2.26928e-06  1.08861e-05      30.2851 
         -70      7.36106  2.19358e-06   1.0496e-05      30.2834 
         -70      7.44451  1.98565e-06  1.03247e-05      30.2817 
         -70      7.52842  1.71972e-06  1.06527e-05        30.28 
         -70      7.61273  1.63134e-06  1.02007e-05      30.2782 
         -70      7.69758  1.92637e-06  9.53218e-06      30.2764 
         -70      7.78283  2.65955e-06  9.00535e-06      30.2746 
         -70      7.86862  3.91607e-06  8.99844e-06      30.2727 
         -70      7.95481  4.34728e-06  9.35563e-06      30.2708 
         -70      8.04155   2.6418e-06  8.89943e-06      30.2689 
         -70      8.12868  1.46458e-06  8.58539e-06       30.267 
         -70      8.21635  6.40874e-07  8.48182e-06      30.2651 
         -70      8.30449  6.87317e-08  8.60654e-06      30.2631 
         -70      8.39303 -3.00136e-07  8.93567e-06      30.2611 
         -70      8.48211 -4.60014e-07  9.44472e-06       30.259 
         -70      8.57159 -2.86238e-07  1.02832e-05      30.2569 
         -70      8.66161 -9.85707e-08  1.06948e-05      30.2548 
         -70      8.75203  1.29531e-07  1.07039e-05      30.2527 
         -70      8.84299  4.01801e-07  1.04076e-05      30.2506 
         -70      8.93443  7.04157e-07  9.94001e-06      30.2484 
         -70      9.02626  1.01129e-06  9.44257e-06      30.2462 
         -70      9.11863  1.29345e-06  9.03679e-06      30.2439 
         -70      9.21139   1.5206e-06  8.80809e-06      30.2416 
         -70      9.30471  1.66954e-06  8.79143e-06      30.2393 
         -70      9.39841  1.72777e-06   8.9684e-06       30.237 
         -70      9.49267  1.69909e-06  9.27153e-06      30.2346 
         -70      9.58739  1.60754e-06  9.59764e-06      30.2323 
         -70      9.68251  1.50141e-06  9.83289e-06      30.2298 
         -70      9.77817  1.45604e-06  9.88966e-06      30.2274 
         -70      9.87422  1.57667e-06  9.75459e-06      30.2249 
         -70      9.97083  2.00024e-06  9.55165e-06      30.2224 
         -70      10.0678  2.89496e-06  9.62035e-06      30.2198 
         -70      10.1654  3.36631e-06  9.78909e-06      30.2173 
         -70      10.2633  2.32093e-06   8.8811e-06      30.2147 
         -70      10.3618  1.69204e-06  8.08872e-06       30.212 
         -70      10.4607  1.38244e-06  7.46751e-06      30.2094 
         -70      10.5601  1.30321e-06  7.04232e-06      30.2067 
         -70        10.66  1.37603e-06  6.80687e-06      30.2039 
         -70      10.7603  1.53494e-06  6.72568e-06      30.2012 
         -70      10.8611  1.72844e-06  6.73196e-06      30.1984 
         -70      10.9623  1.92085e-06  6.72762e-06      30.1955 
         -70      11.0641  2.09594e-06  6.58182e-06      30.1927 
         -70      11.1663   1.7404e-06  6.50865e-06      30.1898 
         -70       11.269  9.98646e-07  6.53464e-06      30.1869 
         -70      11.3721  5.04301e-07  6.34734e-06      30.1839 
         -70      11.4757  2.19266e-07  6.04148e-06      30.1809 
         -70      11.5798  1.05896e-07  5.68695e-06      30.1779 
         -70      11.6844  1.28595e-07  5.33294e-06      30.1749 
         -70      11.7894  2.52826e-07  5.00862e-06      30.1718 
         -70       11.895  4.45326e-07  4.72798e-06      30.1687 
         -70      12.0009  6.74231e-07  4.49194e-06      30.1655 
         -70      12.1073  9.10432e-07  4.29127e-06      30.1623 
         -70      12.2142  1.12715e-06  4.11134e-06      30.1591 
         -70      12.3216  1.30249e-06  3.93454e-06      30.1559 
         -70      12.4294  1.41969e-06   3.7454e-06      30.1526 
         -70      12.5378  1.46997e-06  3.53362e-06      30.1493 
         -70      12.6465  1.45413e-06  3.29968e-06       30.146 
         -70      12.7558  1.38551e-06  3.05807e-06      30.1426 
         -70      12.8656  1.29312e-06  2.84349e-06      30.1392 
         -70      12.9757  1.22524e-06  2.71519e-06      30.1357 
         -70      13.0864  1.25332e-06  2.76218e-06      30.1323 
         -70      13.1975  1.47675e-06  3.10902e-06      30.1288 
         -70      13.3092  2.02872e-06  3.92242e-06      30.1252 
         -70      13.4212  2.29526e-06  4.10542e-06      30.1217 
         -70      13.5338  2.12704e-06  3.66724e-06      30.1181 
         -70      13.6468  2.03252e-06  3.48421e-06      30.1144 
         -70      13.7603  1.98554e-06  3.45909e-06      30.1108 
         -70      13.8743  1.96447e-06  3.51836e-06       30.107 
         -70      13.9886  1.95221e-06  3.60918e-06      30.1033 
         -70      14.1036  1.93576e-06  3.69648e-06      30.0995 
         -70      14.2189  1.90609e-06  3.75963e-06      30.0957 
         -70      14.3348  1.85778e-06  3.79008e-06      30.0919 
         -70       14.451  1.78885e-06  3.78834e-06      30.0881 
         -70      14.5678  1.70017e-06  3.76164e-06      30.0842 
         -70      14.6851  1.59536e-06  3.72153e-06      30.0802 
         -70      14.8028  1.48032e-06  3.68182e-06      30.0763 
         -70       14.921  1.36243e-06  3.65647e-06      30.0723 
         -70      15.0396  1.25069e-06   3.6582e-06      30.0682 
         -70      15.1588  1.15449e-06  3.69696e-06      30.0642 
         -70      15.2783  1.08369e-06  3.77885e-06      30.0601 
         -70      15.3984  1.04743e-06  3.90572e-06       30.056 
         -70       15.519  1.05393e-06  4.07442e-06      30.0518 
         -70        15.64   1.1094e-06  4.27695e-06      30.0476 
         -70      15.7615  1.21763e-06  4.50164e-06      30.0434 
         -70      15.8834  1.37869e-06  4.73301e-06      30.0391 
         -70      16.0058   1.5888e-06  4.95465e-06      30.0348 
         -70      16.1286  1.83839e-06   5.1499e-06      30.0305 
         -70       16.252   2.1124e-06  5.30592e-06      30.0262 
         -70      16.3759  2.38791e-06  5.41587e-06      30.0218 
         -70      16.5002  2.63367e-06  5.48355e-06      30.0174 
         -70       16.625  2.80948e-06  5.52813e-06      30.0129 
         -70      16.7501  2.86377e-06  5.58936e-06      30.0085 
         -70      16.8759  2.73322e-06  5.73427e-06       30.004 
         -70       17.002  2.34124e-06  6.06378e-06      29.9994 
         -70      17.1287  1.59547e-06  6.72209e-06      29.9948 
         -70      17.2557  1.78466e-06  7.05686e-06      29.9902 
         -70      17.3834  2.50143e-06  7.37003e-06      29.9856 
         -70      17.5115  3.30089e-06  7.90967e-06       29.981 
         -70      17.6399  3.73693e-06  8.77966e-06      29.9763 
         -70       17.769  3.64885e-06  7.96412e-06      29.9715 
         -70      17.8984  3.47626e-06   7.0729e-06      29.9668 
         -70      18.0284   3.2552e-06  6.20369e-06       29.962 
         -70      18.1587  3.03015e-06  5.27769e-06      29.9572 
         -70      18.2896   2.8618e-06  4.22448e-06      29.9523 
         -70       18.421  2.78103e-06  3.43282e-06      29.9475 
         -70      18.5528  2.68966e-06  3.90659e-06      29.9426 
         -70      18.6851  2.67787e-06   4.3767e-06      29.9376 
         -70      18.8178  2.72639e-06  4.78602e-06      29.9327 
         -70      18.9511   2.8175e-06  5.09751e-06      29.9277 
         -70      19.0847  2.93502e-06  5.28911e-06      29.9226 
         -70      19.2189  3.06503e-06  5.35311e-06      29.9176 
         -70      19.3535   3.1953e-06  5.29256e-06      29.9125 
         -70      19.4886  3.31621e-06  5.11929e-06      29.9074 
         -70      19.6242  3.42007e-06  4.85182e-06      29.9023 
         -70      19.7602  3.50153e-06  4.51342e-06      29.8971 
         -70      19.8968   3.5577e-06  4.12902e-06      29.8919 
         -70      20.0337  3.58769e-06  3.72539e-06      29.8867 
         -70      20.1712  3.59278e-06  3.32716e-06      29.8814 
         -70      20.3091  3.57612e-06  2.95789e-06      29.8761 
         -70      20.4475  3.54246e-06  2.63642e-06      29.8708 
         -70      20.5864  3.49794e-06  2.37799e-06      29.8655 
         -70      20.7257  3.44969e-06  2.19241e-06      29.8601 
         -70      20.8655  3.40521e-06  2.08342e-06      29.8547 
         -70      21.0058  3.37214e-06  2.04938e-06      29.8493 
         -70      21.1465  3.35734e-06  2.08278e-06      29.8439 
         -70      21.2877  3.36643e-06  2.17097e-06      29.8384 
         -70      21.4294  3.40288e-06  2.29714e-06      29.8329 
         -70      21.5716  3.46716e-06  2.44126e-06      29.8274 
         -70      21.7142  3.55564e-06  2.58181e-06      29.8219 
         -70      21.8573  3.65984e-06  2.69833e-06      29.8163 
         -70      22.0008  3.76469e-06  2.77318e-06      29.8107 
         -70      22.1449  3.84782e-06  2.79532e-06      29.8051 
         -70      22.2893  3.87754e-06  2.76336e-06      29.7994 
         -70      22.4344  3.81169e-06  2.68985e-06      29.7937 
         -70      22.5797  3.59589e-06  2.60608e-06       29.788 
         -70      22.7257  3.16109e-06  2.56701e-06      29.7823 
         -70      22.8721  3.05666e-06   2.8244e-06      29.7766 
         -70      23.0189  3.37755e-06  3.04961e-06      29.7708 
         -70      23.1663  3.51252e-06  2.99953e-06       29.765 
         -70       23.314   3.5151e-06  2.75969e-06      29.7592 
         -70      23.4623  3.42766e-06  2.40241e-06      29.7533 
         -70       23.611  3.28259e-06   1.9887e-06      29.7475 
         -70      23.7602  3.10337e-06  1.56689e-06      29.7416 
         -70        23.91  2.90659e-06  1.17544e-06      29.7357 
         -70        24.06  2.70317e-06  8.42551e-07      29.7297 
         -70      24.2107   2.4992e-06   5.8608e-07      29.7238 
         -70      24.3617  2.29848e-06   4.1595e-07      29.7178 
         -70      24.5133  2.10261e-06  3.33168e-07      29.7118 
         -70      24.6653  1.91364e-06  3.31551e-07      29.7058 
         -70      24.8178   1.7342e-06  3.97791e-07      29.6997 
         -70      24.9708  1.56982e-06  5.12218e-07      29.6937 
         -70      25.1242  1.42974e-06  6.49216e-07      29.6876 
         -70      25.2781  1.32787e-06  7.78283e-07      29.6815 
         -70      25.4324  1.28468e-06  8.63835e-07      29.6753 
         -70      25.5873  1.32774e-06  8.66412e-07      29.6692 
         -70      25.7426    1.493e-06   7.4276e-07       29.663 
         -70      25.8984  1.82626e-06  4.46139e-07      29.6568 
         -70      26.0546  2.38285e-06  -7.2309e-08      29.6506 
         -70      26.2114  3.23092e-06 -8.65253e-07      29.6444 
         -70      26.3686  3.42469e-06 -1.27998e-06      29.6381 
         -70      26.5262  3.43626e-06 -1.34108e-06      29.6319 
         -70      26.6844  3.39782e-06 -1.18453e-06      29.6256 
         -70      26.8429  3.32179e-06 -8.78753e-07      29.6193 
         -70       27.002  3.21749e-06 -4.81476e-07       29.613 
         -70      27.1615  3.09204e-06 -4.19536e-08      29.6066 
         -70      27.3216  2.95024e-06  4.00886e-07      29.6003 
         -70      27.4821  2.79569e-06  8.15547e-07      29.5939 
         -70       27.643  2.63111e-06  1.17852e-06      29.5875 
         -70      27.8044  2.45846e-06  1.47441e-06      29.5811 
         -70      27.9663  2.28052e-06  1.69336e-06      29.5746 
         -70      28.1287  2.10038e-06  1.83214e-06      29.5682 
         -70      28.2914  1.92331e-06  1.89199e-06      29.5617 
         -70      28.4548  1.75631e-06  1.87866e-06      29.5553 
         -70      28.6185  1.60996e-06  1.80109e-06      29.5488 
         -70      28.7828  1.49821e-06  1.67043e-06      29.5423 
         -70      28.9475  1.44003e-06  1.49927e-06      29.5357 
         -70      29.1126  1.45979e-06  1.30058e-06      29.5292 
         -70      29.2784  1.58835e-06  1.08592e-06      29.5226 
         -70      29.4444  1.86372e-06  8.65375e-07      29.5161 
         -70       29.611  2.33299e-06   6.4494e-07      29.5095 
         -70       29.778  2.75795e-06  6.66837e-07      29.5029 
         -70      29.9456  2.28959e-06  1.49028e-06      29.4963 
         -70      30.1137  2.00522e-06  2.09623e-06      29.4896 
         -70      30.2821  1.85827e-06  2.49935e-06       29.483 
         -70      30.4511  1.80917e-06  2.72399e-06      29.4763 
         -70      30.6204  1.82556e-06  2.79939e-06      29.4697 
         -70      30.7903  1.88144e-06   2.7586e-06       29.463 
         -70      30.9606  1.95667e-06  2.63556e-06      29.4563 
         -70      31.1315  2.03677e-06  2.46286e-06      29.4496 
         -70      31.3028  2.11197e-06  2.27048e-06      29.4429 
         -70      31.4745  2.17684e-06  2.08409e-06      29.4361 
         -70      31.6468  2.22982e-06  1.92342e-06      29.4294 
         -70      31.8194  2.27214e-06   1.8025e-06      29.4226 
         -70      31.9926   2.3075e-06  1.72832e-06      29.4159 
         -70      32.1662  2.34102e-06  1.70156e-06      29.4091 
         -70      32.3404  2.37865e-06  1.71666e-06      29.4023 
         -70      32.5149  2.42609e-06  1.76286e-06      29.3955 
         -70        32.69  2.48813e-06  1.82571e-06      29.3887 
         -70      32.8655  2.56747e-06  1.88875e-06      29.3819 
         -70      33.0414  2.66371e-06  1.93607e-06      29.3751 
         -70       33.218  2.77262e-06  1.95544e-06      29.3682 
         -70      33.3948  2.88444e-06  1.94169e-06      29.3614 
         -70      33.5723  2.98333e-06    1.901e-06      29.3545 
         -70        33.75  3.04552e-06  1.85581e-06      29.3476 
         -70      33.9284  3.03851e-06  1.85022e-06      29.3408 
         -70      34.1073  2.91928e-06  1.95646e-06      29.3339 
         -70      34.2865  2.63343e-06  2.28132e-06       29.327 
         -70      34.4663   2.1126e-06  2.97512e-06      29.3201 
         -70      34.6465  1.27495e-06  4.23763e-06      29.3132 
         -70      34.8272  1.99327e-08  6.33255e-06      29.3062 
         -70      35.0083  8.21286e-07  5.23578e-06      29.2993 
         -70        35.19  1.26167e-06  4.66702e-06      29.2924 
         -70      35.3721  2.33854e-06  4.57759e-06      29.2854 
         -70      35.5546  2.91907e-06  4.25955e-06      29.2785 
         -70      35.7377  3.14493e-06  3.83564e-06      29.2715 
         -70      35.9211  3.13101e-06  3.39673e-06      29.2646 
         -70      36.1052  2.96979e-06  3.00394e-06      29.2576 
         -70      36.2895  2.73348e-06  2.69564e-06      29.2506 
         -70      36.4745  2.47565e-06  2.48921e-06      29.2437 
         -70      36.6598  2.23479e-06  2.38694e-06      29.2367 
         -70      36.8457  2.03513e-06  2.37841e-06      29.2297 
         -70      37.0321  1.89001e-06  2.44469e-06      29.2227 
         -70      37.2188  1.80327e-06  2.56108e-06      29.2157 
         -70      37.4062  1.77114e-06   2.7005e-06      29.2087 
         -70      37.5938  1.78449e-06  2.83541e-06      29.2017 
         -70      37.7821  1.83029e-06  2.94082e-06      29.1947 
         -70      37.9707  1.89325e-06  2.99545e-06      29.1876 
         -70      38.1599  1.95748e-06  2.98379e-06      29.1806 
         -70      38.3496  2.00753e-06  2.89688e-06      29.1736 
         -70      38.5396  2.02979e-06  2.73335e-06      29.1666 
         -70      38.7302  2.01352e-06  2.49904e-06      29.1595 
         -70      38.9211  1.95163e-06  2.20782e-06      29.1525 
         -70      39.1127  1.84127e-06  1.87943e-06      29.1454 
         -70      39.3046   1.6847e-06  1.54004e-06      29.1384 
         -70      39.4971  1.48887e-06  1.21846e-06      29.1314 
         -70      39.6899  1.26649e-06  9.45864e-07      29.1243 
         -70      39.8833  1.03467e-06  7.50905e-07      29.1173 
         -70      40.0772  8.15722e-07  6.57756e-07      29.1102 
         -70      40.2714  6.35962e-07  6.80873e-07      29.1031 
         -70      40.4663  5.24424e-07  8.20494e-07      29.0961 
         -70      40.6615  5.12568e-07  1.05669e-06       29.089 
         -70      40.8573  6.32243e-07  1.34382e-06       29.082 
         -70      41.0534  9.13904e-07  1.60207e-06      29.0749 
         -70      41.2501  1.38545e-06  1.71102e-06      29.0679 
         -70      41.4473  2.06856e-06  1.49935e-06      29.0608 
         -70      41.6448  2.97597e-06  7.37004e-07      29.0537 
         -70      41.8429   3.6106e-06  -8.0634e-07      29.0467 
         -70      42.0414  3.47967e-06 -1.35387e-06      29.0396 
         -70      42.2405  3.20958e-06 -6.04154e-07      29.0325 
         -70      42.4399   2.8633e-06  8.38078e-08      29.0255 
         -70      42.6399  2.47627e-06  7.05687e-07      29.0184 
         -70      42.8404  2.07764e-06  1.25744e-06      29.0113 
         -70      43.0412  1.69017e-06  1.73701e-06      29.0043 
         -70      43.2426  1.32996e-06  2.14504e-06      28.9972 
         -70      43.4444   1.0092e-06  2.48213e-06      28.9902 
         -70      43.6467  7.34593e-07  2.75126e-06      28.9831 
         -70      43.8494  5.09953e-07  2.95548e-06       28.976 
         -70      44.0527  3.35106e-07  3.09946e-06       28.969 
         -70      44.2563  2.07882e-07  3.18795e-06      28.9619 
         -70      44.4606  1.23543e-07  3.22666e-06      28.9549 
         -70      44.6653  7.61152e-08  3.22141e-06      28.9478 
         -70      44.8704    5.844e-08  3.17841e-06      28.9408 
         -70       45.076  6.27276e-08  3.10384e-06      28.9337 
         -70       45.282  8.10408e-08  3.00408e-06      28.9267 
         -70      45.4886  1.05684e-07  2.88504e-06      28.9196 
         -70      45.6955  1.29465e-07  2.75281e-06      28.9126 
         -70       45.903  1.46139e-07  2.61269e-06      28.9056 
         -70      46.1111  1.50546e-07  2.46992e-06      28.8985 
         -70      46.3194  1.62519e-07  2.33435e-06      28.8915 
         -70      46.5283  2.66279e-07  2.22945e-06      28.8845 
         -70      46.7376  3.45231e-07  2.13556e-06      28.8775 
         -70      46.9475  4.01962e-07  2.05679e-06      28.8704 
         -70      47.1577  4.40173e-07  1.99673e-06      28.8634 
         -70      47.3685    4.649e-07  1.95792e-06      28.8564 
         -70      47.5798  4.82068e-07  1.94219e-06      28.8494 
         -70      47.7914  4.98374e-07  1.95048e-06      28.8424 
         -70      48.0037  5.21015e-07  1.98292e-06      28.8354 