Variables = x, y, u, v, p

Zone, I=800, F=POINT
         -50            0            0            0      1.06107 
         -50     0.000234 -1.81594e-05 -5.97198e-10      1.06107 
         -50     0.000939 -6.85081e-05  -2.5043e-09      1.06107 
         -50     0.002113 -0.000138992 -6.02343e-09      1.06107 
         -50     0.003759 -0.000213538 -1.16263e-08      1.06107 
         -50     0.005872 -0.000275855 -1.98458e-08      1.06107 
         -50     0.008457 -0.000314655 -3.12646e-08      1.06107 
         -50      0.01151 -0.000326233 -4.63735e-08      1.06107 
         -50     0.015036 -0.000315637 -6.55998e-08      1.06107 
         -50     0.019031 -0.000294571  -8.9193e-08      1.06107 
         -50     0.023493 -0.000276865 -1.17282e-07      1.06107 
         -50     0.028429 -0.000272634 -1.49953e-07      1.06107 
         -50     0.033831 -0.000283456 -1.87136e-07      1.06107 
         -50     0.039706 -0.000300969 -2.28835e-07      1.06107 
         -50     0.046047 -0.000311107 -2.74956e-07      1.06106 
         -50     0.052863  -0.00030421 -3.25539e-07      1.06106 
         -50      0.06015 -0.000286829 -3.80627e-07      1.06106 
         -50       0.0679 -0.000283991 -4.40554e-07      1.06106 
         -50     0.076126 -0.000308706 -5.06765e-07      1.06106 
         -50     0.084816 -0.000286747 -5.81414e-07      1.06106 
         -50     0.093982  -0.00029422  -6.5877e-07      1.06106 
         -50     0.103611 -0.000296105 -7.42453e-07      1.06106 
         -50     0.113718 -0.000295288  -8.3205e-07      1.06106 
         -50     0.124286 -0.000293832  -9.2697e-07      1.06106 
         -50     0.135333 -0.000292889 -1.02701e-06      1.06106 
         -50      0.14685 -0.000292772 -1.13174e-06      1.06106 
         -50     0.158827 -0.000293165 -1.24062e-06      1.06106 
         -50     0.171284 -0.000293484  -1.3532e-06      1.06106 
         -50     0.184201 -0.000293293 -1.46833e-06      1.06106 
         -50     0.197599 -0.000292652 -1.58487e-06      1.06106 
         -50     0.211455 -0.000292211 -1.70096e-06      1.06106 
         -50     0.225792 -0.000292738  -1.8152e-06      1.06106 
         -50       0.2406 -0.000293695 -1.92654e-06      1.06106 
         -50     0.255865  -0.00029297 -2.03468e-06      1.06106 
         -50     0.271613 -0.000293522 -2.13127e-06      1.06106 
         -50     0.287818 -0.000293981 -2.21164e-06      1.06106 
         -50     0.304506  -0.00029441 -2.27573e-06      1.06106 
         -50      0.32165 -0.000294848  -2.3262e-06      1.06106 
         -50     0.339278 -0.000295324 -2.36868e-06      1.06106 
         -50     0.357377 -0.000295846 -2.41112e-06      1.06106 
         -50      0.37593 -0.000296413 -2.46331e-06      1.06106 
         -50     0.394968 -0.000297011 -2.53617e-06      1.06106 
         -50     0.414461 -0.000297624 -2.64035e-06      1.06105 
         -50      0.43444 -0.000298235 -2.78538e-06      1.06105 
         -50     0.454872 -0.000298827 -2.97742e-06      1.06105 
         -50     0.475791 -0.000299395 -3.21851e-06      1.06105 
         -50     0.497163 -0.000299943 -3.50343e-06      1.06105 
         -50     0.519021  -0.00030048 -3.81921e-06      1.06105 
         -50      0.54135 -0.000301022 -4.14183e-06      1.06105 
         -50     0.564131  -0.00030157 -4.43496e-06      1.06105 
         -50       0.5874 -0.000302098 -4.64924e-06      1.06105 
         -50     0.611121 -0.000302533 -4.72906e-06      1.06105 
         -50      0.63533 -0.000303021 -4.82102e-06      1.06105 
         -50      0.65999 -0.000303449 -4.92452e-06      1.06105 
         -50     0.685139 -0.000303822 -5.03956e-06      1.06105 
         -50     0.710759 -0.000304141  -5.1653e-06      1.06104 
         -50     0.736828 -0.000304411 -5.30032e-06      1.06104 
         -50     0.763387 -0.000304635 -5.44309e-06      1.06104 
         -50     0.790396 -0.000304816 -5.59132e-06      1.06104 
         -50     0.817896 -0.000304957 -5.74292e-06      1.06104 
         -50     0.845843 -0.000305061 -5.89528e-06      1.06104 
         -50     0.874283 -0.000305129 -6.04632e-06      1.06104 
         -50      0.90317 -0.000305164 -6.19373e-06      1.06104 
         -50     0.932551 -0.000305166 -6.33605e-06      1.06103 
         -50     0.962401 -0.000305137 -6.47198e-06      1.06103 
         -50     0.992697 -0.000305077 -6.60094e-06      1.06103 
         -50      1.02349 -0.000304986  -6.7234e-06      1.06103 
         -50      1.05472 -0.000304863 -6.84025e-06      1.06103 
         -50      1.08645 -0.000304708 -6.95362e-06      1.06103 
         -50      1.11863 -0.000304517 -7.06599e-06      1.06103 
         -50       1.1513  -0.00030429 -7.18081e-06      1.06102 
         -50      1.18444 -0.000304025 -7.30153e-06      1.06102 
         -50      1.21802 -0.000303718 -7.43144e-06      1.06102 
         -50      1.25211 -0.000303368 -7.57338e-06      1.06102 
         -50      1.28663 -0.000302974 -7.72812e-06      1.06102 
         -50      1.32165 -0.000302532 -7.89427e-06      1.06102 
         -50      1.35712 -0.000302043 -8.06583e-06      1.06101 
         -50      1.39308 -0.000301507 -8.23158e-06      1.06101 
         -50      1.42951 -0.000300927 -8.37203e-06      1.06101 
         -50      1.46638 -0.000300307 -8.45733e-06      1.06101 
         -50      1.50375 -0.000299652 -8.44433e-06      1.06101 
         -50      1.54156  -0.00029855 -8.45154e-06        1.061 
         -50      1.57987  -0.00029753 -8.55743e-06        1.061 
         -50      1.61863 -0.000296613 -8.73755e-06        1.061 
         -50      1.65788 -0.000295778 -8.97268e-06        1.061 
         -50      1.69757 -0.000295009 -9.24455e-06      1.06099 
         -50      1.73776  -0.00029429 -9.53744e-06      1.06099 
         -50      1.77842 -0.000293608 -9.83678e-06      1.06099 
         -50      1.81952 -0.000292951 -1.01298e-05      1.06099 
         -50      1.86113 -0.000292308 -1.04065e-05      1.06098 
         -50      1.90316 -0.000291671 -1.06576e-05      1.06098 
         -50      1.94571 -0.000291033  -1.0877e-05      1.06098 
         -50      1.98869 -0.000290391 -1.10594e-05      1.06097 
         -50      2.03217  -0.00028974 -1.12022e-05      1.06097 
         -50      2.07612  -0.00028908 -1.13042e-05      1.06097 
         -50      2.12051 -0.000288413  -1.1366e-05      1.06096 
         -50       2.1654 -0.000287738 -1.13901e-05      1.06096 
         -50      2.21073 -0.000287062 -1.13802e-05      1.06096 
         -50      2.25656 -0.000286388 -1.13415e-05      1.06095 
         -50      2.30283 -0.000285723 -1.12805e-05      1.06095 
         -50       2.3496 -0.000285074 -1.12047e-05      1.06095 
         -50      2.39685 -0.000284448 -1.11225e-05      1.06094 
         -50      2.44452 -0.000283857 -1.10429e-05      1.06094 
         -50      2.49271 -0.000283306 -1.09752e-05      1.06093 
         -50      2.54132 -0.000282807  -1.0929e-05      1.06093 
         -50      2.59044 -0.000282367 -1.09137e-05      1.06093 
         -50         2.64 -0.000281995 -1.09384e-05      1.06092 
         -50      2.69006 -0.000281699 -1.10116e-05      1.06092 
         -50      2.74056 -0.000281486 -1.11409e-05      1.06091 
         -50      2.79156 -0.000281362 -1.13329e-05      1.06091 
         -50      2.84304 -0.000281329 -1.15924e-05       1.0609 
         -50      2.89494  -0.00028139 -1.19228e-05       1.0609 
         -50      2.94735 -0.000281545 -1.23261e-05      1.06089 
         -50       3.0002 -0.000281791 -1.28011e-05      1.06089 
         -50      3.05355 -0.000282123  -1.3346e-05      1.06088 
         -50      3.10733 -0.000282533 -1.39548e-05      1.06088 
         -50      3.16163 -0.000283011 -1.46213e-05      1.06087 
         -50      3.21639 -0.000283541  -1.5335e-05      1.06087 
         -50      3.27158 -0.000284106 -1.60833e-05      1.06086 
         -50      3.32729 -0.000284686  -1.6853e-05      1.06086 
         -50      3.38342 -0.000285258 -1.76267e-05      1.06085 
         -50      3.44007 -0.000285794 -1.83878e-05      1.06085 
         -50      3.49714 -0.000286266  -1.9116e-05      1.06084 
         -50      3.55472 -0.000286642 -1.97928e-05      1.06083 
         -50      3.61273 -0.000286889 -2.03977e-05      1.06083 
         -50      3.67125 -0.000286972 -2.09134e-05      1.06082 
         -50      3.73025 -0.000286856 -2.13232e-05      1.06081 
         -50      3.78967 -0.000286297 -2.21746e-05      1.06081 
         -50      3.84961 -0.000285957 -2.30761e-05       1.0608 
         -50      3.90996 -0.000285919 -2.37457e-05      1.06079 
         -50      3.97084 -0.000286111 -2.35858e-05      1.06079 
         -50      4.03214 -0.000286363 -2.35101e-05      1.06078 
         -50      4.09395  -0.00028662 -2.36289e-05      1.06077 
         -50      4.15624 -0.000286854  -2.3921e-05      1.06077 
         -50      4.21895 -0.000287048 -2.43564e-05      1.06076 
         -50      4.28217 -0.000287195 -2.49007e-05      1.06075 
         -50      4.34582 -0.000287297 -2.55156e-05      1.06074 
         -50      4.40998 -0.000287362 -2.61657e-05      1.06073 
         -50      4.47457 -0.000287399  -2.6817e-05      1.06073 
         -50      4.53968 -0.000287422 -2.74433e-05      1.06072 
         -50      4.60525 -0.000287443 -2.80245e-05      1.06071 
         -50      4.67125 -0.000287473 -2.85495e-05       1.0607 
         -50      4.73777 -0.000287519 -2.90182e-05      1.06069 
         -50       4.8047 -0.000287586 -2.94382e-05      1.06068 
         -50      4.87216 -0.000287672 -2.98268e-05      1.06067 
         -50      4.94003 -0.000287772 -3.02066e-05      1.06066 
         -50      5.00843 -0.000287875 -3.06046e-05      1.06065 
         -50      5.07724 -0.000287968 -3.10452e-05      1.06064 
         -50      5.14658 -0.000288033  -3.1547e-05      1.06063 
         -50      5.21639 -0.000288056 -3.21129e-05      1.06062 
         -50      5.28661 -0.000288022 -3.27218e-05      1.06061 
         -50      5.35736 -0.000287927 -3.33187e-05       1.0606 
         -50      5.42852 -0.000287777 -3.37982e-05      1.06059 
         -50      5.50021 -0.000287599 -3.39923e-05      1.06058 
         -50      5.57231 -0.000287442 -3.36491e-05      1.06057 
         -50      5.64493 -0.000287395 -3.24134e-05      1.06056 
         -50      5.71803 -0.000287015  -3.4014e-05      1.06055 
         -50      5.79154 -0.000286933 -3.48823e-05      1.06054 
         -50      5.86558 -0.000287021 -3.53278e-05      1.06052 
         -50      5.94003 -0.000287183 -3.55694e-05      1.06051 
         -50      6.01501 -0.000287351 -3.57547e-05       1.0605 
         -50       6.0904 -0.000287476  -3.5973e-05      1.06049 
         -50      6.16632 -0.000287527 -3.62695e-05      1.06047 
         -50      6.24271 -0.000287489 -3.66564e-05      1.06046 
         -50       6.3195  -0.00028736 -3.71222e-05      1.06045 
         -50      6.39683 -0.000287156 -3.76407e-05      1.06044 
         -50      6.47457 -0.000286919 -3.81727e-05      1.06042 
         -50      6.55284 -0.000286717 -3.86708e-05      1.06041 
         -50      6.63152 -0.000286663 -3.90733e-05      1.06039 
         -50      6.71073 -0.000286925 -3.93014e-05      1.06038 
         -50      6.79034 -0.000287075 -3.98935e-05      1.06037 
         -50      6.87049 -0.000287089 -4.05487e-05      1.06035 
         -50      6.95111 -0.000287143 -4.10645e-05      1.06034 
         -50      7.03214 -0.000287213 -4.14933e-05      1.06032 
         -50       7.1137 -0.000287281  -4.1873e-05      1.06031 
         -50      7.19566 -0.000287333 -4.22272e-05      1.06029 
         -50      7.27816 -0.000287355 -4.25694e-05      1.06028 
         -50      7.36106 -0.000287337 -4.29036e-05      1.06026 
         -50      7.44451  -0.00028727   -4.323e-05      1.06024 
         -50      7.52842 -0.000287141 -4.35467e-05      1.06023 
         -50      7.61273 -0.000286938 -4.38545e-05      1.06021 
         -50      7.69758 -0.000286648 -4.41629e-05      1.06019 
         -50      7.78283 -0.000286251 -4.44935e-05      1.06018 
         -50      7.86862 -0.000285725 -4.48886e-05      1.06016 
         -50      7.95481 -0.000285045 -4.54151e-05      1.06014 
         -50      8.04155 -0.000284178 -4.61757e-05      1.06012 
         -50      8.12868 -0.000284317 -4.64859e-05       1.0601 
         -50      8.21635 -0.000284628 -4.65857e-05      1.06009 
         -50      8.30449 -0.000284785 -4.66747e-05      1.06007 
         -50      8.39303 -0.000284815 -4.67685e-05      1.06005 
         -50      8.48211 -0.000284743 -4.68838e-05      1.06003 
         -50      8.57159 -0.000284596 -4.70379e-05      1.06001 
         -50      8.66161 -0.000284401 -4.72486e-05      1.05999 
         -50      8.75203 -0.000284185 -4.75299e-05      1.05997 
         -50      8.84299 -0.000283976 -4.78893e-05      1.05995 
         -50      8.93443   -0.0002838 -4.83192e-05      1.05993 
         -50      9.02626 -0.000283686 -4.87886e-05      1.05991 
         -50      9.11863 -0.000283659 -4.92327e-05      1.05989 
         -50      9.21139 -0.000283749 -4.95367e-05      1.05986 
         -50      9.30471 -0.000283987 -4.95207e-05      1.05984 
         -50      9.39841 -0.000283894 -4.95889e-05      1.05982 
         -50      9.49267 -0.000283407 -4.99151e-05       1.0598 
         -50      9.58739  -0.00028298 -5.00576e-05      1.05978 
         -50      9.68251 -0.000282604 -5.01006e-05      1.05975 
         -50      9.77817 -0.000282266  -5.0107e-05      1.05973 
         -50      9.87422 -0.000281957 -5.01209e-05      1.05971 
         -50      9.97083 -0.000281664 -5.01706e-05      1.05968 
         -50      10.0678 -0.000281382 -5.02713e-05      1.05966 
         -50      10.1654   -0.0002811  -5.0428e-05      1.05963 
         -50      10.2633 -0.000280816 -5.06372e-05      1.05961 
         -50      10.3618 -0.000280523 -5.08908e-05      1.05958 
         -50      10.4607 -0.000280221 -5.11766e-05      1.05956 
         -50      10.5601  -0.00027991 -5.14812e-05      1.05953 
         -50        10.66  -0.00027959 -5.17925e-05       1.0595 
         -50      10.7603 -0.000279267 -5.20996e-05      1.05948 
         -50      10.8611 -0.000278945 -5.23959e-05      1.05945 
         -50      10.9623 -0.000278631 -5.26782e-05      1.05942 
         -50      11.0641 -0.000278332 -5.29491e-05       1.0594 
         -50      11.1663 -0.000278059 -5.32156e-05      1.05937 
         -50       11.269 -0.000277818 -5.34897e-05      1.05934 
         -50      11.3721 -0.000277617 -5.37878e-05      1.05931 
         -50      11.4757 -0.000277463 -5.41283e-05      1.05928 
         -50      11.5798 -0.000277359 -5.45315e-05      1.05925 
         -50      11.6844 -0.000277306 -5.50146e-05      1.05922 
         -50      11.7894 -0.000277298 -5.55916e-05      1.05919 
         -50       11.895 -0.000277326 -5.62664e-05      1.05916 
         -50      12.0009 -0.000277369 -5.70292e-05      1.05913 
         -50      12.1073   -0.0002774 -5.78528e-05       1.0591 
         -50      12.2142 -0.000277377 -5.86819e-05      1.05907 
         -50      12.3216 -0.000277248 -5.94307e-05      1.05904 
         -50      12.4294 -0.000276939 -5.99691e-05      1.05901 
         -50      12.5378 -0.000276363 -6.01179e-05      1.05897 
         -50      12.6465 -0.000275679 -5.99332e-05      1.05894 
         -50      12.7558 -0.000275302 -5.98639e-05      1.05891 
         -50      12.8656 -0.000273933 -6.07481e-05      1.05887 
         -50      12.9757 -0.000273095 -6.14889e-05      1.05884 
         -50      13.0864 -0.000273018 -6.22945e-05      1.05881 
         -50      13.1975 -0.000272982 -6.29735e-05      1.05877 
         -50      13.3092 -0.000272952 -6.35794e-05      1.05874 
         -50      13.4212 -0.000272904  -6.4149e-05       1.0587 
         -50      13.5338  -0.00027282 -6.47087e-05      1.05867 
         -50      13.6468 -0.000272689 -6.52732e-05      1.05863 
         -50      13.7603 -0.000272507 -6.58482e-05      1.05859 
         -50      13.8743 -0.000272275 -6.64345e-05      1.05856 
         -50      13.9886 -0.000271997 -6.70255e-05      1.05852 
         -50      14.1036  -0.00027168 -6.76133e-05      1.05848 
         -50      14.2189 -0.000271332 -6.81861e-05      1.05844 
         -50      14.3348 -0.000270964 -6.87333e-05       1.0584 
         -50       14.451 -0.000270584 -6.92433e-05      1.05836 
         -50      14.5678 -0.000270202 -6.97077e-05      1.05833 
         -50      14.6851 -0.000269826 -7.01195e-05      1.05829 
         -50      14.8028 -0.000269462  -7.0475e-05      1.05825 
         -50       14.921 -0.000269114  -7.0775e-05       1.0582 
         -50      15.0396 -0.000268784  -7.1023e-05      1.05816 
         -50      15.1588 -0.000268471 -7.12272e-05      1.05812 
         -50      15.2783 -0.000268173 -7.13983e-05      1.05808 
         -50      15.3984 -0.000267886 -7.15504e-05      1.05804 
         -50       15.519 -0.000267602 -7.16988e-05        1.058 
         -50        15.64 -0.000267317 -7.18589e-05      1.05795 
         -50      15.7615 -0.000267023  -7.2045e-05      1.05791 
         -50      15.8834 -0.000266716 -7.22671e-05      1.05787 
         -50      16.0058 -0.000266393 -7.25293e-05      1.05782 
         -50      16.1286 -0.000266057 -7.28256e-05      1.05778 
         -50       16.252 -0.000265715 -7.31372e-05      1.05773 
         -50      16.3759 -0.000265387 -7.34276e-05      1.05769 
         -50      16.5002 -0.000265101  -7.3638e-05      1.05764 
         -50       16.625 -0.000264901 -7.36825e-05      1.05759 
         -50      16.7501 -0.000264756 -7.39883e-05      1.05755 
         -50      16.8759 -0.000264412 -7.46712e-05       1.0575 
         -50       17.002 -0.000263937 -7.52025e-05      1.05745 
         -50      17.1287 -0.000263396 -7.56719e-05       1.0574 
         -50      17.2557 -0.000262839 -7.61416e-05      1.05735 
         -50      17.3834 -0.000262298 -7.66533e-05       1.0573 
         -50      17.5115 -0.000261799 -7.72286e-05      1.05725 
         -50      17.6399 -0.000261353 -7.78739e-05       1.0572 
         -50       17.769 -0.000260964 -7.85849e-05      1.05715 
         -50      17.8984  -0.00026063 -7.93465e-05       1.0571 
         -50      18.0284 -0.000260342 -8.01396e-05      1.05705 
         -50      18.1587 -0.000260087 -8.09397e-05        1.057 
         -50      18.2896 -0.000259852 -8.17237e-05      1.05695 
         -50       18.421 -0.000259622  -8.2468e-05       1.0569 
         -50      18.5528 -0.000259381 -8.31524e-05      1.05684 
         -50      18.6851 -0.000259115  -8.3763e-05      1.05679 
         -50      18.8178 -0.000258815 -8.42901e-05      1.05673 
         -50      18.9511 -0.000258473 -8.47326e-05      1.05668 
         -50      19.0847 -0.000258087 -8.50951e-05      1.05663 
         -50      19.2189 -0.000257658 -8.53908e-05      1.05657 
         -50      19.3535 -0.000257194 -8.56389e-05      1.05651 
         -50      19.4886 -0.000256708 -8.58651e-05      1.05646 
         -50      19.6242  -0.00025622 -8.60987e-05       1.0564 
         -50      19.7602 -0.000255756 -8.63715e-05      1.05634 
         -50      19.8968 -0.000255344 -8.67149e-05      1.05629 
         -50      20.0337 -0.000255021 -8.71556e-05      1.05623 
         -50      20.1712 -0.000254825 -8.77131e-05      1.05617 
         -50      20.3091 -0.000254697  -8.8131e-05      1.05611 
         -50      20.4475 -0.000254204 -8.76136e-05      1.05605 
         -50      20.5864 -0.000253558 -8.69967e-05      1.05599 
         -50      20.7257 -0.000252772 -8.63907e-05      1.05593 
         -50      20.8655 -0.000251867 -8.59406e-05      1.05587 
         -50      21.0058 -0.000250875  -8.5833e-05      1.05581 
         -50      21.1465 -0.000249831 -8.62993e-05      1.05574 
         -50      21.2877 -0.000250035 -8.78186e-05      1.05568 
         -50      21.4294 -0.000250537 -8.95326e-05      1.05562 
         -50      21.5716 -0.000249884 -9.06551e-05      1.05555 
         -50      21.7142 -0.000248725 -9.10912e-05      1.05549 
         -50      21.8573 -0.000247499 -9.07778e-05      1.05543 
         -50      22.0008 -0.000246638 -9.02684e-05      1.05536 
         -50      22.1449 -0.000246269 -9.08778e-05       1.0553 
         -50      22.2893 -0.000245947 -9.16328e-05      1.05523 
         -50      22.4344 -0.000245651 -9.24729e-05      1.05516 
         -50      22.5797 -0.000245362  -9.3337e-05       1.0551 
         -50      22.7257 -0.000245064 -9.41719e-05      1.05503 
         -50      22.8721 -0.000244745 -9.49307e-05      1.05496 
         -50      23.0189 -0.000244395 -9.55777e-05      1.05489 
         -50      23.1663 -0.000244004 -9.60911e-05      1.05482 
         -50       23.314 -0.000243565 -9.64613e-05      1.05476 
         -50      23.4623 -0.000243075 -9.66937e-05      1.05469 
         -50       23.611  -0.00024253  -9.6807e-05      1.05462 
         -50      23.7602 -0.000241931 -9.68323e-05      1.05454 
         -50        23.91 -0.000241282 -9.68112e-05      1.05447 
         -50        24.06 -0.000240592 -9.67923e-05       1.0544 
         -50      24.2107 -0.000239872 -9.68275e-05      1.05433 
         -50      24.3617 -0.000239143 -9.69665e-05      1.05426 
         -50      24.5133  -0.00023843 -9.72509e-05      1.05418 
         -50      24.6653 -0.000237771 -9.77059e-05      1.05411 
         -50      24.8178 -0.000237212 -9.83335e-05      1.05404 
         -50      24.9708 -0.000236812 -9.90998e-05      1.05396 
         -50      25.1242 -0.000236647 -9.99248e-05      1.05389 
         -50      25.2781 -0.000236811 -0.000100672      1.05381 
         -50      25.4324 -0.000237415 -0.000101127      1.05374 
         -50      25.5873 -0.000235523 -0.000102246      1.05366 
         -50      25.7426 -0.000233963  -0.00010256      1.05358 
         -50      25.8984 -0.000232919 -0.000102335       1.0535 
         -50      26.0546 -0.000232275 -0.000101876      1.05343 
         -50      26.2114 -0.000231905 -0.000101399      1.05335 
         -50      26.3686 -0.000231691 -0.000101043      1.05327 
         -50      26.5262 -0.000231532 -0.000100879      1.05319 
         -50      26.6844 -0.000231354 -0.000100922      1.05311 
         -50      26.8429 -0.000231109 -0.000101147      1.05303 
         -50       27.002 -0.000230781 -0.000101505      1.05295 
         -50      27.1615 -0.000230376 -0.000101934      1.05287 
         -50      27.3216  -0.00022992 -0.000102388      1.05279 
         -50      27.4821 -0.000229441  -0.00010285       1.0527 
         -50       27.643 -0.000228475 -0.000102897      1.05262 
         -50      27.8044 -0.000227378 -0.000102795      1.05254 
         -50      27.9663 -0.000226437 -0.000102785      1.05245 
         -50      28.1287 -0.000225623 -0.000102837      1.05237 
         -50      28.2914 -0.000224913 -0.000102929      1.05228 
         -50      28.4548 -0.000224286 -0.000103042       1.0522 
         -50      28.6185 -0.000223722 -0.000103165      1.05211 
         -50      28.7828 -0.000223204 -0.000103289      1.05203 
         -50      28.9475 -0.000222717 -0.000103409      1.05194 
         -50      29.1126 -0.000222249 -0.000103523      1.05185 
         -50      29.2784 -0.000221787 -0.000103634      1.05177 
         -50      29.4444 -0.000221323 -0.000103742      1.05168 
         -50       29.611 -0.000220849 -0.000103854      1.05159 
         -50       29.778  -0.00022036 -0.000103974       1.0515 
         -50      29.9456  -0.00021985 -0.000104108      1.05141 
         -50      30.1137 -0.000219317 -0.000104263      1.05132 
         -50      30.2821  -0.00021876 -0.000104445      1.05123 
         -50      30.4511 -0.000218178 -0.000104658      1.05114 
         -50      30.6204 -0.000217573 -0.000104907      1.05105 
         -50      30.7903 -0.000216945 -0.000105196      1.05096 
         -50      30.9606 -0.000216299 -0.000105525      1.05087 
         -50      31.1315 -0.000215636 -0.000105896      1.05077 
         -50      31.3028 -0.000214961 -0.000106306      1.05068 
         -50      31.4745 -0.000214279 -0.000106751      1.05059 
         -50      31.6468 -0.000213594 -0.000107227      1.05049 
         -50      31.8194 -0.000212912 -0.000107725       1.0504 
         -50      31.9926 -0.000212236 -0.000108238       1.0503 
         -50      32.1662 -0.000211572 -0.000108753      1.05021 
         -50      32.3404 -0.000210924 -0.000109259      1.05011 
         -50      32.5149 -0.000210295 -0.000109743      1.05001 
         -50        32.69 -0.000209688  -0.00011019      1.04992 
         -50      32.8655 -0.000209105 -0.000110588      1.04982 
         -50      33.0414 -0.000208549 -0.000110921      1.04972 
         -50       33.218 -0.000208016 -0.000111177      1.04963 
         -50      33.3948 -0.000207506 -0.000111344      1.04953 
         -50      33.5723 -0.000207014 -0.000111415      1.04943 
         -50        33.75 -0.000206536 -0.000111383      1.04933 
         -50      33.9284 -0.000206062 -0.000111248      1.04923 
         -50      34.1073 -0.000205582 -0.000111015      1.04913 
         -50      34.2865 -0.000205083 -0.000110695      1.04903 
         -50      34.4663 -0.000204549 -0.000110308      1.04893 
         -50      34.6465  -0.00020396 -0.000109884      1.04883 
         -50      34.8272 -0.000203293 -0.000109464      1.04872 
         -50      35.0083 -0.000202529 -0.000110117      1.04862 
         -50        35.19 -0.000201765 -0.000111103      1.04852 
         -50      35.3721  -0.00020097 -0.000111406      1.04841 
         -50      35.5546  -0.00020007 -0.000110941      1.04831 
         -50      35.7377 -0.000199189 -0.000110325      1.04821 
         -50      35.9211 -0.000198473 -0.000109611       1.0481 
         -50      36.1052 -0.000197911 -0.000108856        1.048 
         -50      36.2895 -0.000197494 -0.000108114      1.04789 
         -50      36.4745 -0.000197206 -0.000107429      1.04779 
         -50      36.6598 -0.000197033 -0.000106843      1.04768 
         -50      36.8457 -0.000196941 -0.000106502      1.04757 
         -50      37.0321 -0.000196532 -0.000108078      1.04747 
         -50      37.2188  -0.00019605 -0.000109531      1.04736 
         -50      37.4062 -0.000195502  -0.00011084      1.04725 
         -50      37.5938 -0.000194898 -0.000111991      1.04714 
         -50      37.7821 -0.000194246 -0.000112978      1.04704 
         -50      37.9707 -0.000193557 -0.000113796      1.04693 
         -50      38.1599  -0.00019284 -0.000114451      1.04682 
         -50      38.3496 -0.000192104 -0.000114949      1.04671 
         -50      38.5396 -0.000191359 -0.000115301       1.0466 
         -50      38.7302 -0.000190611  -0.00011552      1.04649 
         -50      38.9211 -0.000189871 -0.000115621      1.04638 
         -50      39.1127 -0.000189141 -0.000115621      1.04626 
         -50      39.3046 -0.000188429 -0.000115536      1.04615 
         -50      39.4971 -0.000187737 -0.000115384      1.04604 
         -50      39.6899 -0.000187069 -0.000115181      1.04593 
         -50      39.8833 -0.000186423 -0.000114942      1.04582 
         -50      40.0772   -0.0001858 -0.000114683       1.0457 
         -50      40.2714 -0.000185198 -0.000114415      1.04559 
         -50      40.4663 -0.000184614 -0.000114151      1.04547 
         -50      40.6615 -0.000184043 -0.000113898      1.04536 
         -50      40.8573 -0.000183481 -0.000113664      1.04525 
         -50      41.0534 -0.000182921 -0.000113454      1.04513 
         -50      41.2501 -0.000182357 -0.000113269      1.04502 
         -50      41.4473 -0.000181783 -0.000113112       1.0449 
         -50      41.6448 -0.000181193  -0.00011298      1.04478 
         -50      41.8429 -0.000180581 -0.000112871      1.04467 
         -50      42.0414 -0.000179944 -0.000112782      1.04455 
         -50      42.2405 -0.000179279 -0.000112708      1.04443 
         -50      42.4399 -0.000178588 -0.000112648      1.04432 
         -50      42.6399 -0.000177872 -0.000112598       1.0442 
         -50      42.8404  -0.00017714 -0.000112557      1.04408 
         -50      43.0412 -0.000176406 -0.000112528      1.04396 
         -50      43.2426 -0.000175685 -0.000112518      1.04384 
         -50      43.4444 -0.000175005 -0.000112538      1.04373 
         -50      43.6467 -0.000174398 -0.000112608      1.04361 
         -50      43.8494 -0.000173905 -0.000112753      1.04349 
         -50      44.0527 -0.000173579 -0.000113012      1.04337 
         -50      44.2563 -0.000173473 -0.000113424      1.04325 
         -50      44.4606 -0.000172966 -0.000113509      1.04313 
         -50      44.6653 -0.000172417 -0.000113566        1.043 
         -50      44.8704 -0.000171823 -0.000113595      1.04288 
         -50       45.076 -0.000171187 -0.000113598      1.04276 
         -50       45.282 -0.000170517 -0.000113575      1.04264 
         -50      45.4886 -0.000169826 -0.000113525      1.04252 
         -50      45.6955  -0.00016913  -0.00011345       1.0424 
         -50       45.903 -0.000168445 -0.000113345      1.04227 
         -50      46.1111  -0.00016779 -0.000113209      1.04215 
         -50      46.3194 -0.000167183 -0.000113036      1.04203 
         -50      46.5283 -0.000166638  -0.00011282       1.0419 
         -50      46.7376  -0.00016617 -0.000112554      1.04178 
         -50      46.9475 -0.000165787 -0.000112228      1.04166 
         -50      47.1577 -0.000165491 -0.000111835      1.04153 
         -50      47.3685 -0.000165006 -0.000111555      1.04141 
         -50      47.5798 -0.000164119 -0.000111524      1.04128 
         -50      47.7914 -0.000163285  -0.00011143      1.04116 
         -50      48.0037 -0.000162497 -0.000111288      1.04103 