Variables = x, y, u, v, p

Zone, I=800, F=POINT
         150            0           -0           -0      22.3657 
         150     0.000234  1.17953e-06  6.54144e-12      22.3657 
         150     0.000939  4.59254e-06  7.12619e-11      22.3657 
         150     0.002113  9.83617e-06  3.31722e-10      22.3657 
         150     0.003759  1.63578e-05  1.02744e-09      22.3657 
         150     0.005872  2.35172e-05  2.50772e-09      22.3657 
         150     0.008457  3.07803e-05   5.2572e-09      22.3657 
         150      0.01151  3.77599e-05  9.90179e-09      22.3657 
         150     0.015036  4.43292e-05  1.72496e-08      22.3657 
         150     0.019031  5.05803e-05  2.82833e-08      22.3657 
         150     0.023493  5.67841e-05  4.41896e-08      22.3657 
         150     0.028429   6.3278e-05  6.64138e-08      22.3657 
         150     0.033831   7.0299e-05  9.65699e-08      22.3657 
         150     0.039706  7.79162e-05  1.36581e-07      22.3657 
         150     0.046047  8.59638e-05  1.88512e-07      22.3657 
         150     0.052863  9.41617e-05  2.54773e-07      22.3657 
         150      0.06015  0.000102258  3.37871e-07      22.3657 
         150       0.0679  0.000110214    4.404e-07      22.3657 
         150     0.076126  0.000118137   5.6537e-07      22.3657 
         150     0.084816  0.000125539  7.15543e-07      22.3657 
         150     0.093982  0.000132509  8.94051e-07      22.3657 
         150     0.103611  0.000138881  1.10359e-06      22.3657 
         150     0.113718  0.000144627  1.34742e-06      22.3657 
         150     0.124286  0.000149707   1.6279e-06      22.3657 
         150     0.135333  0.000154108   1.9481e-06      22.3657 
         150      0.14685  0.000157811  2.31013e-06      22.3657 
         150     0.158827  0.000160808  2.71568e-06      22.3657 
         150     0.171284  0.000163111   3.1672e-06      22.3657 
         150     0.184201  0.000164735  3.66544e-06      22.3657 
         150     0.197599  0.000165714  4.21232e-06      22.3657 
         150     0.211455  0.000166093  4.80771e-06      22.3657 
         150     0.225792  0.000165925  5.45293e-06      22.3657 
         150       0.2406  0.000165261  6.14739e-06      22.3657 
         150     0.255865  0.000164153  6.88963e-06      22.3657 
         150     0.271613  0.000162691  7.68165e-06      22.3657 
         150     0.287818  0.000160935    8.521e-06      22.3657 
         150     0.304506  0.000158951  9.40731e-06      22.3657 
         150      0.32165  0.000156812  1.03375e-05      22.3657 
         150     0.339278  0.000154583  1.13116e-05      22.3657 
         150     0.357377   0.00015233  1.23275e-05      22.3657 
         150      0.37593  0.000150115  1.33828e-05      22.3657 
         150     0.394968  0.000147987  1.44778e-05      22.3657 
         150     0.414461  0.000145999  1.56092e-05      22.3657 
         150      0.43444  0.000144188  1.67772e-05      22.3657 
         150     0.454872  0.000142593  1.79777e-05      22.3657 
         150     0.475791  0.000141236  1.92105e-05      22.3657 
         150     0.497163  0.000140142  2.04711e-05      22.3657 
         150     0.519021  0.000139321  2.17592e-05      22.3657 
         150      0.54135  0.000138778  2.30714e-05      22.3657 
         150     0.564131   0.00013851  2.44051e-05      22.3657 
         150       0.5874  0.000138503  2.57626e-05      22.3657 
         150     0.611121  0.000138723  2.71435e-05      22.3657 
         150      0.63533  0.000139117  2.85361e-05      22.3657 
         150      0.65999  0.000139738  2.99322e-05      22.3657 
         150     0.685139  0.000140505  3.13336e-05      22.3657 
         150     0.710759  0.000141337  3.27377e-05      22.3657 
         150     0.736828  0.000142154  3.41409e-05      22.3657 
         150     0.763387  0.000142883   3.5542e-05      22.3657 
         150     0.790396   0.00014345  3.69347e-05      22.3657 
         150     0.817896  0.000143789  3.83163e-05      22.3657 
         150     0.845843  0.000143841  3.96795e-05      22.3657 
         150     0.874283  0.000143554  4.10209e-05      22.3657 
         150      0.90317  0.000142884  4.23329e-05      22.3657 
         150     0.932551  0.000141798  4.36125e-05      22.3657 
         150     0.962401  0.000140274  4.48538e-05      22.3657 
         150     0.992697  0.000138303   4.6052e-05      22.3657 
         150      1.02349  0.000135882  4.72058e-05      22.3657 
         150      1.05472  0.000133028  4.83115e-05      22.3657 
         150      1.08645  0.000129763  4.93704e-05      22.3657 
         150      1.11863  0.000126128  5.03813e-05      22.3657 
         150       1.1513  0.000122165  5.13479e-05      22.3657 
         150      1.18444  0.000117933  5.22724e-05      22.3657 
         150      1.21802  0.000113499  5.31577e-05      22.3657 
         150      1.25211  0.000108924  5.40093e-05      22.3657 
         150      1.28663  0.000104282  5.48292e-05      22.3657 
         150      1.32165  9.96324e-05  5.56202e-05      22.3657 
         150      1.35712  9.50364e-05  5.63796e-05      22.3657 
         150      1.39308  9.05268e-05   5.7102e-05      22.3657 
         150      1.42951  8.61231e-05   5.7773e-05      22.3657 
         150      1.46638  8.18119e-05  5.83679e-05      22.3657 
         150      1.50375  7.75261e-05    5.885e-05      22.3657 
         150      1.54156  7.32732e-05  5.94375e-05      22.3657 
         150      1.57987  6.90094e-05  5.99944e-05      22.3657 
         150      1.61863  6.47419e-05  6.05031e-05      22.3657 
         150      1.65788  6.04697e-05  6.09637e-05      22.3657 
         150      1.69757  5.62063e-05  6.13749e-05      22.3657 
         150      1.73776  5.19516e-05  6.17369e-05      22.3657 
         150      1.77842  4.77167e-05   6.2049e-05      22.3657 
         150      1.81952  4.35132e-05  6.23109e-05      22.3657 
         150      1.86113  3.93428e-05  6.25229e-05      22.3657 
         150      1.90316  3.52214e-05  6.26849e-05      22.3657 
         150      1.94571  3.11519e-05  6.27973e-05      22.3657 
         150      1.98869  2.71506e-05  6.28605e-05      22.3657 
         150      2.03217  2.32212e-05   6.2875e-05      22.3657 
         150      2.07612  1.93772e-05  6.28415e-05      22.3657 
         150      2.12051   1.5632e-05   6.2761e-05      22.3657 
         150       2.1654    1.199e-05  6.26343e-05      22.3657 
         150      2.21073  8.46723e-06  6.24626e-05      22.3657 
         150      2.25656  5.06824e-06   6.2247e-05      22.3657 
         150      2.30283  1.80813e-06   6.1989e-05      22.3657 
         150       2.3496 -1.30882e-06  6.16896e-05      22.3657 
         150      2.39685 -4.27125e-06  6.13506e-05      22.3657 
         150      2.44452 -7.06878e-06  6.09738e-05      22.3657 
         150      2.49271 -9.69848e-06  6.05603e-05      22.3657 
         150      2.54132 -1.21498e-05  6.01123e-05      22.3657 
         150      2.59044 -1.44213e-05  5.96308e-05      22.3657 
         150         2.64 -1.65051e-05  5.91184e-05      22.3657 
         150      2.69006 -1.84016e-05  5.85758e-05      22.3657 
         150      2.74056 -2.01062e-05  5.80056e-05      22.3657 
         150      2.79156 -2.16217e-05  5.74085e-05      22.3657 
         150      2.84304 -2.29481e-05  5.67866e-05      22.3657 
         150      2.89494 -2.40879e-05  5.61418e-05      22.3657 
         150      2.94735  -2.5048e-05  5.54745e-05      22.3657 
         150       3.0002 -2.58336e-05   5.4787e-05      22.3657 
         150      3.05355 -2.64547e-05  5.40793e-05      22.3657 
         150      3.10733 -2.69206e-05  5.33535e-05      22.3657 
         150      3.16163 -2.72446e-05  5.26091e-05      22.3657 
         150      3.21639 -2.74401e-05  5.18474e-05      22.3657 
         150      3.27158  -2.7523e-05  5.10692e-05      22.3657 
         150      3.32729 -2.75105e-05  5.02735e-05      22.3657 
         150      3.38342 -2.74213e-05  4.94613e-05      22.3657 
         150      3.44007 -2.72747e-05  4.86309e-05      22.3657 
         150      3.49714 -2.70916e-05  4.77829e-05      22.3657 
         150      3.55472 -2.68925e-05  4.69149e-05      22.3657 
         150      3.61273 -2.66986e-05  4.60271e-05      22.3657 
         150      3.67125 -2.65299e-05  4.51164e-05      22.3657 
         150      3.73025  -2.6406e-05  4.41816e-05      22.3657 
         150      3.78967 -2.62974e-05  4.30926e-05      22.3657 
         150      3.84961 -2.62167e-05  4.19757e-05      22.3657 
         150      3.90996  -2.6166e-05  4.08766e-05      22.3657 
         150      3.97084 -2.61302e-05   3.9767e-05      22.3657 
         150      4.03214 -2.60988e-05  3.86327e-05      22.3657 
         150      4.09395  -2.6064e-05  3.74644e-05      22.3657 
         150      4.15624 -2.60207e-05  3.62622e-05      22.3657 
         150      4.21895 -2.59652e-05  3.50313e-05      22.3657 
         150      4.28217 -2.58941e-05  3.37776e-05      22.3657 
         150      4.34582 -2.58045e-05   3.2513e-05      22.3657 
         150      4.40998 -2.56924e-05  3.12463e-05      22.3657 
         150      4.47457 -2.55535e-05  2.99909e-05      22.3657 
         150      4.53968 -2.53824e-05  2.87557e-05      22.3657 
         150      4.60525 -2.51733e-05  2.75522e-05      22.3657 
         150      4.67125 -2.49206e-05  2.63921e-05      22.3657 
         150      4.73777 -2.46191e-05  2.52857e-05      22.3657 
         150       4.8047 -2.43214e-05  2.41587e-05      22.3657 
         150      4.87216 -2.39971e-05  2.30402e-05      22.3657 
         150      4.94003  -2.3634e-05  2.19311e-05      22.3656 
         150      5.00843 -2.32343e-05  2.07852e-05      22.3656 
         150      5.07724 -2.27987e-05  1.95669e-05      22.3656 
         150      5.14658  -2.2394e-05  1.88439e-05      22.3656 
         150      5.21639 -2.19786e-05  1.79079e-05      22.3656 
         150      5.28661 -2.15329e-05  1.69089e-05      22.3656 
         150      5.35736 -2.10536e-05  1.59293e-05      22.3656 
         150      5.42852 -2.05505e-05  1.50055e-05      22.3656 
         150      5.50021 -2.00723e-05  1.41702e-05      22.3656 
         150      5.57231 -1.96216e-05  1.33857e-05      22.3656 
         150      5.64493 -1.91635e-05  1.25974e-05      22.3656 
         150      5.71803  -1.8702e-05  1.18047e-05      22.3656 
         150      5.79154 -1.82382e-05   1.1014e-05      22.3656 
         150      5.86558 -1.77689e-05  1.02353e-05      22.3656 
         150      5.94003 -1.72914e-05  9.48393e-06      22.3656 
         150      6.01501 -1.68028e-05  8.77195e-06      22.3656 
         150       6.0904 -1.63067e-05  8.10717e-06      22.3656 
         150      6.16632 -1.58158e-05  7.48149e-06      22.3656 
         150      6.24271 -1.53614e-05   6.8655e-06      22.3656 
         150       6.3195 -1.49853e-05  6.21222e-06      22.3656 
         150      6.39683 -1.45009e-05  5.66397e-06      22.3656 
         150      6.47457 -1.40091e-05  5.09908e-06      22.3656 
         150      6.55284 -1.35213e-05  4.53276e-06      22.3656 
         150      6.63152  -1.3046e-05  3.97781e-06      22.3656 
         150      6.71073 -1.25871e-05  3.44153e-06      22.3656 
         150      6.79034 -1.21468e-05  2.92969e-06      22.3656 
         150      6.87049 -1.17238e-05  2.44367e-06      22.3656 
         150      6.95111 -1.13161e-05  1.98393e-06      22.3656 
         150      7.03214 -1.09202e-05  1.54926e-06      22.3656 
         150       7.1137 -1.05309e-05  1.13647e-06      22.3656 
         150      7.19566 -1.01437e-05  7.43451e-07      22.3656 
         150      7.27816 -9.75236e-06  3.67253e-07      22.3656 
         150      7.36106 -9.35181e-06  7.29806e-09      22.3656 
         150      7.44451 -8.93662e-06 -3.36476e-07      22.3655 
         150      7.52842 -8.55872e-06 -6.88014e-07      22.3655 
         150      7.61273   -8.173e-06 -1.05271e-06      22.3655 
         150      7.69758 -7.78034e-06 -1.42639e-06      22.3655 
         150      7.78283 -7.38782e-06 -1.79085e-06      22.3655 
         150      7.86862 -7.00286e-06 -2.11219e-06      22.3655 
         150      7.95481 -6.63851e-06 -2.34552e-06      22.3655 
         150      8.04155 -6.36373e-06 -2.60261e-06      22.3655 
         150      8.12868 -6.09991e-06 -2.79488e-06      22.3655 
         150      8.21635 -5.82654e-06 -3.01047e-06      22.3655 
         150      8.30449 -5.40894e-06 -3.44051e-06      22.3655 
         150      8.39303 -5.02405e-06 -3.77133e-06      22.3655 
         150      8.48211 -4.66466e-06 -4.03616e-06      22.3655 
         150      8.57159 -4.32599e-06 -4.25944e-06      22.3655 
         150      8.66161 -4.00317e-06 -4.45975e-06      22.3655 
         150      8.75203 -3.69317e-06 -4.64937e-06      22.3655 
         150      8.84299 -3.39255e-06 -4.83668e-06      22.3655 
         150      8.93443 -3.09904e-06 -5.02604e-06      22.3655 
         150      9.02626 -2.81066e-06 -5.21911e-06      22.3655 
         150      9.11863 -2.52498e-06 -5.41611e-06      22.3655 
         150      9.21139 -2.24071e-06 -5.61546e-06      22.3655 
         150      9.30471 -1.95583e-06 -5.81551e-06      22.3655 
         150      9.39841 -1.66959e-06 -6.01374e-06      22.3654 
         150      9.49267 -1.38077e-06 -6.20823e-06      22.3654 
         150      9.58739 -1.08953e-06 -6.39661e-06      22.3654 
         150      9.68251 -7.97043e-07 -6.57641e-06      22.3654 
         150      9.77817 -5.05182e-07 -6.74503e-06      22.3654 
         150      9.87422 -2.18631e-07 -6.89819e-06      22.3654 
         150      9.97083  5.63524e-08 -7.03002e-06      22.3654 
         150      10.0678  3.09426e-07 -7.13091e-06      22.3654 
         150      10.1654  5.27058e-07 -7.18674e-06      22.3654 
         150      10.2633  6.89988e-07  -7.1764e-06      22.3654 
         150      10.3618  7.73453e-07 -7.06978e-06      22.3654 
         150      10.4607  1.06199e-06 -7.25279e-06      22.3654 
         150      10.5601  1.26786e-06 -7.47421e-06      22.3654 
         150        10.66  1.41161e-06 -7.64305e-06      22.3654 
         150      10.7603  1.54939e-06 -7.74588e-06      22.3654 
         150      10.8611  1.71204e-06 -7.77307e-06      22.3654 
         150      10.9623  1.90923e-06 -7.71349e-06      22.3654 
         150      11.0641  2.13536e-06 -7.55065e-06      22.3653 
         150      11.1663  2.32562e-06  -7.7375e-06      22.3653 
         150       11.269   2.5223e-06  -7.9057e-06      22.3653 
         150      11.3721  2.72841e-06 -7.98178e-06      22.3653 
         150      11.4757  2.93807e-06 -7.97938e-06      22.3653 
         150      11.5798  3.14497e-06 -7.92657e-06      22.3653 
         150      11.6844  3.34107e-06 -7.85846e-06      22.3653 
         150      11.7894  3.51892e-06 -7.80974e-06      22.3653 
         150       11.895  3.67256e-06 -7.80764e-06      22.3653 
         150      12.0009  3.80124e-06 -7.86426e-06      22.3653 
         150      12.1073  3.91404e-06 -7.96951e-06      22.3653 
         150      12.2142  4.03489e-06 -8.08349e-06      22.3653 
         150      12.3216  4.21056e-06 -8.12977e-06      22.3653 
         150      12.4294  4.43924e-06 -8.08713e-06      22.3653 
         150      12.5378  4.46903e-06 -8.26739e-06      22.3652 
         150      12.6465  4.56633e-06  -8.3657e-06      22.3652 
         150      12.7558  4.71709e-06 -8.41116e-06      22.3652 
         150      12.8656  4.89854e-06 -8.42624e-06      22.3652 
         150      12.9757  5.08469e-06 -8.42871e-06      22.3652 
         150      13.0864  5.25164e-06 -8.43239e-06      22.3652 
         150      13.1975  5.38045e-06 -8.44693e-06      22.3652 
         150      13.3092   5.4613e-06 -8.47666e-06      22.3652 
         150      13.4212  5.49476e-06 -8.51812e-06      22.3652 
         150      13.5338   5.4935e-06 -8.55674e-06      22.3652 
         150      13.6468  5.48191e-06 -8.56166e-06      22.3652 
         150      13.7603  5.51218e-06 -8.52546e-06      22.3652 
         150      13.8743  5.63603e-06 -8.56205e-06      22.3651 
         150      13.9886  5.78725e-06  -8.6038e-06      22.3651 
         150      14.1036  5.93768e-06   -8.649e-06      22.3651 
         150      14.2189  6.06165e-06 -8.68685e-06      22.3651 
         150      14.3348  6.14097e-06 -8.70199e-06      22.3651 
         150       14.451  6.16877e-06 -8.68038e-06      22.3651 
         150      14.5678  6.15501e-06 -8.61739e-06      22.3651 
         150      14.6851  6.13186e-06 -8.52807e-06      22.3651 
         150      14.8028  6.15977e-06 -8.45959e-06      22.3651 
         150       14.921  6.37476e-06 -8.39159e-06      22.3651 
         150      15.0396  6.59208e-06 -8.24444e-06       22.365 
         150      15.1588  6.66834e-06 -8.19462e-06       22.365 
         150      15.2783  6.68448e-06 -8.20633e-06       22.365 
         150      15.3984  6.69322e-06 -8.25152e-06       22.365 
         150       15.519   6.7244e-06 -8.30911e-06       22.365 
         150        15.64  6.79016e-06 -8.36425e-06       22.365 
         150      15.7615  6.88997e-06 -8.40766e-06       22.365 
         150      15.8834  7.01463e-06 -8.43458e-06       22.365 
         150      16.0058  7.15085e-06 -8.44417e-06       22.365 
         150      16.1286  7.28379e-06 -8.43853e-06      22.3649 
         150       16.252  7.40076e-06 -8.42195e-06      22.3649 
         150      16.3759  7.49258e-06 -8.40007e-06      22.3649 
         150      16.5002  7.55543e-06 -8.37904e-06      22.3649 
         150       16.625  7.59158e-06 -8.36468e-06      22.3649 
         150      16.7501  7.60887e-06 -8.36168e-06      22.3649 
         150      16.8759  7.61991e-06 -8.37275e-06      22.3649 
         150       17.002  7.63983e-06 -8.39785e-06      22.3649 
         150      17.1287  7.68329e-06 -8.43343e-06      22.3649 
         150      17.2557  7.76003e-06 -8.47153e-06      22.3648 
         150      17.3834   7.8697e-06 -8.49925e-06      22.3648 
         150      17.5115  7.99475e-06 -8.49778e-06      22.3648 
         150      17.6399  8.12842e-06 -8.46421e-06      22.3648 
         150       17.769  8.33691e-06  -8.3092e-06      22.3648 
         150      17.8984  8.41375e-06  -8.0546e-06      22.3648 
         150      18.0284  8.28414e-06 -8.31395e-06      22.3648 
         150      18.1587  8.22794e-06 -8.42325e-06      22.3647 
         150      18.2896  8.21795e-06 -8.43287e-06      22.3647 
         150       18.421  8.23322e-06 -8.38246e-06      22.3647 
         150      18.5528  8.25815e-06 -8.30265e-06      22.3647 
         150      18.6851  8.28193e-06  -8.2157e-06      22.3647 
         150      18.8178   8.2977e-06 -8.13714e-06      22.3647 
         150      18.9511  8.30204e-06 -8.07628e-06      22.3647 
         150      19.0847  8.29428e-06 -8.03778e-06      22.3646 
         150      19.2189  8.27582e-06 -8.02222e-06      22.3646 
         150      19.3535  8.24972e-06 -8.02728e-06      22.3646 
         150      19.4886  8.21998e-06 -8.04852e-06      22.3646 
         150      19.6242  8.19119e-06 -8.08017e-06      22.3646 
         150      19.7602  8.16803e-06 -8.11587e-06      22.3646 
         150      19.8968  8.15479e-06 -8.14942e-06      22.3646 
         150      20.0337  8.15517e-06 -8.17514e-06      22.3645 
         150      20.1712  8.17186e-06 -8.18854e-06      22.3645 
         150      20.3091  8.20639e-06 -8.18651e-06      22.3645 
         150      20.4475    8.259e-06 -8.16764e-06      22.3645 
         150      20.5864  8.32847e-06 -8.13231e-06      22.3645 
         150      20.7257   8.4121e-06 -8.08271e-06      22.3645 
         150      20.8655  8.50609e-06 -8.02254e-06      22.3644 
         150      21.0058  8.60525e-06 -7.95692e-06      22.3644 
         150      21.1465  8.70382e-06  -7.8916e-06      22.3644 
         150      21.2877  8.79528e-06 -7.83264e-06      22.3644 
         150      21.4294  8.87346e-06 -7.78522e-06      22.3644 
         150      21.5716  8.93262e-06  -7.7529e-06      22.3644 
         150      21.7142   8.9685e-06 -7.73619e-06      22.3643 
         150      21.8573  8.97923e-06 -7.73106e-06      22.3643 
         150      22.0008  8.96618e-06 -7.72733e-06      22.3643 
         150      22.1449  8.93523e-06 -7.70661e-06      22.3643 
         150      22.2893  8.89749e-06 -7.65219e-06      22.3643 
         150      22.4344  8.87352e-06 -7.51161e-06      22.3643 
         150      22.5797  8.89469e-06 -7.22351e-06      22.3642 
         150      22.7257  9.00374e-06 -6.70561e-06      22.3642 
         150      22.8721   9.0973e-06 -6.91246e-06      22.3642 
         150      23.0189   9.2008e-06 -7.04409e-06      22.3642 
         150      23.1663  9.26147e-06 -7.06654e-06      22.3642 
         150       23.314  9.29262e-06 -7.00788e-06      22.3641 
         150      23.4623  9.28112e-06  -6.9324e-06      22.3641 
         150       23.611  9.25587e-06 -6.83452e-06      22.3641 
         150      23.7602  9.23062e-06 -6.72202e-06      22.3641 
         150        23.91  9.21162e-06 -6.60667e-06      22.3641 
         150        24.06  9.20279e-06 -6.49671e-06       22.364 
         150      24.2107  9.20604e-06 -6.39712e-06       22.364 
         150      24.3617  9.22165e-06 -6.31068e-06       22.364 
         150      24.5133  9.24862e-06 -6.23777e-06       22.364 
         150      24.6653  9.28489e-06 -6.17739e-06       22.364 
         150      24.8178   9.3278e-06  -6.1271e-06      22.3639 
         150      24.9708  9.37416e-06  -6.0838e-06      22.3639 
         150      25.1242  9.42059e-06 -6.04386e-06      22.3639 
         150      25.2781   9.4639e-06 -6.00342e-06      22.3639 
         150      25.4324    9.501e-06 -5.95894e-06      22.3639 
         150      25.5873  9.52938e-06 -5.90714e-06      22.3638 
         150      25.7426  9.54701e-06 -5.84554e-06      22.3638 
         150      25.8984  9.55267e-06 -5.77232e-06      22.3638 
         150      26.0546  9.54588e-06 -5.68683e-06      22.3638 
         150      26.2114  9.52703e-06 -5.58921e-06      22.3637 
         150      26.3686  9.49739e-06 -5.48093e-06      22.3637 
         150      26.5262  9.45911e-06 -5.36451e-06      22.3637 
         150      26.6844  9.41499e-06 -5.24323e-06      22.3637 
         150      26.8429  9.36866e-06 -5.12157e-06      22.3636 
         150       27.002  9.32406e-06  -5.0043e-06      22.3636 
         150      27.1615  9.28559e-06 -4.89693e-06      22.3636 
         150      27.3216  9.25752e-06 -4.80467e-06      22.3636 
         150      27.4821   9.2439e-06 -4.73256e-06      22.3636 
         150       27.643  9.24804e-06 -4.68472e-06      22.3635 
         150      27.8044  9.27213e-06 -4.66364e-06      22.3635 
         150      27.9663  9.31665e-06 -4.66975e-06      22.3635 
         150      28.1287  9.37995e-06 -4.70049e-06      22.3635 
         150      28.2914  9.45731e-06 -4.74943e-06      22.3634 
         150      28.4548  9.54061e-06 -4.80542e-06      22.3634 
         150      28.6185  9.61703e-06 -4.85127e-06      22.3634 
         150      28.7828  9.66867e-06  -4.8628e-06      22.3634 
         150      28.9475  9.67109e-06 -4.80728e-06      22.3633 
         150      29.1126  9.59262e-06 -4.64227e-06      22.3633 
         150      29.2784   9.4721e-06 -4.51764e-06      22.3633 
         150      29.4444  9.41579e-06 -4.45998e-06      22.3632 
         150       29.611  9.39926e-06 -4.30196e-06      22.3632 
         150       29.778  9.39777e-06 -4.11434e-06      22.3632 
         150      29.9456  9.38856e-06 -4.08109e-06      22.3632 
         150      30.1137  9.41699e-06 -4.09007e-06      22.3631 
         150      30.2821  9.46998e-06 -4.12434e-06      22.3631 
         150      30.4511  9.53685e-06 -4.17035e-06      22.3631 
         150      30.6204  9.60882e-06 -4.21738e-06      22.3631 
         150      30.7903  9.67922e-06 -4.25756e-06       22.363 
         150      30.9606  9.74284e-06 -4.28523e-06       22.363 
         150      31.1315  9.79619e-06 -4.29693e-06       22.363 
         150      31.3028  9.83693e-06 -4.29095e-06      22.3629 
         150      31.4745  9.86392e-06 -4.26713e-06      22.3629 
         150      31.6468  9.87701e-06 -4.22653e-06      22.3629 
         150      31.8194  9.87681e-06  -4.1713e-06      22.3629 
         150      31.9926  9.86458e-06 -4.10421e-06      22.3628 
         150      32.1662   9.8421e-06 -4.02876e-06      22.3628 
         150      32.3404   9.8114e-06 -3.94852e-06      22.3628 
         150      32.5149  9.77484e-06 -3.86745e-06      22.3627 
         150        32.69  9.73472e-06 -3.78916e-06      22.3627 
         150      32.8655  9.69342e-06 -3.71721e-06      22.3627 
         150      33.0414  9.65318e-06 -3.65476e-06      22.3626 
         150       33.218  9.61591e-06  -3.6043e-06      22.3626 
         150      33.3948  9.58335e-06 -3.56787e-06      22.3626 
         150      33.5723  9.55675e-06 -3.54665e-06      22.3625 
         150        33.75  9.53706e-06 -3.54115e-06      22.3625 
         150      33.9284  9.52469e-06   -3.551e-06      22.3625 
         150      34.1073  9.51965e-06 -3.57504e-06      22.3624 
         150      34.2865  9.52145e-06 -3.61127e-06      22.3624 
         150      34.4663  9.52919e-06 -3.65702e-06      22.3624 
         150      34.6465  9.54156e-06 -3.70882e-06      22.3624 
         150      34.8272  9.55691e-06  -3.7628e-06      22.3623 
         150      35.0083  9.57335e-06 -3.81453e-06      22.3623 
         150        35.19  9.58884e-06 -3.85952e-06      22.3622 
         150      35.3721  9.60133e-06 -3.89314e-06      22.3622 
         150      35.5546   9.6089e-06 -3.91111e-06      22.3622 
         150      35.7377  9.60998e-06 -3.90974e-06      22.3621 
         150      35.9211  9.60352e-06 -3.88628e-06      22.3621 
         150      36.1052  9.58925e-06 -3.83926e-06      22.3621 
         150      36.2895  9.56796e-06 -3.76912e-06       22.362 
         150      36.4745  9.54176e-06 -3.67839e-06       22.362 
         150      36.6598  9.51449e-06  -3.5727e-06       22.362 
         150      36.8457  9.49198e-06  -3.4608e-06      22.3619 
         150      37.0321   9.4826e-06 -3.35584e-06      22.3619 
         150      37.2188  9.49754e-06 -3.27573e-06      22.3619 
         150      37.4062  9.55146e-06 -3.24385e-06      22.3618 
         150      37.5938  9.66276e-06 -3.29016e-06      22.3618 
         150      37.7821  9.85462e-06 -3.45208e-06      22.3618 
         150      37.9707    1.007e-05 -3.15053e-06      22.3617 
         150      38.1599  1.00176e-05 -3.09473e-06      22.3617 
         150      38.3496  9.87074e-06 -3.20047e-06      22.3616 
         150      38.5396  9.78178e-06 -3.24843e-06      22.3616 
         150      38.7302  9.73581e-06 -3.25481e-06      22.3616 
         150      38.9211  9.72043e-06  -3.2329e-06      22.3615 
         150      39.1127  9.72523e-06 -3.19339e-06      22.3615 
         150      39.3046  9.74177e-06  -3.1448e-06      22.3614 
         150      39.4971   9.7634e-06 -3.09342e-06      22.3614 
         150      39.6899  9.78495e-06 -3.04393e-06      22.3614 
         150      39.8833  9.80273e-06 -2.99928e-06      22.3613 
         150      40.0772  9.81421e-06 -2.96117e-06      22.3613 
         150      40.2714  9.81796e-06 -2.93022e-06      22.3613 
         150      40.4663  9.81343e-06 -2.90601e-06      22.3612 
         150      40.6615  9.80082e-06 -2.88754e-06      22.3612 
         150      40.8573  9.78092e-06 -2.87321e-06      22.3611 
         150      41.0534  9.75501e-06 -2.86113e-06      22.3611 
         150      41.2501  9.72465e-06 -2.84917e-06       22.361 
         150      41.4473  9.69165e-06 -2.83522e-06       22.361 
         150      41.6448  9.65791e-06 -2.81727e-06       22.361 
         150      41.8429  9.62526e-06 -2.79346e-06      22.3609 
         150      42.0414  9.59551e-06 -2.76236e-06      22.3609 
         150      42.2405  9.57018e-06 -2.72283e-06      22.3608 
         150      42.4399  9.55063e-06  -2.6743e-06      22.3608 
         150      42.6399  9.53779e-06 -2.61661e-06      22.3608 
         150      42.8404   9.5323e-06 -2.55021e-06      22.3607 
         150      43.0412  9.53436e-06 -2.47614e-06      22.3607 
         150      43.2426  9.54374e-06 -2.39578e-06      22.3606 
         150      43.4444  9.55979e-06 -2.31121e-06      22.3606 
         150      43.6467  9.58146e-06 -2.22467e-06      22.3605 
         150      43.8494  9.60724e-06 -2.13896e-06      22.3605 
         150      44.0527  9.63538e-06  -2.0568e-06      22.3604 
         150      44.2563  9.66374e-06 -1.98121e-06      22.3604 
         150      44.4606  9.69006e-06 -1.91479e-06      22.3604 
         150      44.6653  9.71192e-06 -1.85995e-06      22.3603 
         150      44.8704  9.72693e-06 -1.81847e-06      22.3603 
         150       45.076  9.73292e-06  -1.7911e-06      22.3602 
         150       45.282  9.72798e-06 -1.77752e-06      22.3602 
         150      45.4886  9.71075e-06 -1.77573e-06      22.3601 
         150      45.6955  9.68063e-06 -1.78181e-06      22.3601 
         150       45.903  9.63791e-06 -1.78945e-06        22.36 
         150      46.1111  9.58418e-06 -1.78943e-06        22.36 
         150      46.3194  9.52263e-06 -1.76918e-06      22.3599 
         150      46.5283  9.45809e-06  -1.7121e-06      22.3599 
         150      46.7376  9.39782e-06 -1.59719e-06      22.3598 
         150      46.9475  9.38422e-06 -1.52737e-06      22.3598 
         150      47.1577  9.45103e-06 -1.54045e-06      22.3597 
         150      47.3685  9.56399e-06 -1.52256e-06      22.3597 
         150      47.5798  9.60482e-06 -1.59468e-06      22.3597 
         150      47.7914  9.59443e-06  -1.7017e-06      22.3596 
         150      48.0037  9.60214e-06 -1.76798e-06      22.3596 