Variables = x, y, u, v, p

Zone, I=416, F=POINT
         -50            0  7.17653e-19  7.79468e-23      178.748 
         -50     0.013333  0.000628047  1.65964e-07      178.748 
         -50     0.053333  0.000578247   6.3392e-07      178.748 
         -50         0.12  0.000561931  1.70715e-06      178.748 
         -50     0.213332   0.00054955  3.81455e-06      178.748 
         -50     0.333332    0.0005365  7.12649e-06      178.748 
         -50         0.48  0.000526177  1.05423e-05      178.747 
         -50     0.653331  0.000522371  1.45441e-05      178.747 
         -50     0.853332  0.000523445    1.909e-05      178.746 
         -50         1.08  0.000527068  2.37852e-05      178.745 
         -50      1.33333  0.000532662   2.7747e-05      178.743 
         -50      1.61333  0.000541475  3.13787e-05      178.741 
         -50         1.92  0.000557188  3.53749e-05      178.737 
         -50      2.25333  0.000563618  3.60531e-05      178.733 
         -50      2.61333  0.000561426  3.60115e-05      178.728 
         -50            3  0.000563599  4.14292e-05      178.722 
         -25            0           -0           -0      171.556 
         -25     0.013333  0.000457155  6.57547e-08      171.556 
         -25     0.053333  0.000417851  2.39191e-07      171.556 
         -25         0.12  0.000406597  5.71808e-07      171.556 
         -25     0.213332  0.000402582  1.10235e-06      171.556 
         -25     0.333332  0.000397923   1.9248e-06      171.556 
         -25         0.48  0.000391993  3.30252e-06      171.556 
         -25     0.653331  0.000390102  5.09777e-06      171.556 
         -25     0.853332  0.000394367  7.57915e-06      171.555 
         -25         1.08  0.000400149  1.04756e-05      171.555 
         -25      1.33333  0.000402109  1.34129e-05      171.554 
         -25      1.61333  0.000402345   1.6196e-05      171.553 
         -25         1.92  0.000397378  1.76591e-05      171.552 
         -25      2.25333  0.000394187  1.97715e-05       171.55 
         -25      2.61333  0.000397636  2.17131e-05      171.549 
         -25            3  0.000403068  2.18256e-05      171.546 
           0            0            0            0      165.653 
           0     0.013333    0.0012157 -0.000789431       165.66 
           0     0.053333  0.000758288 -0.000408036      165.671 
           0         0.12  0.000592905 -0.000276443      165.684 
           0     0.213332  0.000521423 -0.000213771      165.698 
           0     0.333332  0.000485945 -0.000174549      165.712 
           0         0.48  0.000460126 -0.000144771      165.726 
           0     0.653331  0.000441326   -0.0001215       165.74 
           0     0.853332  0.000424644 -0.000102618      165.754 
           0         1.08  0.000406678 -8.70814e-05      165.767 
           0      1.33333  0.000388778 -7.41657e-05       165.78 
           0      1.61333  0.000370968 -6.32926e-05      165.792 
           0         1.92  0.000351237 -5.41305e-05      165.804 
           0      2.25333   0.00033055 -4.63165e-05      165.815 
           0      2.61333  0.000317035 -3.89557e-05      165.824 
           0            3  0.000315245 -3.12628e-05      165.833 
          20            0            0            0      162.018 
          20     0.013333  0.000336918  4.29273e-08      162.018 
          20     0.053333  0.000256411   1.6422e-07      162.018 
          20         0.12  0.000198892 -5.21964e-09      162.018 
          20     0.213332  0.000176518 -1.50337e-06      162.018 
          20     0.333332     0.000183 -5.09999e-06      162.018 
          20         0.48  0.000199147 -1.03809e-05      162.018 
          20     0.653331  0.000215921 -1.63915e-05      162.018 
          20     0.853332   0.00022953 -2.27761e-05      162.018 
          20         1.08  0.000246782 -2.88199e-05      162.017 
          20      1.33333  0.000270884 -3.34962e-05      162.017 
          20      1.61333  0.000298755 -3.63903e-05      162.017 
          20         1.92  0.000326525 -3.71838e-05      162.016 
          20      2.25333  0.000345373 -3.59765e-05      162.015 
          20      2.61333  0.000347916 -3.42547e-05      162.014 
          20            3   0.00033741  -3.2833e-05      162.013 
          40            0            0            0      158.283 
          40     0.013333  0.000315203   -2.658e-08      158.283 
          40     0.053333  0.000254191 -5.79559e-07      158.283 
          40         0.12    0.0002355 -2.86161e-06      158.283 
          40     0.213332  0.000257602 -7.97106e-06      158.283 
          40     0.333332  0.000293537 -1.59601e-05      158.283 
          40         0.48  0.000314742 -2.61267e-05      158.283 
          40     0.653331  0.000311988  -3.7816e-05      158.283 
          40     0.853332  0.000295255 -5.00579e-05      158.282 
          40         1.08  0.000285694 -6.11723e-05      158.282 
          40      1.33333  0.000288051 -6.97782e-05      158.282 
          40      1.61333  0.000291959 -7.53478e-05      158.282 
          40         1.92  0.000294701 -7.69975e-05      158.282 
          40      2.25333  0.000298345  -7.4551e-05      158.281 
          40      2.61333  0.000301889 -6.91886e-05      158.281 
          40            3  0.000305877 -6.16578e-05      158.281 
          60            0           -0           -0      154.736 
          60     0.013333  0.000312374 -2.40805e-08      154.736 
          60     0.053333  0.000273459 -4.46325e-07      154.736 
          60         0.12  0.000267956 -2.02323e-06      154.736 
          60     0.213332  0.000283194 -5.24294e-06      154.736 
          60     0.333332  0.000299732 -9.92334e-06      154.736 
          60         0.48   0.00030434 -1.56258e-05      154.736 
          60     0.653331  0.000294918  -2.2186e-05      154.736 
          60     0.853332  0.000275212 -2.94305e-05      154.736 
          60         1.08  0.000259764 -3.64081e-05      154.736 
          60      1.33333   0.00025773 -4.19162e-05      154.736 
          60      1.61333  0.000259756 -4.55513e-05      154.735 
          60         1.92  0.000259782 -4.70379e-05      154.735 
          60      2.25333  0.000262261 -4.60772e-05      154.735 
          60      2.61333  0.000266587 -4.32388e-05      154.735 
          60            3   0.00027069 -3.90528e-05      154.735 
          80            0           -0           -0      151.298 
          80     0.013333   0.00031024 -2.58007e-08      151.298 
          80     0.053333   0.00028721 -4.38501e-07      151.298 
          80         0.12  0.000301973 -1.96233e-06      151.298 
          80     0.213332  0.000337265 -5.03789e-06      151.298 
          80     0.333332  0.000370008  -9.3863e-06      151.298 
          80         0.48  0.000385838 -1.43951e-05      151.298 
          80     0.653331  0.000384365 -1.97208e-05      151.298 
          80     0.853332  0.000369653  -2.5226e-05      151.298 
          80         1.08  0.000350064 -3.04506e-05      151.298 
          80      1.33333  0.000332666 -3.47478e-05      151.298 
          80      1.61333  0.000314505 -3.77389e-05      151.298 
          80         1.92  0.000290688 -3.90316e-05      151.298 
          80      2.25333  0.000268588  -3.8585e-05      151.298 
          80      2.61333  0.000252796 -3.63525e-05      151.298 
          80            3  0.000245244 -3.26376e-05      151.298 
         100            0            0            0       147.93 
         100     0.013333   0.00029637 -2.73965e-08       147.93 
         100     0.053333  0.000251464 -4.58589e-07       147.93 
         100         0.12  0.000241822 -2.14408e-06       147.93 
         100     0.213332  0.000261916  -5.8284e-06       147.93 
         100     0.333332  0.000291751 -1.15571e-05       147.93 
         100         0.48  0.000311085 -1.88382e-05       147.93 
         100     0.653331  0.000312988 -2.72107e-05       147.93 
         100     0.853332  0.000301285 -3.62137e-05       147.93 
         100         1.08  0.000289105 -4.49274e-05       147.93 
         100      1.33333  0.000284141 -5.23632e-05       147.93 
         100      1.61333  0.000281527 -5.79677e-05       147.93 
         100         1.92  0.000276911 -6.11711e-05       147.93 
         100      2.25333  0.000273838 -6.15281e-05      147.929 
         100      2.61333  0.000268634 -5.97617e-05      147.929 
         100            3  0.000256723 -5.72096e-05      147.929 
         150            0           -0           -0      139.669 
         150     0.013333  0.000299417 -1.38535e-08      139.669 
         150     0.053333  0.000272985 -2.08887e-07      139.669 
         150         0.12  0.000270532 -8.74248e-07      139.669 
         150     0.213332  0.000276727 -2.10988e-06      139.669 
         150     0.333332  0.000281108 -3.75886e-06      139.669 
         150         0.48  0.000279851 -5.69683e-06      139.669 
         150     0.653331   0.00027372 -8.02415e-06      139.669 
         150     0.853332  0.000262981  -1.0863e-05      139.669 
         150         1.08  0.000252333 -1.39673e-05      139.669 
         150      1.33333  0.000248093 -1.68406e-05      139.669 
         150      1.61333  0.000248756 -1.91666e-05      139.669 
         150         1.92  0.000249893 -2.07274e-05      139.669 
         150      2.25333  0.000252971 -2.14046e-05      139.669 
         150      2.61333  0.000258975 -2.10676e-05      139.669 
         150            3  0.000267684 -1.96499e-05      139.669 
         200            0  7.01657e-19  3.40524e-25       131.51 
         200     0.013333  0.000322626 -4.26593e-11       131.51 
         200     0.053333  0.000358185  3.26413e-08       131.51 
         200         0.12  0.000421553   3.8105e-07       131.51 
         200     0.213332  0.000469413  1.72195e-06       131.51 
         200     0.333332  0.000485498   4.7894e-06       131.51 
         200         0.48   0.00047947  9.93142e-06       131.51 
         200     0.653331  0.000470066  1.70148e-05       131.51 
         200     0.853332  0.000463633  2.54081e-05       131.51 
         200         1.08  0.000449443  3.39853e-05       131.51 
         200      1.33333  0.000418857  4.16764e-05       131.51 
         200      1.61333  0.000378725  4.81038e-05       131.51 
         200         1.92  0.000335319  5.28374e-05       131.51 
         200      2.25333  0.000293581  5.53658e-05       131.51 
         200      2.61333  0.000257038  5.56802e-05       131.51 
         200            3  0.000228408  5.39566e-05       131.51 
         250            0           -0           -0      123.385 
         250     0.013333  0.000250031 -5.17915e-08      123.385 
         250     0.053333  0.000118291 -8.59009e-07      123.385 
         250         0.12  3.13052e-05 -4.37698e-06      123.385 
         250     0.213332  3.51823e-05 -1.31149e-05      123.385 
         250     0.333332  0.000109451 -2.84138e-05      123.385 
         250         0.48  0.000191044 -4.96271e-05      123.385 
         250     0.653331  0.000235293 -7.50979e-05      123.385 
         250     0.853332  0.000238073 -0.000103028      123.385 
         250         1.08   0.00022718 -0.000131272      123.385 
         250      1.33333  0.000229615 -0.000157513      123.385 
         250      1.61333  0.000243193 -0.000180137      123.385 
         250         1.92  0.000255093 -0.000197302      123.385 
         250      2.25333  0.000267069 -0.000207442      123.385 
         250      2.61333  0.000278233 -0.000209942      123.385 
         250            3  0.000287063 -0.000204913      123.385 
         300            0           -0           -0       115.27 
         300     0.013333  0.000252711  -1.7143e-08       115.27 
         300     0.053333  0.000119324 -3.43343e-07       115.27 
         300         0.12  8.99483e-06 -2.08333e-06       115.27 
         300     0.213332 -3.25646e-05 -7.09146e-06       115.27 
         300     0.333332 -7.39921e-06 -1.67319e-05       115.27 
         300         0.48  3.93484e-05 -3.08436e-05       115.27 
         300     0.653331  6.91121e-05 -4.81547e-05       115.27 
         300     0.853332   7.6918e-05 -6.70086e-05       115.27 
         300         1.08  8.68314e-05 -8.54432e-05       115.27 
         300      1.33333  0.000118563 -0.000101694       115.27 
         300      1.61333  0.000161834 -0.000115136       115.27 
         300         1.92   0.00020394 -0.000125172       115.27 
         300      2.25333  0.000242987 -0.000130927       115.27 
         300      2.61333    0.0002769 -0.000131995       115.27 
         300            3  0.000303271 -0.000128372       115.27 
         350            0           -0           -0      107.159 
         350     0.013333  0.000276043  8.36744e-09      107.159 
         350     0.053333  0.000194052  7.44631e-08      107.159 
         350         0.12  0.000121177  2.60587e-08      107.159 
         350     0.213332  7.25994e-05 -7.78781e-07      107.159 
         350     0.333332  5.16988e-05 -2.96887e-06      107.159 
         350         0.48  4.29559e-05 -6.56355e-06      107.159 
         350     0.653331  3.26089e-05 -1.10209e-05      107.159 
         350     0.853332  2.36065e-05 -1.54206e-05      107.159 
         350         1.08  3.49382e-05 -1.85384e-05      107.159 
         350      1.33333   7.3643e-05 -1.96837e-05      107.159 
         350      1.61333  0.000120522 -1.94744e-05      107.159 
         350         1.92   0.00016626 -1.85275e-05      107.159 
         350      2.25333  0.000210836 -1.69141e-05      107.159 
         350      2.61333  0.000252933 -1.47143e-05      107.159 
         350            3  0.000289199 -1.20204e-05      107.159 
         400            0           -0           -0      99.0488 
         400     0.013333  0.000241226  -4.4484e-08      99.0488 
         400     0.053333  8.62617e-05 -7.63116e-07      99.0488 
         400         0.12 -2.89794e-05 -4.05356e-06      99.0488 
         400     0.213332 -4.26081e-05 -1.26227e-05      99.0488 
         400     0.333332   3.4005e-05 -2.82036e-05      99.0488 
         400         0.48  0.000130777 -5.03129e-05      99.0488 
         400     0.653331  0.000189729 -7.70401e-05      99.0488 
         400     0.853332  0.000200594 -0.000106269      99.0488 
         400         1.08  0.000193781 -0.000135711      99.0488 
         400      1.33333  0.000203454 -0.000163084      99.0488 
         400      1.61333  0.000227943 -0.000187151      99.0488 
         400         1.92  0.000249337 -0.000206927      99.0488 
         400      2.25333  0.000268385 -0.000220974      99.0488 
         400      2.61333  0.000285598 -0.000228047      99.0488 
         400            3  0.000299118 -0.000227525      99.0488 
         450            0  3.36502e-19 -8.37865e-27      90.9374 
         450     0.013333  0.000283097  6.61674e-08      90.9374 
         450     0.053333  0.000203716  9.32917e-07      90.9374 
         450         0.12  9.85757e-05  3.82288e-06      90.9374 
         450     0.213332 -1.72979e-05  9.05965e-06      90.9374 
         450     0.333332 -0.000107198  1.57175e-05      90.9374 
         450         0.48 -0.000157502  2.27705e-05      90.9374 
         450     0.653331  -0.00017714  3.02271e-05      90.9374 
         450     0.853332  -0.00016803  3.91832e-05      90.9374 
         450         1.08 -0.000117353   5.0877e-05      90.9374 
         450      1.33333 -3.46953e-05  6.49896e-05      90.9374 
         450      1.61333  4.33307e-05  7.92728e-05      90.9374 
         450         1.92  0.000111686   9.1836e-05      90.9374 
         450      2.25333   0.00017826  0.000102015      90.9374 
         450      2.61333  0.000242535   0.00010905      90.9374 
         450            3  0.000298428  0.000112376      90.9374 
         500            0            0            0      82.8243 
         500     0.013333  0.000263519  1.08563e-07      82.8243 
         500     0.053333  0.000117246  1.57721e-06      82.8243 
         500         0.12  -0.00010897  6.74268e-06      82.8243 
         500     0.213332 -0.000374566  1.66863e-05      82.8243 
         500     0.333332 -0.000585215  2.98119e-05      82.8243 
         500         0.48 -0.000683586  4.32211e-05      82.8243 
         500     0.653331 -0.000683041  5.52946e-05      82.8243 
         500     0.853332  -0.00062076  6.64972e-05      82.8243 
         500         1.08 -0.000517476  7.79079e-05      82.8243 
         500      1.33333 -0.000394989  8.91794e-05      82.8243 
         500      1.61333 -0.000275879   9.8782e-05      82.8243 
         500         1.92 -0.000150689  0.000105913      82.8243 
         500      2.25333 -1.58869e-05  0.000110243      82.8243 
         500      2.61333  0.000122115  0.000111452      82.8244 
         500            3  0.000252636  0.000109285      82.8244 
         550            0           -0           -0      74.7102 
         550     0.013333  0.000358998 -9.61327e-08      74.7102 
         550     0.053333  0.000517826 -1.33717e-06      74.7102 
         550         0.12  0.000791666 -5.34465e-06      74.7102 
         550     0.213332   0.00108197 -1.21256e-05      74.7102 
         550     0.333332   0.00128821 -1.95261e-05      74.7102 
         550         0.48   0.00137853 -2.51205e-05      74.7102 
         550     0.653331   0.00138957 -2.82278e-05      74.7102 
         550     0.853332   0.00135812 -3.02047e-05      74.7102 
         550         1.08   0.00128005 -3.34508e-05      74.7102 
         550      1.33333   0.00114388 -3.94663e-05      74.7102 
         550      1.61333  0.000978178 -4.72677e-05      74.7102 
         550         1.92  0.000812119 -5.47683e-05      74.7102 
         550      2.25333  0.000641946 -6.12638e-05      74.7102 
         550      2.61333  0.000468496  -6.6252e-05      74.7102 
         550            3  0.000302575 -6.93718e-05      74.7102 
         600            0           -0           -0      66.5935 
         600     0.013333  0.000245986  4.07881e-08      66.5935 
         600     0.053333  7.62003e-05  5.29505e-07      66.5935 
         600         0.12 -0.000121865  1.83829e-06      66.5935 
         600     0.213332 -0.000286326  3.15756e-06      66.5935 
         600     0.333332  -0.00036485   2.6097e-06      66.5935 
         600         0.48 -0.000362294 -1.23843e-06      66.5935 
         600     0.653331 -0.000322195 -8.25387e-06      66.5935 
         600     0.853332  -0.00027712 -1.70134e-05      66.5935 
         600         1.08 -0.000224987 -2.56803e-05      66.5935 
         600      1.33333 -0.000152218 -3.29621e-05      66.5935 
         600      1.61333 -6.54817e-05 -3.87969e-05      66.5935 
         600         1.92  1.93595e-05 -4.36241e-05      66.5935 
         600      2.25333  0.000104172 -4.76878e-05      66.5935 
         600      2.61333  0.000189625 -5.05097e-05      66.5935 
         600            3   0.00027064 -5.16881e-05      66.5935 
         650            0            0            0      58.4767 
         650     0.013333   0.00039484   -6.638e-08      58.4767 
         650     0.053333  0.000639034 -8.69983e-07      58.4767 
         650         0.12  0.000996682 -3.07288e-06      58.4767 
         650     0.213332   0.00132238 -5.42635e-06      58.4767 
         650     0.333332   0.00150142 -4.74965e-06      58.4767 
         650         0.48   0.00152337  1.72976e-06      58.4767 
         650     0.653331   0.00146123  1.43389e-05      58.4767 
         650     0.853332    0.0013809   3.1094e-05      58.4767 
         650         1.08   0.00129042  4.90442e-05      58.4767 
         650      1.33333   0.00116816  6.57779e-05      58.4767 
         650      1.61333   0.00101707  8.07669e-05      58.4767 
         650         1.92  0.000858358  9.45127e-05      58.4767 
         650      2.25333  0.000692323  0.000106484      58.4766 
         650      2.61333   0.00052078  0.000115928      58.4766 
         650            3  0.000352721  0.000122201      58.4766 
         700            0            0            0      50.3579 
         700     0.013333  0.000244147  1.26831e-07      50.3579 
         700     0.053333  4.02867e-05  1.82238e-06      50.3579 
         700         0.12 -0.000273595  7.69051e-06      50.3579 
         700     0.213332 -0.000638908  1.88431e-05      50.3579 
         700     0.333332 -0.000940974  3.35295e-05      50.3579 
         700         0.48  -0.00111006  4.86927e-05      50.3579 
         700     0.653331  -0.00115973  6.26051e-05      50.3579 
         700     0.853332  -0.00113328  7.58927e-05      50.3579 
         700         1.08  -0.00104304  9.06513e-05      50.3579 
         700      1.33333 -0.000886393  0.000108233      50.3579 
         700      1.61333 -0.000694629   0.00012747      50.3579 
         700         1.92 -0.000504837  0.000145579      50.3579 
         700      2.25333  -0.00031015  0.000161173      50.3579 
         700      2.61333  -0.00010611  0.000173234      50.3579 
         700            3  9.68171e-05   0.00018093       50.358 
         750            0           -0           -0      42.2393 
         750     0.013333  0.000273288 -3.20538e-08      42.2393 
         750     0.053333  0.000189706 -4.73473e-07      42.2393 
         750         0.12  0.000125973 -2.10199e-06      42.2393 
         750     0.213332  9.35767e-05 -5.58295e-06      42.2393 
         750     0.333332  9.18919e-05 -1.11836e-05      42.2393 
         750         0.48  0.000112297 -1.89912e-05      42.2393 
         750     0.653331    0.0001447 -2.92346e-05      42.2393 
         750     0.853332  0.000172372 -4.23874e-05      42.2393 
         750         1.08  0.000174039 -5.89667e-05      42.2393 
         750      1.33333  0.000145767 -7.87462e-05      42.2393 
         750      1.61333    0.0001186 -9.98607e-05      42.2393 
         750         1.92  0.000120651 -0.000119795      42.2393 
         750      2.25333  0.000138907 -0.000137504      42.2393 
         750      2.61333  0.000162288 -0.000151995      42.2393 
         750            3  0.000188913 -0.000162478      42.2393 
         800            0            0            0      34.1188 
         800     0.013333  0.000200673 -7.29281e-08      34.1188 
         800     0.053333 -5.10248e-05 -1.22437e-06      34.1188 
         800         0.12 -0.000253082 -6.41953e-06      34.1188 
         800     0.213332  -0.00027617 -2.00607e-05      34.1188 
         800     0.333332 -0.000110993 -4.55634e-05      34.1188 
         800         0.48  0.000127631 -8.29752e-05      34.1188 
         800     0.653331  0.000311532 -0.000129333      34.1188 
         800     0.853332  0.000388637 -0.000180918      34.1188 
         800         1.08  0.000388177 -0.000234499      34.1188 
         800      1.33333  0.000373563 -0.000287061      34.1188 
         800      1.61333    0.0003789 -0.000336531      34.1188 
         800         1.92  0.000386642 -0.000381961      34.1188 
         800      2.25333  0.000385444 -0.000421598      34.1188 
         800      2.61333  0.000377552 -0.000453256      34.1188 
         800            3  0.000366976 -0.000474528      34.1188 
         850            0           -0           -0      25.9976 
         850     0.013333  0.000501452 -1.01855e-07      25.9976 
         850     0.053333   0.00103542  -1.2925e-06      25.9976 
         850         0.12   0.00177241 -4.23056e-06      25.9976 
         850     0.213332   0.00242892 -6.04096e-06      25.9976 
         850     0.333332   0.00278475  -5.6858e-07      25.9976 
         850         0.48    0.0028261  1.72422e-05      25.9976 
         850     0.653331   0.00270477  4.77018e-05      25.9976 
         850     0.853332   0.00256283   8.6761e-05      25.9976 
         850         1.08   0.00242097  0.000128352      25.9976 
         850      1.33333    0.0022164  0.000166989      25.9976 
         850      1.61333   0.00193005  0.000200462      25.9976 
         850         1.92   0.00162252  0.000230333      25.9976 
         850      2.25333   0.00130975  0.000256638      25.9976 
         850      2.61333   0.00098759  0.000278349      25.9976 
         850            3  0.000657683  0.000293906      25.9975 
         900            0           -0           -0      17.8734 
         900     0.013333  0.000263961  2.56979e-07      17.8734 
         900     0.053333  6.73566e-05  3.79807e-06      17.8734 
         900         0.12 -0.000349406   1.6757e-05      17.8734 
         900     0.213332 -0.000956462   4.3487e-05      17.8734 
         900     0.333332   -0.0015512  8.26857e-05      17.8734 
         900         0.48  -0.00193882  0.000128781      17.8734 
         900     0.653331  -0.00207572  0.000177061      17.8734 
         900     0.853332   -0.0020238  0.000227004      17.8734 
         900         1.08  -0.00183122  0.000281176      17.8734 
         900      1.33333  -0.00152922  0.000340793      17.8734 
         900      1.61333  -0.00120027  0.000402281      17.8734 
         900         1.92 -0.000923539  0.000459653      17.8735 
         900      2.25333 -0.000662304  0.000509279      17.8735 
         900      2.61333 -0.000388457  0.000549066      17.8735 
         900            3 -0.000106685   0.00057694      17.8735 
         950            0           -0           -0      9.74987 
         950     0.013333  0.000119846 -9.11662e-08      9.74987 
         950     0.053333 -0.000343502 -1.53335e-06      9.74987 
         950         0.12 -0.000808278 -8.05644e-06      9.74987 
         950     0.213332  -0.00105611 -2.52648e-05      9.74987 
         950     0.333332  -0.00102275 -5.77984e-05      9.74987 
         950         0.48 -0.000820363  -0.00010659      9.74987 
         950     0.653331 -0.000613633 -0.000169227      9.74987 
         950     0.853332  -0.00050637 -0.000242452      9.74987 
         950         1.08 -0.000511498 -0.000323228      9.74987 
         950      1.33333  -0.00055709 -0.000407258      9.74987 
         950      1.61333 -0.000537086 -0.000488494      9.74987 
         950         1.92 -0.000426992 -0.000562564      9.74987 
         950      2.25333 -0.000286379  -0.00062734      9.74988 
         950      2.61333 -0.000143869 -0.000680789      9.74988 
         950            3  1.91064e-06 -0.000720048      9.74989 
        1000            0  3.35967e-19 -2.09332e-24      1.62508 
        1000     0.013333  0.000284705 -1.12424e-07      1.62508 
        1000     0.053333  0.000250491 -1.63229e-06      1.62508 
        1000         0.12  0.000303245 -7.43486e-06      1.62508 
        1000     0.213332  0.000458565 -2.03681e-05      1.62508 
        1000     0.333332  0.000676934 -4.15449e-05      1.62508 
        1000         0.48   0.00089038 -6.99669e-05      1.62508 
        1000     0.653331   0.00104971  -0.00010363      1.62508 
        1000     0.853332   0.00113815 -0.000140946      1.62508 
        1000         1.08   0.00115593 -0.000181414      1.62508 
        1000      1.33333   0.00110396 -0.000225263      1.62508 
        1000      1.61333  0.000996705 -0.000272121      1.62508 
        1000         1.92  0.000876285 -0.000319507      1.62508 
        1000      2.25333  0.000764828 -0.000364162      1.62508 
        1000      2.61333  0.000657858 -0.000403645      1.62508 
        1000            3  0.000547576 -0.000436048      1.62508 
