Variables = x, y, u, v, p

Zone, I=416, F=POINT
         -50            0 -8.19167e-20 -8.09103e-24     -21.5197 
         -50     0.013333 -9.90143e-05 -2.32671e-08     -21.5197 
         -50     0.053333 -0.000103064 -5.59887e-08     -21.5197 
         -50         0.12 -0.000102099  4.94355e-08     -21.5197 
         -50     0.213332 -0.000107147  5.29834e-07     -21.5197 
         -50     0.333332 -0.000113799  1.40976e-06     -21.5197 
         -50         0.48 -0.000117428  1.79126e-06     -21.5197 
         -50     0.653331  -0.00011877  2.48539e-06     -21.5196 
         -50     0.853332 -0.000120382  2.66736e-06     -21.5195 
         -50         1.08 -0.000120323  2.24123e-06     -21.5193 
         -50      1.33333  -0.00011495  1.85531e-06     -21.5191 
         -50      1.61333 -0.000108048  1.13471e-06     -21.5188 
         -50         1.92 -0.000102245  1.09011e-06     -21.5184 
         -50      2.25333  -9.6153e-05  2.12919e-07     -21.5179 
         -50      2.61333 -9.04163e-05  5.69105e-08     -21.5173 
         -50            3 -8.72439e-05  2.68828e-06     -21.5165 
         -25            0           -0           -0     -20.6592 
         -25     0.013333 -7.68298e-05 -1.53526e-08     -20.6592 
         -25     0.053333 -8.84539e-05 -1.38263e-07     -20.6592 
         -25         0.12 -9.11295e-05 -5.71744e-07     -20.6592 
         -25     0.213332 -8.93797e-05  -1.5129e-06     -20.6592 
         -25     0.333332 -8.57741e-05 -2.99457e-06     -20.6592 
         -25         0.48   -8.379e-05 -4.90255e-06     -20.6592 
         -25     0.653331 -8.46879e-05 -7.17356e-06     -20.6592 
         -25     0.853332 -8.59543e-05 -9.57678e-06     -20.6591 
         -25         1.08  -8.4158e-05 -1.16351e-05     -20.6591 
         -25      1.33333 -7.96113e-05 -1.32589e-05      -20.659 
         -25      1.61333 -7.53282e-05  -1.4401e-05     -20.6589 
         -25         1.92 -7.45877e-05 -1.48408e-05     -20.6587 
         -25      2.25333 -7.85373e-05 -1.49936e-05     -20.6586 
         -25      2.61333 -8.49699e-05 -1.47853e-05     -20.6583 
         -25            3 -8.94398e-05 -1.51156e-05      -20.658 
           0            0            0            0     -19.9538 
           0     0.013333 -0.000225498  0.000119956     -19.9545 
           0     0.053333 -0.000145757   7.6456e-05     -19.9558 
           0         0.12 -9.79762e-05  5.38504e-05     -19.9574 
           0     0.213332 -6.20716e-05  4.18159e-05      -19.959 
           0     0.333332 -3.41682e-05  3.28528e-05     -19.9607 
           0         0.48 -1.49483e-05  2.56271e-05     -19.9624 
           0     0.653331 -4.43954e-06  1.94464e-05     -19.9641 
           0     0.853332  -2.6924e-06  1.39244e-05     -19.9657 
           0         1.08 -8.42112e-06  8.93055e-06     -19.9673 
           0      1.33333 -1.77507e-05  4.55575e-06     -19.9688 
           0      1.61333  -2.9448e-05  8.90216e-07     -19.9703 
           0         1.92 -4.42251e-05   -1.934e-06     -19.9717 
           0      2.25333 -5.72262e-05 -3.25225e-06     -19.9729 
           0      2.61333 -6.09867e-05 -3.24993e-06     -19.9741 
           0            3 -6.00049e-05 -4.13065e-06     -19.9752 
          20            0            0            0     -19.5196 
          20     0.013333 -7.08159e-05 -1.46799e-08     -19.5196 
          20     0.053333 -0.000105626  -1.9895e-07     -19.5196 
          20         0.12 -0.000133233 -1.03152e-06     -19.5196 
          20     0.213332 -0.000146443 -3.14935e-06     -19.5196 
          20     0.333332 -0.000149232 -6.81485e-06     -19.5196 
          20         0.48 -0.000149601 -1.16641e-05     -19.5196 
          20     0.653331 -0.000147842 -1.70675e-05     -19.5196 
          20     0.853332 -0.000143195 -2.27284e-05     -19.5195 
          20         1.08 -0.000132865 -2.81853e-05     -19.5195 
          20      1.33333 -0.000115203  -3.2569e-05     -19.5195 
          20      1.61333 -9.34115e-05 -3.54406e-05     -19.5194 
          20         1.92 -6.83325e-05 -3.63328e-05     -19.5193 
          20      2.25333  -4.4441e-05 -3.54929e-05     -19.5192 
          20      2.61333 -2.99496e-05 -3.35731e-05     -19.5191 
          20            3 -2.78248e-05 -3.13613e-05      -19.519 
          40            0            0            0     -19.0736 
          40     0.013333 -4.52604e-05 -4.15963e-08     -19.0736 
          40     0.053333 -1.91693e-05 -5.67118e-07     -19.0736 
          40         0.12  3.31484e-05 -2.27279e-06     -19.0736 
          40     0.213332  8.65307e-05 -5.16501e-06     -19.0736 
          40     0.333332  0.000118445  -8.3925e-06     -19.0736 
          40         0.48  0.000126315 -1.12207e-05     -19.0736 
          40     0.653331  0.000117481 -1.37627e-05     -19.0736 
          40     0.853332  9.52328e-05  -1.6452e-05     -19.0736 
          40         1.08  6.58748e-05 -1.89612e-05     -19.0736 
          40      1.33333  3.54314e-05 -2.06256e-05     -19.0736 
          40      1.61333   1.4431e-06 -2.12379e-05     -19.0736 
          40         1.92 -3.67971e-05 -2.07525e-05     -19.0735 
          40      2.25333 -6.75802e-05 -1.92652e-05     -19.0735 
          40      2.61333 -8.81248e-05 -1.64097e-05     -19.0735 
          40            3 -9.77655e-05 -1.08941e-05     -19.0734 
          60            0           -0           -0     -18.6505 
          60     0.013333 -5.34133e-05 -2.50582e-08     -18.6505 
          60     0.053333 -5.69998e-05  -3.4364e-07     -18.6505 
          60         0.12 -4.61643e-05 -1.42155e-06     -18.6505 
          60     0.213332 -2.65479e-05 -3.49807e-06     -18.6505 
          60     0.333332 -4.98862e-06 -6.52365e-06     -18.6505 
          60         0.48  1.22447e-05 -1.04583e-05     -18.6505 
          60     0.653331  1.79198e-05 -1.55103e-05     -18.6505 
          60     0.853332  4.66569e-06 -2.20132e-05     -18.6505 
          60         1.08 -2.05173e-05 -2.95799e-05     -18.6505 
          60      1.33333 -3.80074e-05  -3.6863e-05     -18.6505 
          60      1.61333 -4.70827e-05 -4.27831e-05     -18.6505 
          60         1.92 -5.64838e-05 -4.65854e-05     -18.6505 
          60      2.25333 -6.28518e-05 -4.83172e-05     -18.6505 
          60      2.61333 -6.85971e-05 -4.79415e-05     -18.6504 
          60            3 -7.31073e-05 -4.47656e-05     -18.6504 
          80            0           -0           -0     -18.2406 
          80     0.013333 -4.86316e-05  9.14172e-09     -18.2406 
          80     0.053333  -5.1154e-05   1.4819e-07     -18.2406 
          80         0.12 -5.74419e-05  6.94815e-07     -18.2406 
          80     0.213332 -7.43631e-05  1.91095e-06     -18.2406 
          80     0.333332 -9.58581e-05  3.84824e-06     -18.2406 
          80         0.48 -0.000113562  6.36848e-06     -18.2406 
          80     0.653331 -0.000121897  9.35126e-06     -18.2406 
          80     0.853332 -0.000118637  1.27303e-05     -18.2406 
          80         1.08 -0.000107844  1.62265e-05     -18.2406 
          80      1.33333 -9.54133e-05  1.94385e-05     -18.2406 
          80      1.61333 -8.20486e-05  2.20683e-05     -18.2406 
          80         1.92 -6.67741e-05   2.3837e-05     -18.2406 
          80      2.25333  -5.4823e-05  2.44729e-05     -18.2406 
          80      2.61333 -4.61711e-05  2.40739e-05     -18.2406 
          80            3 -3.91286e-05  2.28091e-05     -18.2405 
         100            0            0            0     -17.8389 
         100     0.013333 -3.75865e-05 -9.46519e-09     -17.8389 
         100     0.053333 -9.61098e-06 -1.05671e-07     -17.8389 
         100         0.12  2.85328e-05 -2.69525e-07     -17.8389 
         100     0.213332  5.49914e-05 -1.16651e-07     -17.8389 
         100     0.333332  6.33653e-05  8.69757e-07     -17.8389 
         100         0.48  6.08646e-05  2.83372e-06     -17.8389 
         100     0.653331  5.47398e-05  5.43087e-06     -17.8389 
         100     0.853332  4.43652e-05  8.12575e-06     -17.8389 
         100         1.08  2.80733e-05   1.0604e-05     -17.8389 
         100      1.33333  8.70735e-06  1.27447e-05     -17.8389 
         100      1.61333 -1.12449e-05  1.44999e-05     -17.8389 
         100         1.92 -3.23879e-05  1.55501e-05     -17.8389 
         100      2.25333  -4.9493e-05   1.5833e-05     -17.8389 
         100      2.61333 -6.29374e-05  1.52115e-05     -17.8389 
         100            3 -7.60901e-05  1.34693e-05     -17.8389 
         150            0           -0           -0     -16.8538 
         150     0.013333 -5.33217e-05 -1.24887e-09     -16.8538 
         150     0.053333 -6.73349e-05 -4.17049e-08     -16.8538 
         150         0.12 -7.36017e-05  -3.2626e-07     -16.8538 
         150     0.213332  -7.0174e-05 -1.20613e-06     -16.8538 
         150     0.333332 -6.11292e-05 -2.82371e-06     -16.8538 
         150         0.48 -5.54086e-05 -4.91418e-06     -16.8538 
         150     0.653331 -5.56609e-05 -7.00562e-06     -16.8538 
         150     0.853332 -5.56474e-05 -8.57624e-06     -16.8538 
         150         1.08  -4.9803e-05 -9.26682e-06     -16.8538 
         150      1.33333 -4.38147e-05 -9.26916e-06     -16.8538 
         150      1.61333 -4.26062e-05 -8.98002e-06     -16.8538 
         150         1.92 -4.34357e-05 -8.38733e-06     -16.8538 
         150      2.25333 -4.51622e-05 -7.43129e-06     -16.8538 
         150      2.61333 -4.48068e-05 -6.16922e-06     -16.8538 
         150            3 -4.15424e-05 -4.92865e-06     -16.8538 
         200            0 -7.01474e-20 -2.18074e-26     -15.8798 
         200     0.013333 -3.51197e-05 -3.50938e-08     -15.8798 
         200     0.053333  2.91951e-06 -4.86868e-07     -15.8798 
         200         0.12  6.86183e-05  -1.9381e-06     -15.8798 
         200     0.213332  0.000134759  -4.3834e-06     -15.8798 
         200     0.333332  0.000177376 -7.09938e-06     -15.8798 
         200         0.48  0.000192304 -9.38185e-06     -15.8798 
         200     0.653331  0.000188718 -1.11855e-05     -15.8798 
         200     0.853332  0.000170408 -1.30727e-05     -15.8798 
         200         1.08  0.000136231 -1.54806e-05     -15.8798 
         200      1.33333   9.4372e-05  -1.8133e-05     -15.8798 
         200      1.61333  5.22775e-05 -2.03266e-05     -15.8798 
         200         1.92  6.83003e-06 -2.17857e-05     -15.8798 
         200      2.25333  -3.4799e-05 -2.24802e-05     -15.8798 
         200      2.61333 -7.13439e-05 -2.23581e-05     -15.8798 
         200            3 -0.000102618 -2.14531e-05     -15.8798 
         250            0           -0           -0     -14.9087 
         250     0.013333 -5.28726e-05  2.55198e-08     -14.9087 
         250     0.053333 -7.66339e-05  3.82015e-07     -14.9087 
         250         0.12 -0.000119628  1.70001e-06     -14.9087 
         250     0.213332 -0.000178022  4.38669e-06     -14.9087 
         250     0.333332 -0.000228513  8.14212e-06     -14.9087 
         250         0.48   -0.0002544  1.21823e-05     -14.9087 
         250     0.653331 -0.000256971   1.5904e-05     -14.9087 
         250     0.853332 -0.000245249  1.91272e-05     -14.9087 
         250         1.08 -0.000226066  2.17947e-05     -14.9087 
         250      1.33333 -0.000201677  2.38408e-05     -14.9087 
         250      1.61333  -0.00017101  2.52416e-05     -14.9087 
         250         1.92 -0.000134641  2.58457e-05     -14.9087 
         250      2.25333 -9.91042e-05  2.55926e-05     -14.9087 
         250      2.61333 -6.66536e-05  2.44533e-05     -14.9087 
         250            3 -3.76174e-05  2.25868e-05     -14.9087 
         300            0           -0           -0     -13.9373 
         300     0.013333  5.00011e-06  -1.9111e-08     -13.9373 
         300     0.053333  0.000141366 -2.02457e-07     -13.9373 
         300         0.12  0.000310518 -3.50671e-07     -13.9373 
         300     0.213332  0.000433914  8.48423e-07     -13.9373 
         300     0.333332  0.000472429  5.33697e-06     -13.9373 
         300         0.48  0.000446149  1.42495e-05     -13.9373 
         300     0.653331  0.000400441   2.7239e-05     -13.9373 
         300     0.853332  0.000360517  4.29486e-05     -13.9373 
         300         1.08  0.000320092  5.96901e-05     -13.9373 
         300      1.33333  0.000263764  7.58691e-05     -13.9373 
         300      1.61333  0.000191061  9.04658e-05     -13.9373 
         300         1.92  0.000110393  0.000102523     -13.9373 
         300      2.25333  2.99597e-05  0.000111107     -13.9373 
         300      2.61333 -4.40178e-05  0.000115643     -13.9373 
         300            3 -0.000106467    0.0001158     -13.9373 
         350            0           -0           -0     -12.9653 
         350     0.013333 -7.06932e-05 -1.00725e-07     -12.9653 
         350     0.053333  -0.00010562 -1.51295e-06     -12.9653 
         350         0.12 -7.99093e-05 -6.81193e-06     -12.9653 
         350     0.213332  1.73106e-05 -1.80577e-05     -12.9653 
         350     0.333332  0.000135156  -3.5174e-05     -12.9653 
         350         0.48  0.000215934  -5.6542e-05     -12.9653 
         350     0.653331  0.000237739 -8.09208e-05     -12.9653 
         350     0.853332  0.000203269 -0.000108044     -12.9653 
         350         1.08  0.000132999 -0.000137123     -12.9653 
         350      1.33333  6.90496e-05 -0.000165641     -12.9653 
         350      1.61333  3.10875e-05 -0.000190775     -12.9653 
         350         1.92 -3.54062e-06 -0.000210818     -12.9653 
         350      2.25333  -3.6737e-05 -0.000224347     -12.9653 
         350      2.61333 -6.60574e-05 -0.000230264     -12.9653 
         350            3 -8.91073e-05 -0.000228146     -12.9653 
         400            0           -0           -0     -11.9923 
         400     0.013333 -7.77359e-05  -5.2127e-08     -11.9923 
         400     0.053333 -0.000141485 -8.22194e-07     -11.9923 
         400         0.12 -0.000171904 -3.95007e-06     -11.9923 
         400     0.213332 -0.000138992 -1.12032e-05     -11.9923 
         400     0.333332  -6.4009e-05 -2.31899e-05     -11.9923 
         400         0.48  5.41789e-06 -3.91118e-05     -11.9923 
         400     0.653331  3.83823e-05 -5.78146e-05     -11.9923 
         400     0.853332   3.0755e-05 -7.84896e-05     -11.9923 
         400         1.08  9.32315e-07 -0.000100011     -11.9923 
         400      1.33333 -1.94348e-05 -0.000120405     -11.9923 
         400      1.61333 -2.17456e-05 -0.000138052     -11.9923 
         400         1.92 -2.47684e-05 -0.000152161     -11.9923 
         400      2.25333 -2.95747e-05 -0.000161884     -11.9923 
         400      2.61333 -3.49564e-05 -0.000166449     -11.9923 
         400            3 -4.11148e-05 -0.000165423     -11.9923 
         450            0 -2.97874e-20  7.64964e-27     -11.0176 
         450     0.013333 -2.15317e-05  6.41252e-09     -11.0176 
         450     0.053333  4.04115e-05  1.33227e-07     -11.0176 
         450         0.12  0.000107891  8.64967e-07     -11.0176 
         450     0.213332  0.000137172  3.20394e-06     -11.0176 
         450     0.333332  0.000115767  8.23674e-06     -11.0176 
         450         0.48  6.50299e-05  1.63351e-05     -11.0176 
         450     0.653331  1.50622e-05  2.69041e-05     -11.0176 
         450     0.853332 -1.99706e-05  3.89347e-05     -11.0176 
         450         1.08 -4.00612e-05  5.17327e-05     -11.0176 
         450      1.33333 -4.73457e-05  6.50201e-05     -11.0176 
         450      1.61333 -4.90805e-05  7.82709e-05     -11.0176 
         450         1.92 -5.34366e-05  9.03189e-05     -11.0176 
         450      2.25333 -5.95146e-05  0.000100216     -11.0176 
         450      2.61333 -6.51388e-05   0.00010717     -11.0176 
         450            3 -6.89883e-05  0.000110649     -11.0176 
         500            0            0            0     -10.0412 
         500     0.013333 -0.000103726 -7.75328e-08     -10.0412 
         500     0.053333 -0.000226706 -1.23171e-06     -10.0412 
         500         0.12  -0.00030673 -5.99515e-06     -10.0412 
         500     0.213332  -0.00027889 -1.73146e-05     -10.0412 
         500     0.333332 -0.000164741 -3.65846e-05     -10.0412 
         500         0.48 -4.16444e-05 -6.29072e-05     -10.0412 
         500     0.653331  3.01123e-05  -9.4416e-05     -10.0412 
         500     0.853332  3.52856e-05 -0.000129594     -10.0412 
         500         1.08 -2.76749e-06  -0.00016678     -10.0412 
         500      1.33333 -3.60472e-05 -0.000203228     -10.0412 
         500      1.61333 -4.00005e-05 -0.000236251     -10.0412 
         500         1.92 -3.73436e-05 -0.000264424     -10.0412 
         500      2.25333 -3.66573e-05    -0.000286     -10.0412 
         500      2.61333 -3.78107e-05 -0.000299513     -10.0412 
         500            3 -4.01201e-05 -0.000303855     -10.0412 
         550            0           -0           -0     -9.06264 
         550     0.013333 -1.41808e-05  -8.6789e-09     -9.06264 
         550     0.053333  7.52869e-05  -1.1659e-07     -9.06264 
         550         0.12   0.00020032 -4.11881e-07     -9.06264 
         550     0.213332  0.000315279 -6.15658e-07     -9.06264 
         550     0.333332  0.000382642  1.45081e-07     -9.06264 
         550         0.48  0.000390706  3.00086e-06     -9.06264 
         550     0.653331   0.00035766  8.67508e-06     -9.06264 
         550     0.853332  0.000313983  1.73085e-05     -9.06264 
         550         1.08  0.000282964  2.87715e-05     -9.06264 
         550      1.33333  0.000265049   4.2461e-05     -9.06264 
         550      1.61333  0.000236801  5.68043e-05     -9.06265 
         550         1.92  0.000187078  7.02235e-05     -9.06265 
         550      2.25333   0.00012653  8.19435e-05     -9.06265 
         550      2.61333  6.24362e-05  9.13403e-05     -9.06265 
         550            3 -1.40773e-06  9.78533e-05     -9.06266 
         600            0           -0           -0     -8.08291 
         600     0.013333 -8.88074e-05  1.47149e-07     -8.08291 
         600     0.053333  -0.00024186  2.14326e-06     -8.08291 
         600         0.12 -0.000527776  9.22975e-06     -8.08291 
         600     0.213332  -0.00089298  2.31721e-05     -8.08291 
         600     0.333332  -0.00120982  4.23477e-05     -8.08291 
         600         0.48  -0.00138953    6.325e-05     -8.08291 
         600     0.653331   -0.0014358  8.36521e-05     -8.08291 
         600     0.853332  -0.00138939  0.000103951     -8.08291 
         600         1.08  -0.00127013  0.000125782     -8.08291 
         600      1.33333  -0.00109855  0.000149266     -8.08291 
         600      1.61333 -0.000917211   0.00017213     -8.08291 
         600         1.92 -0.000736478  0.000192115     -8.08291 
         600      2.25333 -0.000545224  0.000207906      -8.0829 
         600      2.61333 -0.000345218  0.000218612     -8.08289 
         600            3 -0.000150405  0.000223381     -8.08288 
         650            0            0            0     -7.10086 
         650     0.013333 -3.28606e-05 -1.03531e-07     -7.10086 
         650     0.053333  3.16149e-05 -1.49927e-06     -7.10086 
         650         0.12   0.00017884 -6.40826e-06     -7.10086 
         650     0.213332  0.000374575 -1.59968e-05     -7.10086 
         650     0.333332  0.000544914 -2.92457e-05     -7.10086 
         650         0.48  0.000641021 -4.41448e-05     -7.10086 
         650     0.653331  0.000667281  -5.9718e-05     -7.10086 
         650     0.853332  0.000642789 -7.67096e-05     -7.10086 
         650         1.08  0.000567562 -9.65955e-05     -7.10086 
         650      1.33333  0.000448713 -0.000119544     -7.10086 
         650      1.61333  0.000327966 -0.000143274     -7.10086 
         650         1.92  0.000229925  -0.00016492     -7.10086 
         650      2.25333  0.000138313 -0.000183087     -7.10087 
         650      2.61333  4.56461e-05 -0.000196746     -7.10087 
         650            3 -4.30117e-05 -0.000205051     -7.10088 
         700            0            0            0      -6.1189 
         700     0.013333  -0.00011799  5.80674e-08      -6.1189 
         700     0.053333 -0.000317687  7.70464e-07      -6.1189 
         700         0.12 -0.000584305  2.78839e-06      -6.1189 
         700     0.213332 -0.000820802  5.18358e-06      -6.1189 
         700     0.333332 -0.000939551  5.36148e-06      -6.1189 
         700         0.48 -0.000934252  1.06148e-06      -6.1189 
         700     0.653331 -0.000865509 -7.83079e-06      -6.1189 
         700     0.853332 -0.000786457 -1.94269e-05      -6.1189 
         700         1.08 -0.000701875 -3.11856e-05      -6.1189 
         700      1.33333 -0.000597589 -4.14623e-05      -6.1189 
         700      1.61333 -0.000484308 -5.04062e-05      -6.1189 
         700         1.92 -0.000380792 -5.91435e-05      -6.1189 
         700      2.25333 -0.000278656 -6.71554e-05     -6.11889 
         700      2.61333 -0.000173723 -7.39364e-05     -6.11889 
         700            3 -7.17825e-05 -7.90408e-05     -6.11888 
         750            0           -0           -0     -5.13469 
         750     0.013333  3.02732e-05 -1.45171e-07     -5.13469 
         750     0.053333  0.000275931 -2.07899e-06     -5.13469 
         750         0.12  0.000685909  -8.7112e-06     -5.13469 
         750     0.213332   0.00115224 -2.10616e-05     -5.13469 
         750     0.333332   0.00151968 -3.66434e-05     -5.13469 
         750         0.48   0.00170218 -5.14389e-05     -5.13469 
         750     0.653331   0.00172785 -6.32378e-05     -5.13469 
         750     0.853332   0.00166417 -7.28956e-05     -5.13469 
         750         1.08    0.0015375 -8.31203e-05     -5.13469 
         750      1.33333   0.00134738 -9.56933e-05     -5.13469 
         750      1.61333   0.00112344 -0.000109648     -5.13469 
         750         1.92  0.000901658 -0.000122556     -5.13469 
         750      2.25333  0.000673463 -0.000133009      -5.1347 
         750      2.61333  0.000434013 -0.000140621     -5.13471 
         750            3  0.000191555 -0.000144933     -5.13473 
         800            0            0            0     -4.15022 
         800     0.013333   1.5667e-05  1.13635e-07     -4.15022 
         800     0.053333  0.000144001  1.74818e-06     -4.15022 
         800         0.12  0.000217007  8.20055e-06     -4.15022 
         800     0.213332   0.00014831  2.29791e-05     -4.15022 
         800     0.333332  -3.3359e-05  4.76497e-05     -4.15022 
         800         0.48 -0.000232394  8.12246e-05     -4.15022 
         800     0.653331 -0.000372186  0.000121652     -4.15022 
         800     0.853332 -0.000424619  0.000167575     -4.15022 
         800         1.08 -0.000390558  0.000218528     -4.15022 
         800      1.33333 -0.000299731  0.000273112     -4.15022 
         800      1.61333 -0.000213607  0.000327765     -4.15022 
         800         1.92 -0.000168064   0.00037855     -4.15022 
         800      2.25333 -0.000136238   0.00042279     -4.15022 
         800      2.61333 -0.000102397   0.00045835     -4.15022 
         800            3 -6.88417e-05  0.000483043     -4.15021 
         850            0           -0           -0       -3.164 
         850     0.013333 -7.12807e-05  8.81419e-08       -3.164 
         850     0.053333 -0.000166731  1.32202e-06       -3.164 
         850         0.12 -0.000362394   5.9725e-06       -3.164 
         850     0.213332 -0.000647221  1.59623e-05       -3.164 
         850     0.333332 -0.000938946  3.12619e-05       -3.164 
         850         0.48  -0.00114652  4.97974e-05       -3.164 
         850     0.653331  -0.00123558  6.90282e-05       -3.164 
         850     0.853332  -0.00123053   8.7474e-05       -3.164 
         850         1.08  -0.00117222  0.000104845       -3.164 
         850      1.33333   -0.0010861  0.000121366       -3.164 
         850      1.61333 -0.000976578  0.000137283       -3.164 
         850         1.92 -0.000841679  0.000152522     -3.16399 
         850      2.25333 -0.000688798  0.000166032     -3.16399 
         850      2.61333  -0.00052441  0.000176845     -3.16399 
         850            3 -0.000352517  0.000184104     -3.16398 
         900            0           -0           -0     -2.17668 
         900     0.013333 -0.000241914  -2.5564e-09     -2.17668 
         900     0.053333 -0.000747263 -2.51366e-07     -2.17668 
         900         0.12   -0.0013391 -2.59719e-06     -2.17668 
         900     0.213332  -0.00176077 -1.17856e-05     -2.17668 
         900     0.333332  -0.00187223 -3.36836e-05     -2.17668 
         900         0.48  -0.00173921 -7.13367e-05     -2.17668 
         900     0.653331  -0.00153836  -0.00012316     -2.17668 
         900     0.853332  -0.00139637 -0.000184593     -2.17668 
         900         1.08   -0.0013177 -0.000250222     -2.17669 
         900      1.33333  -0.00122606 -0.000314932     -2.17668 
         900      1.61333  -0.00107171 -0.000375425     -2.17668 
         900         1.92 -0.000886782 -0.000431042     -2.17668 
         900      2.25333 -0.000695648 -0.000480605     -2.17667 
         900      2.61333 -0.000499871  -0.00052175     -2.17666 
         900            3 -0.000298482  -0.00055171     -2.17665 
         950            0           -0           -0     -1.18693 
         950     0.013333  3.86378e-05 -2.31713e-07     -1.18693 
         950     0.053333  0.000336488 -3.36844e-06     -1.18693 
         950         0.12  0.000886149 -1.44569e-05     -1.18693 
         950     0.213332   0.00157133 -3.61434e-05     -1.18693 
         950     0.333332   0.00216113 -6.56399e-05     -1.18693 
         950         0.48   0.00248994 -9.70373e-05     -1.18693 
         950     0.653331   0.00256537  -0.00012647     -1.18693 
         950     0.853332   0.00248166 -0.000154738     -1.18693 
         950         1.08    0.0022867   -0.0001858     -1.18693 
         950      1.33333   0.00198531 -0.000222449     -1.18693 
         950      1.61333   0.00163446 -0.000262644     -1.18693 
         950         1.92   0.00132162 -0.000301022     -1.18694 
         950      2.25333   0.00102748 -0.000334369     -1.18695 
         950      2.61333  0.000724658 -0.000361279     -1.18696 
         950            3  0.000410572  -0.00038064     -1.18698 
        1000            0   7.7635e-21  6.31723e-24    -0.197537 
        1000     0.013333  7.95818e-05  2.02529e-07    -0.197537 
        1000     0.053333  0.000364117  2.98977e-06    -0.197537 
        1000         0.12  0.000594293  1.43681e-05    -0.197537 
        1000     0.213332  0.000589968  4.16138e-05    -0.197537 
        1000     0.333332  0.000351435  8.88765e-05    -0.197537 
        1000         0.48  2.92512e-05   0.00015482    -0.197537 
        1000     0.653331 -0.000213464  0.000234843    -0.197537 
        1000     0.853332 -0.000295125  0.000324892    -0.197537 
        1000         1.08 -0.000222604  0.000422321    -0.197537 
        1000      1.33333 -8.21537e-05  0.000523316    -0.197538 
        1000      1.61333  7.61085e-08  0.000621691    -0.197539 
        1000         1.92 -1.42172e-05  0.000712182    -0.197541 
        1000      2.25333 -5.49876e-05  0.000792463    -0.197545 
        1000      2.61333 -8.65546e-05  0.000860009    -0.197549 
        1000            3 -0.000115992  0.000911497    -0.197554 
