Variables = x, y, u, v, p

Zone, I=416, F=POINT
         -50            0 -1.79928e-19 -1.54349e-23     -32.8443 
         -50     0.013333  -0.00015968 -3.84921e-08     -32.8443 
         -50     0.053333 -0.000143793 -1.57303e-07     -32.8443 
         -50         0.12 -0.000142866  -3.9385e-07     -32.8443 
         -50     0.213332 -0.000142598 -7.09195e-07     -32.8443 
         -50     0.333332 -0.000140735 -1.52659e-06     -32.8442 
         -50         0.48  -0.00013877 -3.74788e-06     -32.8442 
         -50     0.653331 -0.000139066 -4.21323e-06     -32.8441 
         -50     0.853332 -0.000140072  -6.1293e-06     -32.8439 
         -50         1.08  -0.00014002 -8.54286e-06     -32.8437 
         -50      1.33333 -0.000138592 -1.01431e-05     -32.8433 
         -50      1.61333 -0.000135699 -1.17539e-05     -32.8429 
         -50         1.92 -0.000130633 -1.28053e-05     -32.8423 
         -50      2.25333 -0.000131493 -1.50651e-05     -32.8416 
         -50      2.61333 -0.000141087 -1.97131e-05     -32.8407 
         -50            3 -0.000151221  -2.5244e-05     -32.8395 
         -25            0           -0           -0     -31.5241 
         -25     0.013333 -0.000112868 -1.50253e-08     -31.5241 
         -25     0.053333 -9.17554e-05 -5.19649e-08     -31.5241 
         -25         0.12 -8.18219e-05  -6.1225e-08     -31.5241 
         -25     0.213332 -7.77594e-05  9.63648e-08     -31.5241 
         -25     0.333332 -7.78141e-05  5.86052e-07     -31.5241 
         -25         0.48 -7.84034e-05  1.44185e-06      -31.524 
         -25     0.653331 -7.74766e-05  2.34602e-06      -31.524 
         -25     0.853332 -7.64231e-05   3.5246e-06     -31.5239 
         -25         1.08 -7.75076e-05  4.64369e-06     -31.5238 
         -25      1.33333 -8.10998e-05  5.39388e-06     -31.5237 
         -25      1.61333 -8.80447e-05  5.77293e-06     -31.5235 
         -25         1.92 -9.68118e-05  5.87777e-06     -31.5233 
         -25      2.25333 -9.95197e-05  5.39547e-06      -31.523 
         -25      2.61333 -9.56354e-05  6.19865e-06     -31.5227 
         -25            3 -9.05047e-05  9.98151e-06     -31.5222 
           0            0            0            0     -30.4395 
           0     0.013333 -0.000325549  0.000200854     -30.4409 
           0     0.053333 -0.000196569  0.000103647      -30.443 
           0         0.12 -0.000151635  7.03205e-05     -30.4453 
           0     0.213332 -0.000121194  5.45766e-05     -30.4478 
           0     0.333332  -9.9411e-05  4.34079e-05     -30.4504 
           0         0.48 -8.73116e-05  3.40578e-05     -30.4531 
           0     0.653331 -8.37136e-05  2.59421e-05     -30.4556 
           0     0.853332 -8.38856e-05   1.8777e-05     -30.4582 
           0         1.08 -8.36484e-05  1.24871e-05     -30.4606 
           0      1.33333 -8.16902e-05  7.14905e-06      -30.463 
           0      1.61333 -7.91088e-05  2.77622e-06     -30.4653 
           0         1.92 -7.81407e-05 -5.25872e-07     -30.4674 
           0      2.25333 -7.93513e-05 -2.96255e-06     -30.4693 
           0      2.61333 -8.08529e-05 -4.28487e-06     -30.4711 
           0            3 -7.95784e-05 -5.07277e-06     -30.4728 
          20            0            0            0     -29.7717 
          20     0.013333  -0.00010395 -2.66032e-08     -29.7717 
          20     0.053333 -0.000122984 -3.28211e-07     -29.7717 
          20         0.12   -0.0001465  -1.4979e-06     -29.7717 
          20     0.213332 -0.000156411 -4.12609e-06     -29.7717 
          20     0.333332  -0.00015691 -8.42652e-06     -29.7717 
          20         0.48 -0.000157122 -1.42661e-05     -29.7717 
          20     0.653331   -0.0001593  -2.1261e-05     -29.7716 
          20     0.853332 -0.000161214  -2.8822e-05     -29.7716 
          20         1.08 -0.000158008 -3.61717e-05     -29.7716 
          20      1.33333 -0.000144147 -4.22414e-05     -29.7715 
          20      1.61333 -0.000122393 -4.64194e-05     -29.7714 
          20         1.92  -9.7882e-05 -4.79369e-05     -29.7713 
          20      2.25333 -7.74561e-05 -4.74935e-05     -29.7711 
          20      2.61333 -6.04315e-05 -4.42098e-05     -29.7709 
          20            3  -4.2835e-05 -3.63798e-05     -29.7707 
          40            0            0            0      -29.085 
          40     0.013333  -7.5188e-05   -9.074e-09      -29.085 
          40     0.053333 -4.12277e-05 -8.07854e-08      -29.085 
          40         0.12 -1.16234e-05 -1.88248e-07      -29.085 
          40     0.213332  6.19137e-06 -5.47995e-09      -29.085 
          40     0.333332  7.92028e-06   9.5714e-07      -29.085 
          40         0.48  8.45199e-07  2.97626e-06      -29.085 
          40     0.653331 -5.93661e-06  5.94306e-06      -29.085 
          40     0.853332 -1.18923e-05  9.41875e-06      -29.085 
          40         1.08 -2.24491e-05  1.29233e-05      -29.085 
          40      1.33333 -3.82183e-05  1.61676e-05     -29.0849 
          40      1.61333 -5.53101e-05  1.89639e-05     -29.0849 
          40         1.92 -7.01799e-05  2.10173e-05     -29.0849 
          40      2.25333  -8.1239e-05  2.20843e-05     -29.0848 
          40      2.61333 -8.51296e-05  2.26065e-05     -29.0847 
          40            3 -8.05003e-05  2.36024e-05     -29.0846 
          60            0           -0           -0     -28.4329 
          60     0.013333 -7.66784e-05 -3.33267e-08     -28.4329 
          60     0.053333 -4.80971e-05 -4.62023e-07     -28.4329 
          60         0.12 -7.34428e-06 -1.93926e-06     -28.4329 
          60     0.213332  4.17718e-05 -4.73217e-06     -28.4329 
          60     0.333332   8.1529e-05 -8.42197e-06     -28.4329 
          60         0.48  0.000102605 -1.24081e-05     -28.4329 
          60     0.653331  0.000104629 -1.65306e-05     -28.4329 
          60     0.853332  8.76214e-05 -2.09972e-05     -28.4329 
          60         1.08  5.67067e-05 -2.56279e-05     -28.4329 
          60      1.33333  2.19374e-05 -2.98286e-05     -28.4329 
          60      1.61333 -1.44573e-05  -3.2962e-05     -28.4329 
          60         1.92 -5.40421e-05 -3.47536e-05     -28.4328 
          60      2.25333 -8.27964e-05 -3.47126e-05     -28.4328 
          60      2.61333 -0.000100566  -3.3477e-05     -28.4328 
          60            3 -0.000113038 -3.18176e-05     -28.4327 
          80            0           -0           -0      -27.801 
          80     0.013333 -9.39226e-05 -1.66787e-08      -27.801 
          80     0.053333 -0.000117959 -2.59934e-07      -27.801 
          80         0.12 -0.000143966 -1.30095e-06      -27.801 
          80     0.213332 -0.000148423 -3.86817e-06      -27.801 
          80     0.333332 -0.000133345 -8.39816e-06      -27.801 
          80         0.48 -0.000114566 -1.48425e-05      -27.801 
          80     0.653331 -0.000105446 -2.28697e-05      -27.801 
          80     0.853332 -0.000107187 -3.19266e-05      -27.801 
          80         1.08 -0.000108526 -4.10409e-05      -27.801 
          80      1.33333 -0.000101064 -4.91092e-05     -27.8009 
          80      1.61333 -9.03801e-05 -5.54979e-05     -27.8009 
          80         1.92 -8.20574e-05 -5.94984e-05     -27.8009 
          80      2.25333 -7.50147e-05  -6.0732e-05     -27.8009 
          80      2.61333 -6.93679e-05 -5.95055e-05     -27.8009 
          80            3 -6.59521e-05 -5.69132e-05     -27.8008 
         100            0            0            0     -27.1816 
         100     0.013333  -8.5148e-05  1.80606e-08     -27.1816 
         100     0.053333 -9.94537e-05  2.60998e-07     -27.1816 
         100         0.12 -0.000136221  1.06809e-06     -27.1816 
         100     0.213332 -0.000178143  2.50778e-06     -27.1816 
         100     0.333332 -0.000210255  4.24817e-06     -27.1816 
         100         0.48 -0.000227217  5.85585e-06     -27.1816 
         100     0.653331 -0.000231283  7.18684e-06     -27.1816 
         100     0.853332 -0.000222088  8.52381e-06     -27.1816 
         100         1.08 -0.000198688  1.01339e-05     -27.1816 
         100      1.33333 -0.000168277  1.18659e-05     -27.1816 
         100      1.61333 -0.000136258  1.32506e-05     -27.1816 
         100         1.92 -0.000101794  1.42905e-05     -27.1816 
         100      2.25333  -7.3038e-05  1.46374e-05     -27.1815 
         100      2.61333 -5.25078e-05  1.45856e-05     -27.1815 
         100            3 -3.76918e-05   1.5014e-05     -27.1815 
         150            0           -0           -0     -25.6626 
         150     0.013333 -7.56513e-05  8.25718e-08     -25.6626 
         150     0.053333 -8.59447e-05  1.21579e-06     -25.6626 
         150         0.12 -0.000154166  5.28854e-06     -25.6626 
         150     0.213332 -0.000261917  1.34155e-05     -25.6626 
         150     0.333332 -0.000359616  2.49028e-05     -25.6626 
         150         0.48 -0.000413275  3.82324e-05     -25.6626 
         150     0.653331 -0.000419333  5.26303e-05     -25.6626 
         150     0.853332 -0.000383949  6.81178e-05     -25.6626 
         150         1.08 -0.000322885  8.39965e-05     -25.6626 
         150      1.33333 -0.000260208  9.85476e-05     -25.6626 
         150      1.61333 -0.000199232  0.000110172     -25.6626 
         150         1.92 -0.000131724  0.000117526     -25.6626 
         150      2.25333 -7.43279e-05  0.000120185     -25.6626 
         150      2.61333   -3.068e-05   0.00011794     -25.6626 
         150            3  4.04019e-07  0.000111519     -25.6626 
         200            0 -1.83636e-19 -6.56191e-26     -24.1623 
         200     0.013333 -9.28979e-05  2.80032e-08     -24.1623 
         200     0.053333 -0.000132403   3.6175e-07     -24.1623 
         200         0.12 -0.000194472  1.25586e-06     -24.1623 
         200     0.213332 -0.000244196  2.26008e-06     -24.1623 
         200     0.333332 -0.000263542  2.48792e-06     -24.1623 
         200         0.48  -0.00026067  1.56132e-06     -24.1623 
         200     0.653331 -0.000249897 -1.88437e-08     -24.1623 
         200     0.853332 -0.000230863 -1.22944e-06     -24.1623 
         200         1.08 -0.000197653 -1.37484e-06     -24.1623 
         200      1.33333 -0.000158876 -6.96224e-07     -24.1623 
         200      1.61333 -0.000122793  7.63818e-08     -24.1622 
         200         1.92  -8.4401e-05  7.92092e-07     -24.1622 
         200      2.25333 -4.82549e-05  1.59488e-06     -24.1622 
         200      2.61333 -2.02194e-05  2.15044e-06     -24.1622 
         200            3 -3.62691e-06  2.50426e-06     -24.1622 
         250            0           -0           -0     -22.6683 
         250     0.013333 -0.000109075  8.81305e-10     -22.6683 
         250     0.053333 -0.000185017  -4.5306e-08     -22.6683 
         250         0.12 -0.000278188 -5.76938e-07     -22.6683 
         250     0.213332 -0.000338544 -2.64482e-06     -22.6683 
         250     0.333332 -0.000350765 -7.32932e-06     -22.6683 
         250         0.48 -0.000334549  -1.4978e-05     -22.6683 
         250     0.653331 -0.000316932 -2.51444e-05     -22.6683 
         250     0.853332 -0.000306303 -3.68218e-05     -22.6683 
         250         1.08 -0.000288974 -4.85875e-05     -22.6683 
         250      1.33333 -0.000252798 -5.91342e-05     -22.6683 
         250      1.61333 -0.000205055 -6.80192e-05     -22.6683 
         250         1.92 -0.000152791 -7.46977e-05     -22.6683 
         250      2.25333 -0.000101194 -7.86166e-05     -22.6683 
         250      2.61333 -5.43152e-05 -7.95607e-05     -22.6683 
         250            3 -1.49178e-05 -7.75167e-05     -22.6683 
         300            0           -0           -0     -21.1765 
         300     0.013333 -5.06738e-05  3.21791e-08     -21.1765 
         300     0.053333   1.1476e-05  5.24141e-07     -21.1765 
         300         0.12  4.77126e-05  2.62663e-06     -21.1765 
         300     0.213332  3.26017e-05  7.77792e-06     -21.1765 
         300     0.333332  -2.1195e-05  1.67176e-05     -21.1765 
         300         0.48 -7.63981e-05  2.89944e-05     -21.1765 
         300     0.653331 -0.000107104  4.35369e-05     -21.1765 
         300     0.853332 -0.000111486  5.93057e-05     -21.1765 
         300         1.08 -0.000103114  7.53249e-05     -21.1765 
         300      1.33333 -9.57625e-05   9.0575e-05     -21.1765 
         300      1.61333 -9.23308e-05  0.000104138     -21.1765 
         300         1.92 -8.79683e-05  0.000114897     -21.1765 
         300      2.25333 -8.35694e-05  0.000121987     -21.1765 
         300      2.61333 -7.80039e-05  0.000124829     -21.1765 
         300            3  -6.9622e-05  0.000123352     -21.1765 
         350            0           -0           -0     -19.6853 
         350     0.013333 -2.88648e-05 -3.47907e-08     -19.6853 
         350     0.053333   0.00010699 -4.31624e-07     -19.6853 
         350         0.12  0.000270327 -1.35902e-06     -19.6853 
         350     0.213332  0.000400135 -1.83083e-06     -19.6853 
         350     0.333332  0.000456276 -8.56524e-08     -19.6853 
         350         0.48  0.000452384  4.92771e-06     -19.6853 
         350     0.653331  0.000426675  1.27931e-05     -19.6853 
         350     0.853332  0.000396559  2.20001e-05     -19.6853 
         350         1.08    0.0003497  3.07293e-05     -19.6853 
         350      1.33333  0.000278177   3.7924e-05     -19.6853 
         350      1.61333  0.000196817   4.3847e-05     -19.6853 
         350         1.92  0.000112214  4.86705e-05     -19.6853 
         350      2.25333  2.74028e-05  5.18573e-05     -19.6853 
         350      2.61333 -5.28297e-05  5.32545e-05     -19.6853 
         350            3 -0.000121738   5.2801e-05     -19.6853 
         400            0           -0           -0     -18.1946 
         400     0.013333 -9.85952e-05  -5.2856e-08     -18.1946 
         400     0.053333 -0.000134183 -8.13745e-07     -18.1946 
         400         0.12 -0.000148717 -3.79848e-06     -18.1946 
         400     0.213332 -0.000111198 -1.05014e-05     -18.1946 
         400     0.333332 -4.21998e-05 -2.13342e-05     -18.1946 
         400         0.48  1.84998e-05 -3.55598e-05     -18.1946 
         400     0.653331  4.71774e-05 -5.22264e-05     -18.1946 
         400     0.853332  4.09563e-05 -7.07732e-05     -18.1946 
         400         1.08  1.15757e-05 -9.05178e-05     -18.1946 
         400      1.33333 -1.72031e-05 -0.000110048     -18.1946 
         400      1.61333 -3.13011e-05 -0.000127694     -18.1946 
         400         1.92 -4.17415e-05 -0.000142151     -18.1946 
         400      2.25333 -5.15884e-05 -0.000152663     -18.1946 
         400      2.61333 -6.16061e-05 -0.000158242     -18.1946 
         400            3 -7.16953e-05 -0.000158365     -18.1946 
         450            0 -9.23213e-20  2.45697e-29     -16.7037 
         450     0.013333 -9.39216e-05 -8.53427e-09     -16.7037 
         450     0.053333 -0.000127374  -1.7391e-07     -16.7037 
         450         0.12 -0.000160212 -1.07544e-06     -16.7037 
         450     0.213332 -0.000158811 -3.71276e-06     -16.7037 
         450     0.333332 -0.000124717  -8.8026e-06     -16.7037 
         450         0.48 -8.59633e-05 -1.61027e-05     -16.7037 
         450     0.653331 -6.56355e-05 -2.46321e-05     -16.7037 
         450     0.853332 -6.30568e-05 -3.32733e-05     -16.7037 
         450         1.08 -6.12211e-05 -4.10058e-05     -16.7037 
         450      1.33333 -4.97625e-05 -4.72301e-05     -16.7037 
         450      1.61333 -3.77627e-05 -5.21499e-05     -16.7037 
         450         1.92 -3.25506e-05  -5.5895e-05     -16.7037 
         450      2.25333 -3.09196e-05 -5.82281e-05     -16.7037 
         450      2.61333 -3.08185e-05 -5.88572e-05     -16.7037 
         450            3   -3.183e-05 -5.76388e-05     -16.7037 
         500            0            0            0     -15.2129 
         500     0.013333 -6.18027e-05  9.97358e-08     -15.2129 
         500     0.053333 -4.82205e-05    1.506e-06     -15.2129 
         500         0.12 -0.000117839  6.85404e-06     -15.2129 
         500     0.213332 -0.000280422  1.84527e-05     -15.2129 
         500     0.333332 -0.000474979  3.65166e-05     -15.2129 
         500         0.48 -0.000624996  5.92731e-05     -15.2129 
         500     0.653331 -0.000697375  8.47677e-05     -15.2129 
         500     0.853332 -0.000696902  0.000112181     -15.2129 
         500         1.08 -0.000639027  0.000141295     -15.2129 
         500      1.33333 -0.000551568  0.000170962     -15.2129 
         500      1.61333 -0.000465377  0.000198907     -15.2129 
         500         1.92 -0.000378516  0.000222948     -15.2129 
         500      2.25333 -0.000285958  0.000241824     -15.2129 
         500      2.61333 -0.000189675  0.000253883     -15.2129 
         500            3 -9.62586e-05  0.000257991     -15.2129 
         550            0           -0           -0     -13.7217 
         550     0.013333 -0.000135464 -6.53437e-08     -13.7217 
         550     0.053333  -0.00026185 -1.04286e-06     -13.7217 
         550         0.12 -0.000370438 -5.13366e-06     -13.7217 
         550     0.213332 -0.000377099 -1.51108e-05     -13.7217 
         550     0.333332 -0.000283984  -3.2722e-05     -13.7217 
         550         0.48 -0.000157315  -5.7724e-05     -13.7217 
         550     0.653331 -6.18104e-05 -8.85688e-05     -13.7217 
         550     0.853332 -2.35093e-05 -0.000123663     -13.7217 
         550         1.08 -3.37256e-05 -0.000161614     -13.7217 
         550      1.33333 -6.10403e-05 -0.000200544     -13.7217 
         550      1.61333 -7.44257e-05 -0.000237938     -13.7217 
         550         1.92 -7.39753e-05  -0.00027142     -13.7217 
         550      2.25333 -7.00573e-05 -0.000298897     -13.7217 
         550      2.61333 -6.64123e-05 -0.000318465     -13.7217 
         550            3 -6.26949e-05 -0.000328615     -13.7217 
         600            0           -0           -0     -12.2305 
         600     0.013333 -3.07678e-05   5.1353e-08     -12.2305 
         600     0.053333  7.84871e-05  8.24446e-07     -12.2305 
         600         0.12  0.000161038  4.05924e-06     -12.2305 
         600     0.213332  0.000170708  1.18185e-05     -12.2305 
         600     0.333332  0.000122285   2.5046e-05     -12.2305 
         600         0.48  7.05216e-05  4.29988e-05     -12.2305 
         600     0.653331  5.59317e-05  6.42607e-05     -12.2305 
         600     0.853332   8.3971e-05  8.77115e-05     -12.2305 
         600         1.08  0.000129897  0.000112063     -12.2305 
         600      1.33333  0.000152056  0.000135226     -12.2305 
         600      1.61333  0.000132901  0.000155435     -12.2305 
         600         1.92   9.8788e-05  0.000172161     -12.2305 
         600      2.25333  6.19473e-05   0.00018485     -12.2305 
         600      2.61333  2.35461e-05  0.000192699     -12.2305 
         600            3 -1.60389e-05  0.000194926     -12.2305 
         650            0            0            0     -10.7389 
         650     0.013333 -3.79046e-05 -1.50381e-07     -10.7389 
         650     0.053333  0.000115183 -2.20835e-06     -10.7389 
         650         0.12  0.000403418 -9.61884e-06     -10.7389 
         650     0.213332  0.000778457   -2.444e-05     -10.7389 
         650     0.333332   0.00110536 -4.51075e-05     -10.7389 
         650         0.48   0.00128186 -6.77507e-05     -10.7389 
         650     0.653331   0.00130741 -8.96316e-05     -10.7389 
         650     0.853332   0.00123248 -0.000110797     -10.7389 
         650         1.08   0.00109238 -0.000132636     -10.7389 
         650      1.33333  0.000918804 -0.000154996     -10.7389 
         650      1.61333  0.000752531  -0.00017567     -10.7389 
         650         1.92  0.000592482 -0.000192564      -10.739 
         650      2.25333  0.000421061 -0.000205377      -10.739 
         650      2.61333   0.00023868  -0.00021309      -10.739 
         650            3  5.78616e-05 -0.000214756      -10.739 
         700            0            0            0     -9.24824 
         700     0.013333 -3.52394e-05  1.88601e-07     -9.24824 
         700     0.053333  1.98601e-05  2.85309e-06     -9.24824 
         700         0.12 -6.93101e-05  1.30418e-05     -9.24824 
         700     0.213332 -0.000348188  3.53788e-05     -9.24824 
         700     0.333332 -0.000714872  7.07429e-05     -9.24824 
         700         0.48  -0.00101791   0.00011619     -9.24824 
         700     0.653331  -0.00117829  0.000168109     -9.24824 
         700     0.853332  -0.00119579  0.000224868     -9.24824 
         700         1.08  -0.00109477  0.000286377     -9.24824 
         700      1.33333  -0.00092197  0.000351149     -9.24824 
         700      1.61333 -0.000752969  0.000414788     -9.24824 
         700         1.92 -0.000614236   0.00047271     -9.24823 
         700      2.25333 -0.000477186  0.000521658     -9.24823 
         700      2.61333 -0.000330291  0.000558832     -9.24822 
         700            3 -0.000184697  0.000581637     -9.24821 
         750            0           -0           -0     -7.75676 
         750     0.013333 -0.000170549 -4.66801e-08     -7.75676 
         750     0.053333 -0.000395833 -7.89696e-07     -7.75676 
         750         0.12 -0.000644227 -4.16215e-06     -7.75676 
         750     0.213332 -0.000793016 -1.30361e-05     -7.75676 
         750     0.333332 -0.000808801 -2.97002e-05     -7.75676 
         750         0.48 -0.000745906 -5.45444e-05     -7.75676 
         750     0.653331 -0.000680875  -8.6412e-05     -7.75676 
         750     0.853332 -0.000657845 -0.000123769     -7.75676 
         750         1.08  -0.00067429 -0.000164864     -7.75676 
         750      1.33333 -0.000685255 -0.000206982     -7.75676 
         750      1.61333 -0.000642981 -0.000246717     -7.75676 
         750         1.92 -0.000554262 -0.000282116     -7.75676 
         750      2.25333  -0.00044903 -0.000311712     -7.75675 
         750      2.61333 -0.000338944 -0.000334341     -7.75675 
         750            3 -0.000224852 -0.000348583     -7.75675 
         800            0            0            0     -6.26511 
         800     0.013333 -5.77712e-05  3.27035e-08     -6.26511 
         800     0.053333 -1.61531e-05  5.31776e-07     -6.26511 
         800         0.12 -1.22479e-05  2.66369e-06     -6.26511 
         800     0.213332 -6.84489e-05  7.88621e-06     -6.26511 
         800     0.333332 -0.000163576  1.68856e-05     -6.26511 
         800         0.48 -0.000246021  2.89351e-05     -6.26511 
         800     0.653331 -0.000279917  4.25214e-05     -6.26511 
         800     0.853332 -0.000265919  5.63563e-05     -6.26511 
         800         1.08  -0.00022935  6.95311e-05     -6.26511 
         800      1.33333 -0.000201337  8.10388e-05     -6.26511 
         800      1.61333 -0.000194421  9.01096e-05     -6.26511 
         800         1.92 -0.000189703  9.70879e-05     -6.26511 
         800      2.25333 -0.000175448  0.000101955     -6.26511 
         800      2.61333  -0.00015333  0.000104674     -6.26511 
         800            3 -0.000128491  0.000104964     -6.26511 
         850            0           -0           -0     -4.77381 
         850     0.013333 -0.000205062  1.16577e-09     -4.77381 
         850     0.053333 -0.000533367 -1.20057e-07     -4.77381 
         850         0.12 -0.000934233 -1.48848e-06     -4.77381 
         850     0.213332   -0.0012281 -7.12346e-06     -4.77381 
         850     0.333332  -0.00131611 -2.08795e-05     -4.77381 
         850         0.48  -0.00123408  -4.4946e-05     -4.77381 
         850     0.653331  -0.00109498 -7.86186e-05     -4.77381 
         850     0.853332 -0.000986483 -0.000119265     -4.77381 
         850         1.08 -0.000921111 -0.000163578     -4.77381 
         850      1.33333 -0.000855415 -0.000208231     -4.77381 
         850      1.61333  -0.00075351 -0.000250681     -4.77381 
         850         1.92 -0.000628733  -0.00028998      -4.7738 
         850      2.25333 -0.000495819 -0.000324988      -4.7738 
         850      2.61333 -0.000358454 -0.000353988     -4.77379 
         850            3 -0.000218001 -0.000375116     -4.77378 
         900            0           -0           -0     -3.28157 
         900     0.013333 -9.14091e-05 -1.33801e-07     -3.28157 
         900     0.053333 -8.06943e-05 -2.01119e-06     -3.28157 
         900         0.12  3.29957e-05 -9.12696e-06     -3.28157 
         900     0.213332   0.00028419 -2.46267e-05     -3.28157 
         900     0.333332  0.000598077 -4.91166e-05     -3.28157 
         900         0.48  0.000863398 -8.06014e-05     -3.28157 
         900     0.653331   0.00101986   -0.0001165     -3.28157 
         900     0.853332   0.00106763 -0.000155564     -3.28157 
         900         1.08   0.00102193 -0.000198062     -3.28157 
         900      1.33333  0.000899228 -0.000244118     -3.28157 
         900      1.61333  0.000741867 -0.000291868     -3.28157 
         900         1.92  0.000598906 -0.000337853     -3.28157 
         900      2.25333  0.000462735 -0.000379086     -3.28157 
         900      2.61333  0.000321831 -0.000413537     -3.28158 
         900            3  0.000176047 -0.000439362     -3.28159 
         950            0           -0           -0     -1.78976 
         950     0.013333 -1.82024e-05 -6.87718e-08     -1.78976 
         950     0.053333  0.000165608  -9.8717e-07     -1.78976 
         950         0.12   0.00044582  -4.1703e-06     -1.78976 
         950     0.213332  0.000767188 -1.02177e-05     -1.78976 
         950     0.333332   0.00103986 -1.80441e-05     -1.78976 
         950         0.48   0.00120242 -2.55369e-05     -1.78976 
         950     0.653331   0.00125644 -3.10362e-05     -1.78976 
         950     0.853332   0.00124229 -3.42011e-05     -1.78976 
         950         1.08   0.00119225 -3.58696e-05     -1.78976 
         950      1.33333   0.00111038 -3.73307e-05     -1.78976 
         950      1.61333  0.000989831 -3.95744e-05     -1.78976 
         950         1.92  0.000837867 -4.26836e-05     -1.78976 
         950      2.25333  0.000668782 -4.57629e-05     -1.78977 
         950      2.61333  0.000489442 -4.84919e-05     -1.78977 
         950            3  0.000301789 -5.06574e-05     -1.78978 
        1000            0 -5.32791e-20  1.23206e-24     -0.29787 
        1000     0.013333  1.55181e-05 -2.39046e-08     -0.29787 
        1000     0.053333  0.000272049 -2.95604e-07     -0.29787 
        1000         0.12  0.000599632 -6.48972e-07     -0.29787 
        1000     0.213332  0.000892506  6.71576e-07     -0.29787 
        1000     0.333332    0.0010631  6.71184e-06     -0.29787 
        1000         0.48   0.00109666  1.99107e-05     -0.29787 
        1000     0.653331   0.00104398  4.06949e-05    -0.297869 
        1000     0.853332   0.00096842  6.76837e-05    -0.297869 
        1000         1.08  0.000898028  9.85415e-05    -0.297869 
        1000      1.33333  0.000817549  0.000130765    -0.297869 
        1000      1.61333  0.000703701  0.000162476     -0.29787 
        1000         1.92  0.000563071   0.00019286    -0.297873 
        1000      2.25333  0.000409722  0.000221475    -0.297878 
        1000      2.61333  0.000249336  0.000247229    -0.297885 
        1000            3  8.41289e-05  0.000268841    -0.297895 
