Variables = x, y, u, v, p

Zone, I=2080, F=POINT
         -50            0  -5.6111e-19 -5.48534e-23     -124.868 
         -50      0.00048 -5.58868e-05 -5.62266e-09     -124.868 
         -50     0.001922 -0.000197706 -2.17384e-08     -124.868 
         -50     0.004326  -0.00036109 -4.64013e-08     -124.868 
         -50      0.00769 -0.000478026 -7.74368e-08     -124.868 
         -50     0.012017 -0.000514057 -1.13544e-07     -124.868 
         -50     0.017304 -0.000485668 -1.54731e-07     -124.868 
         -50     0.023553 -0.000445688  -2.0208e-07     -124.868 
         -50     0.030763 -0.000441046 -2.56599e-07     -124.868 
         -50     0.038936 -0.000470917 -3.18154e-07     -124.868 
         -50     0.048069 -0.000486517 -3.85305e-07     -124.868 
         -50     0.058163 -0.000457182  -4.5687e-07     -124.868 
         -50     0.069219 -0.000448421 -5.33402e-07     -124.868 
         -50     0.081236 -0.000474551 -6.12158e-07     -124.868 
         -50     0.094215 -0.000458903 -6.91932e-07     -124.868 
         -50     0.108155  -0.00046112 -7.73391e-07     -124.868 
         -50     0.123056  -0.00045874 -8.52763e-07     -124.868 
         -50     0.138918 -0.000457447 -9.28884e-07     -124.868 
         -50     0.155744 -0.000458213 -1.00095e-06     -124.868 
         -50     0.173529 -0.000459171 -1.06714e-06     -124.868 
         -50     0.192276 -0.000458679 -1.12353e-06     -124.868 
         -50     0.211984 -0.000457866 -1.16451e-06     -124.868 
         -50     0.232655 -0.000459323 -1.18704e-06     -124.868 
         -50     0.254285  -0.00045865 -1.19839e-06     -124.868 
         -50     0.276877 -0.000459365 -1.18791e-06     -124.868 
         -50     0.300431   -0.0004597 -1.18066e-06     -124.868 
         -50     0.324946 -0.000459857 -1.20872e-06     -124.868 
         -50     0.350424 -0.000459954 -1.30366e-06     -124.868 
         -50     0.376861 -0.000460041 -1.48778e-06     -124.868 
         -50      0.40426 -0.000460114   -1.765e-06     -124.868 
         -50     0.432621 -0.000460146 -2.11314e-06     -124.868 
         -50     0.461945 -0.000460121 -2.48069e-06     -124.868 
         -50     0.492228 -0.000460059 -2.79216e-06     -124.868 
         -50     0.523472  -0.00046002 -2.96794e-06     -124.868 
         -50     0.555678 -0.000460077 -2.96567e-06     -124.868 
         -50     0.588845 -0.000460216 -2.85319e-06     -124.868 
         -50     0.622976   -0.0004603 -2.86931e-06     -124.868 
         -50     0.658066 -0.000460518 -2.93761e-06     -124.868 
         -50     0.694117 -0.000460821 -3.02069e-06     -124.867 
         -50      0.73113 -0.000461201 -3.13576e-06     -124.867 
         -50     0.769107 -0.000461647 -3.29357e-06     -124.867 
         -50     0.808042 -0.000462143 -3.49865e-06     -124.867 
         -50     0.847939 -0.000462674  -3.7501e-06     -124.867 
         -50     0.888797 -0.000463223 -4.04262e-06     -124.867 
         -50      0.93062 -0.000463775 -4.36791e-06     -124.867 
         -50       0.9734 -0.000464316 -4.71623e-06     -124.867 
         -50      1.01714 -0.000464837 -5.07829e-06     -124.866 
         -50      1.06185 -0.000465335 -5.44679e-06     -124.866 
         -50      1.10751 -0.000465808 -5.81792e-06     -124.866 
         -50      1.15414 -0.000466262 -6.19223e-06     -124.866 
         -50      1.20173 -0.000466705 -6.57441e-06     -124.865 
         -50      1.25028 -0.000467144 -6.97208e-06     -124.865 
         -50      1.29979  -0.00046758 -7.39231e-06     -124.865 
         -50      1.35026 -0.000467999 -7.83583e-06     -124.865 
         -50       1.4017 -0.000468359 -8.28769e-06     -124.864 
         -50      1.45409 -0.000468578 -8.70414e-06     -124.864 
         -50      1.50745 -0.000468507 -9.00916e-06     -124.864 
         -50      1.56176 -0.000468477 -9.83561e-06     -124.863 
         -50      1.61705 -0.000468615 -1.04244e-05     -124.863 
         -50      1.67329 -0.000468849 -1.08571e-05     -124.863 
         -50      1.73049 -0.000469131 -1.12071e-05     -124.862 
         -50      1.78865 -0.000469425 -1.15392e-05     -124.862 
         -50      1.84778 -0.000469714 -1.19082e-05     -124.861 
         -50      1.90786 -0.000469996  -1.2359e-05     -124.861 
         -50      1.96891 -0.000470279  -1.2926e-05     -124.861 
         -50      2.03092 -0.000470586 -1.36333e-05      -124.86 
         -50      2.09389 -0.000470942 -1.44944e-05     -124.859 
         -50      2.15782 -0.000471379 -1.55128e-05     -124.859 
         -50      2.22272  -0.00047193 -1.66828e-05     -124.858 
         -50      2.28857 -0.000472622 -1.79898e-05     -124.858 
         -50      2.35539 -0.000473478 -1.94114e-05     -124.857 
         -50      2.42317 -0.000474509 -2.09193e-05     -124.856 
         -50      2.49191 -0.000475711 -2.24796e-05     -124.856 
         -50      2.56161 -0.000477065 -2.40555e-05     -124.855 
         -50      2.63226 -0.000478531 -2.56085e-05     -124.854 
         -50      2.70389 -0.000480051 -2.71008e-05     -124.853 
         -50      2.77648 -0.000481548 -2.84965e-05     -124.853 
         -50      2.85002 -0.000482924 -2.97649e-05     -124.852 
         -50      2.92453 -0.000484073 -3.08815e-05     -124.851 
         -50            3 -0.000484881 -3.18307e-05      -124.85 
         -25            0           -0           -0     -119.839 
         -25      0.00048 -4.07937e-05  -2.1882e-09     -119.839 
         -25     0.001922 -0.000144307 -8.36995e-09     -119.839 
         -25     0.004326 -0.000263543  -1.7514e-08     -119.839 
         -25      0.00769 -0.000348851 -2.83105e-08     -119.839 
         -25     0.012017 -0.000375084 -3.95945e-08     -119.839 
         -25     0.017304 -0.000354304 -5.05314e-08     -119.839 
         -25     0.023553 -0.000325114 -6.05447e-08     -119.839 
         -25     0.030763  -0.00032181 -6.89127e-08     -119.839 
         -25     0.038936 -0.000343816  -7.4374e-08     -119.839 
         -25     0.048069 -0.000355532 -7.50889e-08     -119.839 
         -25     0.058163 -0.000334587 -6.92148e-08     -119.839 
         -25     0.069219 -0.000328836 -5.55196e-08     -119.839 
         -25     0.081236 -0.000348747 -3.17061e-08     -119.839 
         -25     0.094215 -0.000338342  4.13375e-09     -119.839 
         -25     0.108155  -0.00034118  5.33252e-08     -119.839 
         -25     0.123056 -0.000340856  1.17657e-07     -119.839 
         -25     0.138918 -0.000341514  1.98457e-07     -119.839 
         -25     0.155744 -0.000343853  2.97062e-07     -119.839 
         -25     0.173529 -0.000346491  4.14552e-07     -119.839 
         -25     0.192276  -0.00034821  5.51632e-07     -119.839 
         -25     0.211984 -0.000349808  7.08487e-07     -119.839 
         -25     0.232655 -0.000353149  8.85176e-07     -119.839 
         -25     0.254285 -0.000354991  1.08232e-06     -119.839 
         -25     0.276877 -0.000357871  1.29756e-06     -119.839 
         -25     0.300431 -0.000360467  1.52866e-06     -119.839 
         -25     0.324946 -0.000362898  1.77412e-06     -119.839 
         -25     0.350424 -0.000365222  2.03419e-06     -119.839 
         -25     0.376861 -0.000367439  2.31038e-06     -119.839 
         -25      0.40426 -0.000369511  2.60497e-06     -119.839 
         -25     0.432621 -0.000371378  2.91998e-06     -119.839 
         -25     0.461945 -0.000372987  3.25615e-06     -119.839 
         -25     0.492228 -0.000374312  3.61177e-06     -119.839 
         -25     0.523472 -0.000375363  3.98192e-06     -119.839 
         -25     0.555678 -0.000376161  4.35812e-06     -119.839 
         -25     0.588845 -0.000376679  4.72899e-06     -119.839 
         -25     0.622976 -0.000376823  5.06587e-06     -119.839 
         -25     0.658066 -0.000376717  5.38608e-06     -119.839 
         -25     0.694117 -0.000376326  5.73063e-06     -119.839 
         -25      0.73113 -0.000375675  6.10121e-06     -119.839 
         -25     0.769107 -0.000374797  6.49658e-06     -119.839 
         -25     0.808042 -0.000373724  6.91277e-06     -119.839 
         -25     0.847939 -0.000372491  7.34372e-06     -119.839 
         -25     0.888797 -0.000371133  7.78177e-06     -119.839 
         -25      0.93062 -0.000369685  8.21857e-06     -119.839 
         -25       0.9734  -0.00036818   8.6457e-06     -119.839 
         -25      1.01714 -0.000366648  9.05592e-06     -119.839 
         -25      1.06185 -0.000365115  9.44367e-06     -119.839 
         -25      1.10751 -0.000363603  9.80596e-06     -119.838 
         -25      1.15414 -0.000362128  1.01426e-05     -119.838 
         -25      1.20173 -0.000360702   1.0456e-05     -119.838 
         -25      1.25028 -0.000359334  1.07504e-05     -119.838 
         -25      1.29979 -0.000358027  1.10301e-05     -119.838 
         -25      1.35026 -0.000356788   1.1296e-05     -119.838 
         -25       1.4017 -0.000355625  1.15412e-05     -119.838 
         -25      1.45409 -0.000354557  1.17438e-05     -119.838 
         -25      1.50745 -0.000353614  1.18583e-05     -119.838 
         -25      1.56176 -0.000352617  1.19616e-05     -119.838 
         -25      1.61705 -0.000351849  1.20674e-05     -119.837 
         -25      1.67329 -0.000351269  1.21587e-05     -119.837 
         -25      1.73049 -0.000350833  1.22228e-05     -119.837 
         -25      1.78865   -0.0003505  1.22506e-05     -119.837 
         -25      1.84778 -0.000350229  1.22371e-05     -119.837 
         -25      1.90786 -0.000349983  1.21808e-05     -119.837 
         -25      1.96891 -0.000349725  1.20837e-05     -119.836 
         -25      2.03092 -0.000349425  1.19508e-05     -119.836 
         -25      2.09389 -0.000349053  1.17898e-05     -119.836 
         -25      2.15782 -0.000348589  1.16104e-05     -119.836 
         -25      2.22272 -0.000348015  1.14237e-05     -119.836 
         -25      2.28857  -0.00034732  1.12417e-05     -119.835 
         -25      2.35539 -0.000346499  1.10762e-05     -119.835 
         -25      2.42317 -0.000345554  1.09382e-05     -119.835 
         -25      2.49191 -0.000344497  1.08373e-05     -119.835 
         -25      2.56161 -0.000343341  1.07805e-05     -119.834 
         -25      2.63226 -0.000342112  1.07719e-05     -119.834 
         -25      2.70389 -0.000340839  1.08119e-05     -119.834 
         -25      2.77648 -0.000339557  1.08965e-05     -119.833 
         -25      2.85002 -0.000338307  1.10174e-05     -119.833 
         -25      2.92453  -0.00033713  1.11616e-05     -119.833 
         -25            3 -0.000336072  1.13121e-05     -119.832 
           0            0            0            0     -115.713 
           0      0.00048  -0.00013813   9.2898e-05     -115.713 
           0     0.001922 -0.000480857  0.000322018     -115.714 
           0     0.004326 -0.000851649   0.00056539     -115.715 
           0      0.00769  -0.00106964  0.000698525     -115.716 
           0     0.012017  -0.00105483  0.000667585     -115.718 
           0     0.017304 -0.000873644  0.000521345     -115.719 
           0     0.023553  -0.00068914  0.000376569      -115.72 
           0     0.030763 -0.000632941  0.000328487     -115.722 
           0     0.038936 -0.000685123    0.0003655     -115.723 
           0     0.048069 -0.000686863   0.00037499     -115.725 
           0     0.058163 -0.000553877    0.0002895     -115.727 
           0     0.069219 -0.000509155  0.000253505     -115.728 
           0     0.081236  -0.00058046  0.000300743      -115.73 
           0     0.094215 -0.000507302  0.000246625     -115.732 
           0     0.108155 -0.000499299  0.000239212     -115.734 
           0     0.123056 -0.000480175  0.000225525     -115.735 
           0     0.138918 -0.000466133  0.000212964     -115.737 
           0     0.155744 -0.000459519  0.000203382     -115.739 
           0     0.173529 -0.000454527  0.000195103     -115.741 
           0     0.192276 -0.000446321  0.000186313     -115.743 
           0     0.211984 -0.000438454  0.000177951     -115.744 
           0     0.232655 -0.000438475  0.000172317     -115.746 
           0     0.254285 -0.000432992  0.000164579     -115.748 
           0     0.276877 -0.000431361  0.000159036      -115.75 
           0     0.300431 -0.000429503  0.000153485     -115.752 
           0     0.324946 -0.000428008  0.000148301     -115.754 
           0     0.350424 -0.000426857  0.000143521     -115.756 
           0     0.376861 -0.000425912  0.000139052     -115.758 
           0      0.40426 -0.000425076  0.000134892     -115.759 
           0     0.432621 -0.000424272   0.00013103     -115.761 
           0     0.461945 -0.000423429  0.000127408     -115.763 
           0     0.492228 -0.000422503  0.000123998     -115.765 
           0     0.523472 -0.000421418  0.000120827     -115.767 
           0     0.555678 -0.000420132   0.00011787     -115.769 
           0     0.588845 -0.000418603  0.000115101     -115.771 
           0     0.622976  -0.00041679  0.000112501     -115.773 
           0     0.658066 -0.000414665  0.000110065     -115.774 
           0     0.694117 -0.000412207  0.000107778     -115.776 
           0      0.73113 -0.000409428  0.000105637     -115.778 
           0     0.769107 -0.000406346  0.000103651      -115.78 
           0     0.808042 -0.000402995  0.000101795     -115.782 
           0     0.847939 -0.000399353  0.000100021     -115.784 
           0     0.888797 -0.000395501  9.83467e-05     -115.785 
           0      0.93062 -0.000391487  9.67741e-05     -115.787 
           0       0.9734  -0.00038736  9.52977e-05     -115.789 
           0      1.01714  -0.00038316  9.39047e-05     -115.791 
           0      1.06185 -0.000378925  9.25783e-05     -115.793 
           0      1.10751 -0.000374682  9.13026e-05     -115.794 
           0      1.15414 -0.000370454  9.00721e-05     -115.796 
           0      1.20173 -0.000366267  8.89073e-05     -115.798 
           0      1.25028 -0.000362074  8.77452e-05     -115.799 
           0      1.29979 -0.000357859  8.66094e-05     -115.801 
           0      1.35026 -0.000353631  8.54966e-05     -115.803 
           0       1.4017 -0.000349391  8.44067e-05     -115.804 
           0      1.45409 -0.000345145  8.33453e-05     -115.806 
           0      1.50745 -0.000340896  8.23066e-05     -115.808 
           0      1.56176 -0.000336651  8.12431e-05     -115.809 
           0      1.61705 -0.000332416  8.01188e-05     -115.811 
           0      1.67329 -0.000328224  7.90723e-05     -115.812 
           0      1.73049 -0.000324164  7.79558e-05     -115.814 
           0      1.78865 -0.000320297  7.68076e-05     -115.815 
           0      1.84778  -0.00031667  7.56495e-05     -115.817 
           0      1.90786 -0.000313316  7.44894e-05     -115.818 
           0      1.96891 -0.000310243  7.33218e-05      -115.82 
           0      2.03092 -0.000307434  7.21276e-05     -115.821 
           0      2.09389 -0.000304855  7.08904e-05     -115.823 
           0      2.15782 -0.000302455   6.9699e-05     -115.824 
           0      2.22272 -0.000300152  6.84656e-05     -115.826 
           0      2.28857 -0.000297897  6.72064e-05     -115.827 
           0      2.35539 -0.000295637  6.59521e-05     -115.828 
           0      2.42317 -0.000293314  6.47461e-05      -115.83 
           0      2.49191 -0.000290878  6.36336e-05     -115.831 
           0      2.56161 -0.000288293  6.26387e-05     -115.832 
           0      2.63226 -0.000285544  6.17282e-05     -115.833 
           0      2.70389  -0.00028259  6.08766e-05     -115.835 
           0      2.77648 -0.000279348  6.03176e-05     -115.836 
           0      2.85002 -0.000276004  5.98675e-05     -115.837 
           0      2.92453 -0.000272623  5.95592e-05     -115.838 
           0            3 -0.000269294  5.94188e-05     -115.839 
          20            0            0            0     -113.173 
          20      0.00048 -3.14097e-05 -1.21119e-09     -113.173 
          20     0.001922 -0.000110892 -5.13034e-09     -113.173 
          20     0.004326 -0.000201721 -1.26493e-08     -113.173 
          20      0.00769 -0.000265089 -2.53736e-08     -113.173 
          20     0.012017 -0.000281328 -4.57248e-08     -113.173 
          20     0.017304 -0.000259848 -7.68251e-08     -113.173 
          20     0.023553 -0.000230795 -1.22265e-07     -113.173 
          20     0.030763  -0.00022097 -1.85601e-07     -113.173 
          20     0.038936  -0.00022995 -2.69917e-07     -113.173 
          20     0.048069 -0.000229981 -3.77467e-07     -113.173 
          20     0.058163 -0.000203662 -5.09832e-07     -113.173 
          20     0.069219 -0.000188481 -6.68013e-07     -113.173 
          20     0.081236 -0.000192751 -8.51314e-07     -113.173 
          20     0.094215 -0.000172892 -1.05815e-06     -113.173 
          20     0.108155 -0.000163103 -1.28613e-06     -113.173 
          20     0.123056 -0.000150748 -1.53133e-06     -113.173 
          20     0.138918 -0.000139246 -1.78925e-06     -113.173 
          20     0.155744 -0.000129314 -2.05477e-06     -113.173 
          20     0.173529  -0.00012004 -2.32227e-06     -113.173 
          20     0.192276 -0.000110613  -2.5862e-06     -113.173 
          20     0.211984 -0.000101779 -2.84125e-06     -113.173 
          20     0.232655 -9.50866e-05 -3.08275e-06     -113.173 
          20     0.254285 -8.80753e-05 -3.30684e-06     -113.173 
          20     0.276877 -8.27696e-05 -3.51042e-06     -113.173 
          20     0.300431 -7.81568e-05  -3.6916e-06     -113.173 
          20     0.324946 -7.43321e-05 -3.85016e-06     -113.173 
          20     0.350424 -7.13255e-05 -3.98647e-06     -113.173 
          20     0.376861   -6.911e-05 -4.10142e-06     -113.173 
          20      0.40426 -6.76144e-05 -4.19632e-06     -113.173 
          20     0.432621 -6.67449e-05 -4.27281e-06     -113.173 
          20     0.461945 -6.64069e-05 -4.33257e-06     -113.173 
          20     0.492228 -6.65251e-05 -4.37711e-06     -113.173 
          20     0.523472 -6.70533e-05 -4.40737e-06     -113.173 
          20     0.555678 -6.79621e-05 -4.42327e-06     -113.173 
          20     0.588845 -6.91905e-05  -4.4231e-06     -113.173 
          20     0.622976 -7.06783e-05 -4.40678e-06     -113.173 
          20     0.658066 -7.24304e-05 -4.37398e-06     -113.173 
          20     0.694117   -7.444e-05 -4.32261e-06     -113.173 
          20      0.73113 -7.68558e-05 -4.25678e-06     -113.173 
          20     0.769107  -7.9798e-05 -4.18049e-06     -113.173 
          20     0.808042 -8.33543e-05 -4.09761e-06     -113.173 
          20     0.847939 -8.75804e-05 -4.01173e-06     -113.173 
          20     0.888797 -9.24984e-05  -3.9261e-06     -113.173 
          20      0.93062 -9.80997e-05 -3.84358e-06     -113.173 
          20       0.9734 -0.000104345 -3.76658e-06     -113.173 
          20      1.01714 -0.000111174 -3.69696e-06     -113.173 
          20      1.06185 -0.000118505 -3.63609e-06     -113.173 
          20      1.10751 -0.000126248 -3.58473e-06     -113.172 
          20      1.15414 -0.000134306 -3.54307e-06     -113.172 
          20      1.20173 -0.000142587 -3.51072e-06     -113.172 
          20      1.25028 -0.000151012 -3.48672e-06     -113.172 
          20      1.29979 -0.000159516 -3.46953e-06     -113.172 
          20      1.35026 -0.000168061 -3.45705e-06     -113.172 
          20       1.4017 -0.000176623 -3.44661e-06     -113.172 
          20      1.45409 -0.000185199 -3.43499e-06     -113.172 
          20      1.50745 -0.000193783 -3.41843e-06     -113.172 
          20      1.56176 -0.000202162  -3.4072e-06     -113.172 
          20      1.61705 -0.000210747 -3.40367e-06     -113.172 
          20      1.67329 -0.000219356 -3.40612e-06     -113.172 
          20      1.73049 -0.000227831  -3.4132e-06     -113.172 
          20      1.78865 -0.000236037 -3.42396e-06     -113.172 
          20      1.84778  -0.00024386 -3.43787e-06     -113.172 
          20      1.90786 -0.000251211  -3.4549e-06     -113.171 
          20      1.96891 -0.000258028 -3.47547e-06     -113.171 
          20      2.03092 -0.000264268 -3.50051e-06     -113.171 
          20      2.09389 -0.000269914 -3.53145e-06     -113.171 
          20      2.15782 -0.000274965 -3.57019e-06     -113.171 
          20      2.22272  -0.00027944  -3.6191e-06     -113.171 
          20      2.28857 -0.000283375 -3.68096e-06     -113.171 
          20      2.35539 -0.000286816 -3.75889e-06     -113.171 
          20      2.42317 -0.000289818 -3.85627e-06     -113.171 
          20      2.49191 -0.000292439 -3.97664e-06      -113.17 
          20      2.56161 -0.000294741 -4.12356e-06      -113.17 
          20      2.63226 -0.000296782 -4.30042e-06      -113.17 
          20      2.70389 -0.000298613 -4.51033e-06      -113.17 
          20      2.77648 -0.000300273 -4.75572e-06      -113.17 
          20      2.85002 -0.000301791 -5.03825e-06      -113.17 
          20      2.92453 -0.000303179 -5.35841e-06     -113.169 
          20            3 -0.000304432 -5.71517e-06     -113.169 
          40            0            0            0     -110.562 
          40      0.00048 -2.93358e-05 -4.33177e-10     -110.562 
          40     0.001922 -0.000103631 -1.63346e-09     -110.562 
          40     0.004326 -0.000188741 -3.30991e-09     -110.562 
          40      0.00769 -0.000248602  -5.0062e-09     -110.562 
          40     0.012017 -0.000264976  -6.1108e-09     -110.562 
          40     0.017304 -0.000246695 -5.80602e-09     -110.562 
          40     0.023553 -0.000221891 -2.95675e-09     -110.562 
          40     0.030763 -0.000215584  4.05095e-09     -110.562 
          40     0.038936 -0.000227448  1.74526e-08     -110.562 
          40     0.048069 -0.000231705  4.01201e-08     -110.562 
          40     0.058163 -0.000212195  7.54353e-08     -110.562 
          40     0.069219 -0.000203806    1.271e-07     -110.562 
          40     0.081236 -0.000214248  1.99382e-07     -110.562 
          40     0.094215 -0.000202908  2.96619e-07     -110.562 
          40     0.108155 -0.000201523  4.22958e-07     -110.562 
          40     0.123056  -0.00019822  5.82639e-07     -110.562 
          40     0.138918 -0.000196041    7.793e-07     -110.562 
          40     0.155744 -0.000195504  1.01598e-06     -110.562 
          40     0.173529 -0.000195596   1.2949e-06     -110.562 
          40     0.192276 -0.000195398  1.61763e-06     -110.562 
          40     0.211984 -0.000195448   1.9849e-06     -110.562 
          40     0.232655 -0.000197041  2.39653e-06     -110.562 
          40     0.254285 -0.000197757  2.85076e-06     -110.562 
          40     0.276877 -0.000199369  3.34734e-06     -110.562 
          40     0.300431 -0.000200848  3.88381e-06     -110.562 
          40     0.324946  -0.00020222  4.45654e-06     -110.562 
          40     0.350424  -0.00020347  5.06254e-06     -110.562 
          40     0.376861 -0.000204554  5.69907e-06     -110.562 
          40      0.40426  -0.00020541  6.36356e-06     -110.562 
          40     0.432621 -0.000205975  7.05292e-06     -110.562 
          40     0.461945 -0.000206212   7.7633e-06     -110.562 
          40     0.492228  -0.00020612  8.48969e-06     -110.562 
          40     0.523472 -0.000205741  9.22654e-06     -110.562 
          40     0.555678 -0.000205147  9.96876e-06     -110.562 
          40     0.588845 -0.000204392  1.07142e-05     -110.562 
          40     0.622976 -0.000203502  1.14614e-05     -110.562 
          40     0.658066 -0.000202644  1.21878e-05     -110.562 
          40     0.694117 -0.000201896  1.28905e-05     -110.562 
          40      0.73113 -0.000201389  1.35664e-05     -110.562 
          40     0.769107 -0.000201231  1.42117e-05     -110.562 
          40     0.808042 -0.000201501  1.48221e-05     -110.562 
          40     0.847939 -0.000202247  1.53931e-05     -110.562 
          40     0.888797  -0.00020349  1.59203e-05     -110.562 
          40      0.93062 -0.000205223  1.64005e-05     -110.562 
          40       0.9734 -0.000207409  1.68314e-05     -110.562 
          40      1.01714 -0.000209993  1.72127e-05     -110.562 
          40      1.06185 -0.000212901  1.75462e-05     -110.562 
          40      1.10751 -0.000216049  1.78357e-05     -110.562 
          40      1.15414 -0.000219351  1.80871e-05     -110.562 
          40      1.20173 -0.000222723  1.83076e-05     -110.562 
          40      1.25028 -0.000226098  1.85046e-05     -110.562 
          40      1.29979 -0.000229427  1.86832e-05     -110.562 
          40      1.35026 -0.000232691  1.88437e-05     -110.562 
          40       1.4017 -0.000235901  1.89767e-05     -110.562 
          40      1.45409 -0.000239104  1.90574e-05     -110.562 
          40      1.50745 -0.000242367  1.90431e-05     -110.562 
          40      1.56176 -0.000245261  1.91737e-05     -110.562 
          40      1.61705 -0.000248134  1.92128e-05     -110.562 
          40      1.67329 -0.000250956  1.91766e-05     -110.562 
          40      1.73049 -0.000253693  1.90799e-05     -110.562 
          40      1.78865 -0.000256312  1.89362e-05     -110.562 
          40      1.84778 -0.000258782  1.87568e-05     -110.562 
          40      1.90786 -0.000261072  1.85515e-05     -110.562 
          40      1.96891 -0.000263152  1.83276e-05     -110.562 
          40      2.03092 -0.000264997  1.80906e-05     -110.562 
          40      2.09389 -0.000266587  1.78436e-05     -110.562 
          40      2.15782 -0.000267903  1.75875e-05     -110.562 
          40      2.22272 -0.000268936  1.73208e-05     -110.562 
          40      2.28857  -0.00026968  1.70402e-05     -110.562 
          40      2.35539  -0.00027014  1.67403e-05     -110.562 
          40      2.42317 -0.000270326   1.6414e-05     -110.562 
          40      2.49191 -0.000270256  1.60528e-05     -110.561 
          40      2.56161 -0.000269959   1.5647e-05     -110.561 
          40      2.63226 -0.000269469  1.51867e-05     -110.561 
          40      2.70389  -0.00026883  1.46614e-05     -110.561 
          40      2.77648 -0.000268089  1.40618e-05     -110.561 
          40      2.85002   -0.0002673  1.33795e-05     -110.561 
          40      2.92453 -0.000266518  1.26084e-05     -110.561 
          40            3 -0.000265798  1.17456e-05     -110.561 
          60            0           -0           -0     -108.084 
          60      0.00048 -2.87193e-05 -2.20534e-10     -108.084 
          60     0.001922 -0.000101691  -3.4833e-10     -108.084 
          60     0.004326 -0.000186073  1.18474e-09     -108.084 
          60      0.00769 -0.000247174  6.87122e-09     -108.084 
          60     0.012017 -0.000267446  1.99909e-08     -108.084 
          60     0.017304 -0.000255357  4.44229e-08     -108.084 
          60     0.023553 -0.000237931  8.45133e-08     -108.084 
          60     0.030763 -0.000239174  1.44885e-07     -108.084 
          60     0.038936 -0.000258693  2.30292e-07     -108.084 
          60     0.048069 -0.000271585  3.45305e-07     -108.084 
          60     0.058163 -0.000262173  4.94077e-07     -108.084 
          60     0.069219 -0.000263858  6.80006e-07     -108.084 
          60     0.081236 -0.000283878  9.05682e-07     -108.084 
          60     0.094215 -0.000282985  1.17262e-06     -108.084 
          60     0.108155 -0.000291509  1.48104e-06     -108.084 
          60     0.123056 -0.000297841  1.83001e-06     -108.084 
          60     0.138918 -0.000304734  2.21733e-06     -108.084 
          60     0.155744 -0.000312534   2.6398e-06     -108.084 
          60     0.173529 -0.000320138  3.09307e-06     -108.084 
          60     0.192276 -0.000326575  3.57217e-06     -108.084 
          60     0.211984 -0.000332308   4.0715e-06     -108.084 
          60     0.232655 -0.000338568   4.5854e-06     -108.084 
          60     0.254285 -0.000343047  5.10844e-06     -108.084 
          60     0.276877 -0.000347505   5.6348e-06     -108.084 
          60     0.300431 -0.000351029  6.15985e-06     -108.084 
          60     0.324946 -0.000353745   6.6802e-06     -108.084 
          60     0.350424 -0.000355745    7.193e-06     -108.084 
          60     0.376861 -0.000357096  7.69608e-06     -108.084 
          60      0.40426 -0.000357839  8.18837e-06     -108.084 
          60     0.432621 -0.000358005  8.66996e-06     -108.084 
          60     0.461945 -0.000357622  9.14218e-06     -108.084 
          60     0.492228 -0.000356729  9.60742e-06     -108.084 
          60     0.523472 -0.000355375  1.00689e-05     -108.084 
          60     0.555678 -0.000353604  1.05297e-05     -108.084 
          60     0.588845 -0.000351414  1.09912e-05     -108.084 
          60     0.622976 -0.000348763   1.1453e-05     -108.084 
          60     0.658066 -0.000345733  1.19263e-05     -108.084 
          60     0.694117 -0.000342283  1.24116e-05     -108.084 
          60      0.73113 -0.000338457  1.29055e-05     -108.084 
          60     0.769107  -0.00033432  1.34039e-05     -108.084 
          60     0.808042 -0.000329948  1.39025e-05     -108.084 
          60     0.847939 -0.000325428  1.43971e-05     -108.084 
          60     0.888797 -0.000320854  1.48828e-05     -108.084 
          60      0.93062 -0.000316317  1.53547e-05     -108.084 
          60       0.9734 -0.000311904  1.58077e-05     -108.084 
          60      1.01714 -0.000307689  1.62367e-05     -108.084 
          60      1.06185 -0.000303726  1.66364e-05     -108.084 
          60      1.10751 -0.000300044  1.70022e-05     -108.084 
          60      1.15414 -0.000296646  1.73296e-05     -108.084 
          60      1.20173 -0.000293504  1.76154e-05     -108.084 
          60      1.25028 -0.000290567  1.78576e-05     -108.084 
          60      1.29979 -0.000287762  1.80564e-05     -108.084 