Variables = x, y, u, v, p

Zone, I=2080, F=POINT
         -50            0  2.48463e-19  2.49565e-23      52.5775 
         -50      0.00048  2.47329e-05    2.537e-09      52.5775 
         -50     0.001922  8.73458e-05  9.57835e-09      52.5775 
         -50     0.004326  0.000159085  1.97399e-08      52.5775 
         -50      0.00769  0.000209872  3.17135e-08      52.5775 
         -50     0.012017  0.000225064  4.52177e-08      52.5775 
         -50     0.017304  0.000212995   6.1363e-08      52.5775 
         -50     0.023553  0.000197823  8.22339e-08      52.5775 
         -50     0.030763   0.00019999  1.09718e-07      52.5775 
         -50     0.038936  0.000217492  1.44462e-07      52.5775 
         -50     0.048069  0.000227067  1.85995e-07      52.5775 
         -50     0.058163  0.000215943  2.34794e-07      52.5775 
         -50     0.069219  0.000216752  2.94651e-07      52.5775 
         -50     0.081236  0.000230697  3.68887e-07      52.5775 
         -50     0.094215  0.000226099  4.56169e-07      52.5775 
         -50     0.108155  0.000229467  5.60868e-07      52.5775 
         -50     0.123056  0.000229435  6.84746e-07      52.5775 
         -50     0.138918  0.000229785  8.30727e-07      52.5775 
         -50     0.155744  0.000231157  1.00249e-06      52.5775 
         -50     0.173529  0.000232313  1.20428e-06      52.5775 
         -50     0.192276  0.000232201  1.44099e-06      52.5774 
         -50     0.211984  0.000231644  1.71793e-06      52.5774 
         -50     0.232655  0.000232426  2.04111e-06      52.5774 
         -50     0.254285  0.000231568  2.41929e-06      52.5774 
         -50     0.276877  0.000231625  2.84365e-06      52.5774 
         -50     0.300431  0.000231396  3.29673e-06      52.5774 
         -50     0.324946  0.000231096    3.774e-06      52.5774 
         -50     0.350424  0.000230866  4.26541e-06      52.5774 
         -50     0.376861  0.000230777  4.75941e-06      52.5774 
         -50      0.40426  0.000230845  5.24817e-06      52.5773 
         -50     0.432621  0.000231051  5.73193e-06      52.5773 
         -50     0.461945  0.000231366  6.22145e-06      52.5773 
         -50     0.492228  0.000231774  6.73572e-06      52.5773 
         -50     0.523472  0.000232278  7.29156e-06      52.5772 
         -50     0.555678  0.000232882  7.88026e-06      52.5772 
         -50     0.588845  0.000233519  8.42513e-06      52.5772 
         -50     0.622976  0.000234054  8.75749e-06      52.5771 
         -50     0.658066  0.000234563  9.11532e-06      52.5771 
         -50     0.694117  0.000234901  9.58062e-06      52.5771 
         -50      0.73113  0.000235026  1.01264e-05       52.577 
         -50     0.769107   0.00023491  1.07266e-05       52.577 
         -50     0.808042   0.00023454  1.13568e-05      52.5769 
         -50     0.847939  0.000233918  1.19956e-05      52.5769 
         -50     0.888797   0.00023306  1.26248e-05      52.5768 
         -50      0.93062  0.000231995  1.32304e-05      52.5767 
         -50       0.9734   0.00023076  1.38031e-05      52.5767 
         -50      1.01714  0.000229398  1.43387e-05      52.5766 
         -50      1.06185  0.000227957  1.48381e-05      52.5765 
         -50      1.10751  0.000226483  1.53068e-05      52.5764 
         -50      1.15414  0.000225019  1.57542e-05      52.5763 
         -50      1.20173  0.000223603  1.61921e-05      52.5762 
         -50      1.25028  0.000222266  1.66327e-05      52.5761 
         -50      1.29979  0.000221036  1.70852e-05       52.576 
         -50      1.35026  0.000219939  1.75523e-05      52.5759 
         -50       1.4017  0.000219008  1.80241e-05      52.5758 
         -50      1.45409    0.0002183  1.84719e-05      52.5757 
         -50      1.50745  0.000217929  1.88414e-05      52.5755 
         -50      1.56176  0.000218172  1.92096e-05      52.5754 
         -50      1.61705  0.000217886  1.95495e-05      52.5752 
         -50      1.67329  0.000217193  1.98648e-05      52.5751 
         -50      1.73049  0.000216202  2.01549e-05      52.5749 
         -50      1.78865  0.000215001  2.04147e-05      52.5747 
         -50      1.84778  0.000213665  2.06362e-05      52.5746 
         -50      1.90786  0.000212251  2.08079e-05      52.5744 
         -50      1.96891  0.000210801   2.0917e-05      52.5742 
         -50      2.03092  0.000209345  2.09494e-05      52.5739 
         -50      2.09389    0.0002079  2.08909e-05      52.5737 
         -50      2.15782  0.000206474   2.0729e-05      52.5735 
         -50      2.22272  0.000205067  2.04533e-05      52.5732 
         -50      2.28857  0.000203677  2.00573e-05       52.573 
         -50      2.35539  0.000202298  1.95392e-05      52.5727 
         -50      2.42317  0.000200927  1.89032e-05      52.5725 
         -50      2.49191  0.000199566  1.81609e-05      52.5722 
         -50      2.56161  0.000198224  1.73311e-05      52.5719 
         -50      2.63226  0.000196919  1.64409e-05      52.5715 
         -50      2.70389   0.00019568  1.55256e-05      52.5712 
         -50      2.77648   0.00019455  1.46283e-05      52.5709 
         -50      2.85002  0.000193581  1.37986e-05      52.5705 
         -50      2.92453  0.000192835  1.30905e-05      52.5702 
         -50            3  0.000192381    1.256e-05      52.5698 
         -25            0           -0           -0      50.4641 
         -25      0.00048  1.78031e-05   1.0346e-09      50.4641 
         -25     0.001922  6.27521e-05  3.80936e-09      50.4641 
         -25     0.004326  0.000113857  7.45739e-09      50.4641 
         -25      0.00769  0.000149176  1.09081e-08      50.4641 
         -25     0.012017  0.000158059  1.32391e-08      50.4641 
         -25     0.017304  0.000146663  1.38134e-08      50.4641 
         -25     0.023553  0.000132719  1.21118e-08      50.4641 
         -25     0.030763  0.000131249  7.29983e-09      50.4641 
         -25     0.038936  0.000140875 -2.15979e-09      50.4641 
         -25     0.048069  0.000144683 -1.84088e-08      50.4641 
         -25     0.058163  0.000133425 -4.33825e-08      50.4641 
         -25     0.069219  0.000131026 -7.78361e-08      50.4641 
         -25     0.081236  0.000138434 -1.22699e-07      50.4641 
         -25     0.094215  0.000132555 -1.80659e-07      50.4641 
         -25     0.108155  0.000132802 -2.52187e-07      50.4641 
         -25     0.123056  0.000130892 -3.38523e-07      50.4641 
         -25     0.138918  0.000129597 -4.40459e-07      50.4641 
         -25     0.155744  0.000129372  -5.5856e-07      50.4641 
         -25     0.173529  0.000129289 -6.93132e-07       50.464 
         -25     0.192276  0.000128536 -8.44399e-07       50.464 
         -25     0.211984   0.00012767 -1.01245e-06       50.464 
         -25     0.232655  0.000127936 -1.19723e-06       50.464 
         -25     0.254285  0.000127099 -1.39829e-06       50.464 
         -25     0.276877  0.000126964 -1.61495e-06       50.464 
         -25     0.300431   0.00012659 -1.84677e-06       50.464 
         -25     0.324946  0.000126084 -2.09271e-06       50.464 
         -25     0.350424  0.000125502  -2.3502e-06       50.464 
         -25     0.376861   0.00012486 -2.61576e-06       50.464 
         -25      0.40426  0.000124143 -2.88606e-06       50.464 
         -25     0.432621  0.000123325 -3.15895e-06       50.464 
         -25     0.461945  0.000122384 -3.43451e-06       50.464 
         -25     0.492228  0.000121323 -3.71577e-06       50.464 
         -25     0.523472  0.000120171 -4.00868e-06       50.464 
         -25     0.555678  0.000118973 -4.32066e-06       50.464 
         -25     0.588845  0.000117734 -4.65703e-06      50.4639 
         -25     0.622976  0.000116419 -5.02531e-06      50.4639 
         -25     0.658066  0.000115141 -5.40105e-06      50.4639 
         -25     0.694117   0.00011389 -5.76446e-06      50.4639 
         -25      0.73113  0.000112715 -6.11989e-06      50.4639 
         -25     0.769107  0.000111661 -6.46918e-06      50.4639 
         -25     0.808042  0.000110761 -6.81179e-06      50.4638 
         -25     0.847939  0.000110041 -7.14545e-06      50.4638 
         -25     0.888797  0.000109519 -7.46661e-06      50.4638 
         -25      0.93062  0.000109202 -7.77126e-06      50.4638 
         -25       0.9734  0.000109091 -8.05556e-06      50.4637 
         -25      1.01714   0.00010918 -8.31683e-06      50.4637 
         -25      1.06185  0.000109457 -8.55401e-06      50.4637 
         -25      1.10751  0.000109909 -8.76822e-06      50.4637 
         -25      1.15414  0.000110518 -8.96275e-06      50.4636 
         -25      1.20173  0.000111268 -9.14241e-06      50.4636 
         -25      1.25028  0.000112145 -9.31223e-06      50.4635 
         -25      1.29979  0.000113137 -9.47484e-06      50.4635 
         -25      1.35026  0.000114236 -9.62642e-06      50.4635 
         -25       1.4017  0.000115437 -9.75075e-06      50.4634 
         -25      1.45409  0.000116735 -9.81093e-06      50.4634 
         -25      1.50745  0.000118103 -9.74759e-06      50.4633 
         -25      1.56176  0.000118999  -9.9733e-06      50.4633 
         -25      1.61705  0.000120347 -1.00527e-05      50.4632 
         -25      1.67329  0.000121847 -1.00443e-05      50.4631 
         -25      1.73049  0.000123258 -9.99483e-06      50.4631 
         -25      1.78865  0.000124395 -9.93957e-06       50.463 
         -25      1.84778   0.00012513 -9.90207e-06      50.4629 
         -25      1.90786  0.000125392 -9.89481e-06      50.4629 
         -25      1.96891  0.000125161 -9.91981e-06      50.4628 
         -25      2.03092  0.000124465 -9.96974e-06      50.4627 
         -25      2.09389  0.000123374 -1.00291e-05      50.4626 
         -25      2.15782  0.000121994  -1.0076e-05      50.4625 
         -25      2.22272  0.000120456 -1.00835e-05      50.4624 
         -25      2.28857  0.000118908 -1.00222e-05      50.4623 
         -25      2.35539  0.000117505 -9.86191e-06      50.4622 
         -25      2.42317  0.000116399 -9.57407e-06      50.4621 
         -25      2.49191  0.000115725 -9.13397e-06       50.462 
         -25      2.56161  0.000115594 -8.52287e-06      50.4619 
         -25      2.63226  0.000116082 -7.72996e-06      50.4618 
         -25      2.70389   0.00011722  -6.7539e-06      50.4617 
         -25      2.77648  0.000118989 -5.60436e-06      50.4615 
         -25      2.85002  0.000121315 -4.30204e-06      50.4614 
         -25      2.92453   0.00012407 -2.87862e-06      50.4613 
         -25            3  0.000127077 -1.37528e-06      50.4611 
           0            0            0            0      48.7287 
           0      0.00048  6.02876e-05 -4.29829e-05      48.7288 
           0     0.001922  0.000209766 -0.000148786      48.7291 
           0     0.004326  0.000371242 -0.000260535      48.7296 
           0      0.00769  0.000465978 -0.000320386      48.7302 
           0     0.012017  0.000459827 -0.000303758      48.7308 
           0     0.017304  0.000382868 -0.000234136      48.7314 
           0     0.023553  0.000306843 -0.000166545      48.7319 
           0     0.030763  0.000288388 -0.000145368      48.7325 
           0     0.038936  0.000316583 -0.000164443      48.7331 
           0     0.048069  0.000320132 -0.000170343      48.7338 
           0     0.058163  0.000263267 -0.000131658      48.7345 
           0     0.069219  0.000246545  -0.00011669      48.7352 
           0     0.081236    0.0002706 -0.000136782      48.7359 
           0     0.094215  0.000238096 -0.000115107      48.7366 
           0     0.108155  0.000230819  -0.00011235      48.7374 
           0     0.123056    0.0002144 -0.000104882      48.7381 
           0     0.138918  0.000199997 -9.88296e-05      48.7389 
           0     0.155744  0.000189376 -9.52086e-05      48.7396 
           0     0.173529  0.000178793 -9.19611e-05      48.7404 
           0     0.192276  0.000165192 -8.72648e-05      48.7412 
           0     0.211984  0.000151231 -8.23009e-05      48.7419 
           0     0.232655  0.000142232 -7.98559e-05      48.7427 
           0     0.254285  0.000129349 -7.55441e-05      48.7435 
           0     0.276877  0.000119241 -7.23255e-05      48.7443 
           0     0.300431  0.000109207 -6.89868e-05      48.7451 
           0     0.324946  9.98001e-05  -6.5719e-05      48.7459 
           0     0.350424  9.11547e-05 -6.25653e-05      48.7467 
           0     0.376861  8.32507e-05 -5.94758e-05      48.7475 
           0      0.40426  7.60802e-05 -5.64625e-05      48.7482 
           0     0.432621  6.96535e-05 -5.35202e-05       48.749 
           0     0.461945  6.39585e-05 -5.06271e-05      48.7498 
           0     0.492228  5.89839e-05 -4.77865e-05      48.7506 
           0     0.523472  5.46978e-05 -4.50075e-05      48.7514 
           0     0.555678  5.10775e-05 -4.22749e-05      48.7522 
           0     0.588845  4.80963e-05 -3.95786e-05       48.753 
           0     0.622976  4.57272e-05 -3.69237e-05      48.7538 
           0     0.658066  4.39454e-05 -3.43336e-05      48.7546 
           0     0.694117  4.26742e-05 -3.17403e-05      48.7553 
           0      0.73113   4.1891e-05 -2.92055e-05      48.7561 
           0     0.769107  4.15498e-05 -2.67208e-05      48.7569 
           0     0.808042  4.15981e-05 -2.42859e-05      48.7577 
           0     0.847939  4.19928e-05 -2.18604e-05      48.7584 
           0     0.888797  4.26753e-05 -1.94965e-05      48.7592 
           0      0.93062  4.35991e-05 -1.71854e-05      48.7599 
           0       0.9734  4.47158e-05 -1.49214e-05      48.7607 
           0      1.01714  4.59817e-05 -1.27035e-05      48.7614 
           0      1.06185  4.73628e-05 -1.05385e-05      48.7622 
           0      1.10751  4.88403e-05  -8.4377e-06      48.7629 
           0      1.15414  5.04129e-05 -6.41049e-06      48.7636 
           0      1.20173  5.20968e-05 -4.45251e-06      48.7644 
           0      1.25028   5.3878e-05 -2.56284e-06      48.7651 
           0      1.29979  5.57502e-05 -7.33326e-07      48.7658 
           0      1.35026  5.77287e-05  1.04282e-06      48.7665 
           0       1.4017  5.98254e-05   2.7508e-06      48.7672 
           0      1.45409  6.20492e-05  4.36862e-06      48.7679 
           0      1.50745  6.44038e-05  5.88331e-06      48.7685 
           0      1.56176  6.68866e-05  7.31315e-06      48.7692 
           0      1.61705  6.95026e-05  8.69117e-06      48.7699 
           0      1.67329  7.22702e-05  9.94392e-06      48.7705 
           0      1.73049  7.51437e-05  1.11346e-05      48.7712 
           0      1.78865  7.80863e-05  1.22526e-05      48.7718 
           0      1.84778  8.10456e-05  1.32856e-05      48.7725 
           0      1.90786  8.39643e-05  1.42247e-05      48.7731 
           0      1.96891  8.67936e-05  1.50725e-05      48.7737 
           0      2.03092  8.95045e-05  1.58512e-05      48.7743 
           0      2.09389  9.20961e-05  1.65815e-05      48.7749 
           0      2.15782  9.45402e-05  1.71531e-05      48.7755 
           0      2.22272  9.68531e-05  1.76884e-05      48.7761 
           0      2.28857  9.90164e-05  1.81285e-05      48.7767 
           0      2.35539  0.000100985  1.84475e-05      48.7772 
           0      2.42317  0.000102702  1.86502e-05      48.7778 
           0      2.49191  0.000104119  1.87584e-05      48.7783 
           0      2.56161  0.000105218   1.8782e-05      48.7789 
           0      2.63226  0.000106031  1.86707e-05      48.7794 
           0      2.70389  0.000106605  1.84091e-05      48.7799 
           0      2.77648  0.000106866  1.82318e-05      48.7804 
           0      2.85002  0.000106975   1.7895e-05      48.7809 
           0      2.92453  0.000106975  1.74839e-05      48.7814 
           0            3   0.00010692  1.70432e-05      48.7819 
          20            0            0            0      47.6602 
          20      0.00048  1.53394e-05  6.00439e-10      47.6602 
          20     0.001922  5.47102e-05  2.76355e-09      47.6602 
          20     0.004326  0.000101584  7.66273e-09      47.6602 
          20      0.00769  0.000138607  1.75197e-08      47.6602 
          20     0.012017  0.000157188  3.59006e-08      47.6602 
          20     0.017304  0.000161791  6.78595e-08      47.6602 
          20     0.023553  0.000165884  1.19975e-07      47.6602 
          20     0.030763  0.000180768  2.00129e-07      47.6602 
          20     0.038936  0.000204909  3.17332e-07      47.6602 
          20     0.048069  0.000224613  4.81576e-07      47.6602 
          20     0.058163  0.000232193  7.04199e-07      47.6602 
          20     0.069219  0.000245919  9.98095e-07      47.6602 
          20     0.081236  0.000266139  1.37656e-06      47.6602 
          20     0.094215  0.000274484  1.85212e-06      47.6602 
          20     0.108155  0.000285871  2.43805e-06      47.6602 
          20     0.123056  0.000293659  3.14643e-06      47.6602 
          20     0.138918  0.000299932  3.98834e-06      47.6602 
          20     0.155744  0.000305047  4.97346e-06      47.6602 
          20     0.173529   0.00030836  6.10919e-06      47.6602 
          20     0.192276  0.000309389  7.40128e-06      47.6602 
          20     0.211984  0.000308772  8.85309e-06      47.6602 
          20     0.232655  0.000307729   1.0466e-05      47.6602 
          20     0.254285  0.000304779  1.22386e-05      47.6602 
          20     0.276877  0.000301603  1.41686e-05      47.6602 
          20     0.300431  0.000297726  1.62513e-05      47.6602 
          20     0.324946  0.000293459  1.84791e-05      47.6602 
          20     0.350424  0.000289044   2.0844e-05      47.6602 
          20     0.376861  0.000284648  2.33365e-05      47.6602 
          20      0.40426  0.000280369  2.59472e-05      47.6602 
          20     0.432621   0.00027625  2.86658e-05      47.6602 
          20     0.461945  0.000272298  3.14816e-05      47.6602 
          20     0.492228  0.000268513   3.4383e-05      47.6602 
          20     0.523472  0.000264895  3.73593e-05      47.6602 
          20     0.555678  0.000261457  4.04012e-05      47.6602 
          20     0.588845  0.000258187  4.35022e-05      47.6601 
          20     0.622976  0.000255029    4.666e-05      47.6601 
          20     0.658066  0.000252023  4.98568e-05      47.6601 
          20     0.694117  0.000249211  5.30919e-05      47.6601 
          20      0.73113  0.000246633  5.63643e-05      47.6601 
          20     0.769107  0.000244276  5.96685e-05      47.6601 
          20     0.808042  0.000242076  6.29933e-05      47.6601 
          20     0.847939  0.000239931  6.63245e-05      47.6601 
          20     0.888797  0.000237711  6.96441e-05      47.6601 
          20      0.93062  0.000235271  7.29325e-05      47.6601 
          20       0.9734  0.000232472  7.61679e-05        47.66 
          20      1.01714  0.000229196    7.933e-05        47.66 
          20      1.06185  0.000225358  8.23998e-05        47.66 
          20      1.10751  0.000220927   8.5361e-05        47.66 
          20      1.15414  0.000215927  8.82012e-05        47.66 
          20      1.20173  0.000210438  9.09111e-05        47.66 
          20      1.25028  0.000204579  9.34852e-05      47.6599 
          20      1.29979  0.000198479  9.59187e-05      47.6599 
          20      1.35026  0.000192214  9.82048e-05      47.6599 
          20       1.4017  0.000185725  0.000100328      47.6599 
          20      1.45409  0.000178687  0.000102255      47.6598 
          20      1.50745  0.000170366  0.000103929      47.6598 
          20      1.56176  0.000162685  0.000105487      47.6598 
          20      1.61705   0.00015522   0.00010686      47.6597 
          20      1.67329  0.000147966  0.000108037      47.6597 
          20      1.73049  0.000140913  0.000109011      47.6597 
          20      1.78865  0.000134054  0.000109774      47.6596 
          20      1.84778  0.000127383   0.00011032      47.6596 
          20      1.90786  0.000120899  0.000110646      47.6596 
          20      1.96891  0.000114601  0.000110751      47.6595 
          20      2.03092  0.000108492  0.000110635      47.6595 
          20      2.09389  0.000102578  0.000110303      47.6594 
          20      2.15782  9.68712e-05  0.000109762      47.6594 
          20      2.22272  9.13869e-05  0.000109022      47.6593 
          20      2.28857  8.61457e-05  0.000108098      47.6593 
          20      2.35539  8.11729e-05  0.000107007      47.6592 
          20      2.42317  7.64983e-05  0.000105771      47.6592 
          20      2.49191  7.21574e-05  0.000104415      47.6591 
          20      2.56161  6.81882e-05  0.000102967      47.6591 
          20      2.63226  6.46321e-05   0.00010146       47.659 
          20      2.70389  6.15317e-05  9.99258e-05      47.6589 
          20      2.77648  5.89299e-05  9.84013e-05      47.6589 
          20      2.85002  5.68663e-05  9.69223e-05      47.6588 
          20      2.92453   5.5375e-05   9.5524e-05      47.6587 
          20            3  5.44806e-05  9.42393e-05      47.6586 
          40            0            0            0      46.5617 
          40      0.00048  1.37949e-05  2.36339e-10      46.5617 
          40     0.001922  4.90024e-05  1.24627e-09      46.5617 
          40     0.004326  9.02741e-05  3.96837e-09      46.5617 
          40      0.00769  0.000121515  1.00727e-08      46.5617 
          40     0.012017    0.0001348  2.20866e-08      46.5617 
          40     0.017304  0.000134379  4.34481e-08      46.5617 
          40     0.023553  0.000132892   7.8537e-08      46.5617 
          40     0.030763  0.000140977  1.32574e-07      46.5617 
          40     0.038936  0.000157333  2.11552e-07      46.5617 
          40     0.048069  0.000169353    3.221e-07      46.5617 
          40     0.058163  0.000170017  4.71594e-07      46.5617 
          40     0.069219  0.000176456  6.68136e-07      46.5617 
          40     0.081236  0.000189115  9.20018e-07      46.5617 
          40     0.094215  0.000191003  1.23517e-06      46.5617 
          40     0.108155  0.000196093  1.62156e-06      46.5617 
          40     0.123056  0.000198268  2.08647e-06      46.5617 
          40     0.138918  0.000199511  2.63633e-06      46.5617 
          40     0.155744   0.00020018  3.27653e-06      46.5617 
          40     0.173529  0.000199673  4.01088e-06      46.5617 
          40     0.192276  0.000197524  4.84215e-06      46.5617 
          40     0.211984  0.000194297   5.7716e-06      46.5617 
          40     0.232655  0.000191083  6.79917e-06      46.5617 
          40     0.254285   0.00018646  7.92277e-06      46.5617 
          40     0.276877  0.000181949  9.14087e-06      46.5617 
          40     0.300431  0.000177073  1.04499e-05      46.5617 
          40     0.324946  0.000172099  1.18449e-05      46.5617 
          40     0.350424  0.000167244  1.33214e-05      46.5617 
          40     0.376861  0.000162678  1.48746e-05      46.5617 
          40      0.40426  0.000158519  1.65001e-05      46.5617 
          40     0.432621   0.00015485  1.81933e-05      46.5617 
          40     0.461945  0.000151726  1.99491e-05      46.5617 
          40     0.492228  0.000149192  2.17619e-05      46.5617 
          40     0.523472  0.000147283  2.36262e-05      46.5617 
          40     0.555678  0.000146016  2.55366e-05      46.5616 
          40     0.588845  0.000145351  2.74899e-05      46.5616 
          40     0.622976  0.000145166   2.9485e-05      46.5616 
          40     0.658066  0.000145476  3.15014e-05      46.5616 
          40     0.694117  0.000146159  3.35326e-05      46.5616 
          40      0.73113  0.000147081  3.55754e-05      46.5616 
          40     0.769107  0.000148109  3.76235e-05      46.5616 
          40     0.808042  0.000149114  3.96681e-05      46.5616 
          40     0.847939  0.000149974  4.16986e-05      46.5616 
          40     0.888797  0.000150582  4.37032e-05      46.5616 
          40      0.93062  0.000150846  4.56696e-05      46.5616 
          40       0.9734  0.000150699  4.75855e-05      46.5616 
          40      1.01714  0.000150097  4.94405e-05      46.5616 
          40      1.06185  0.000149024  5.12259e-05      46.5616 
          40      1.10751  0.000147493  5.29359e-05      46.5616 
          40      1.15414  0.000145542  5.45676e-05      46.5616 
          40      1.20173  0.000143232  5.61203e-05      46.5616 
          40      1.25028  0.000140636  5.75952e-05      46.5616 
          40      1.29979  0.000137828  5.89925e-05      46.5616 
          40      1.35026  0.000134864  6.03087e-05      46.5616 
          40       1.4017  0.000131755    6.153e-05      46.5615 
          40      1.45409  0.000128434  6.26261e-05      46.5615 
          40      1.50745  0.000124737  6.35434e-05      46.5615 
          40      1.56176  0.000121983  6.44918e-05      46.5615 
          40      1.61705  0.000119062  6.52979e-05      46.5615 
          40      1.67329  0.000115999  6.59581e-05      46.5615 
          40      1.73049  0.000112821  6.64709e-05      46.5615 
          40      1.78865  0.000109562  6.68371e-05      46.5615 
          40      1.84778  0.000106257  6.70595e-05      46.5614 
          40      1.90786  0.000102946  6.71429e-05      46.5614 
          40      1.96891  9.96707e-05  6.70938e-05      46.5614 
          40      2.03092  9.64749e-05  6.69205e-05      46.5614 
          40      2.09389   9.3402e-05  6.66323e-05      46.5614 
          40      2.15782  9.04965e-05  6.62398e-05      46.5614 
          40      2.22272  8.78001e-05   6.5754e-05      46.5613 
          40      2.28857  8.53528e-05  6.51864e-05      46.5613 
          40      2.35539  8.31903e-05  6.45483e-05      46.5613 
          40      2.42317  8.13435e-05  6.38506e-05      46.5613 
          40      2.49191  7.98372e-05  6.31033e-05      46.5613 
          40      2.56161  7.86889e-05  6.23152e-05      46.5612 
          40      2.63226  7.79075e-05  6.14936e-05      46.5612 
          40      2.70389  7.74925e-05  6.06437e-05      46.5612 
          40      2.77648   7.7434e-05   5.9769e-05      46.5612 
          40      2.85002  7.77111e-05  5.88706e-05      46.5611 
          40      2.92453  7.82928e-05  5.79477e-05      46.5611 
          40            3   7.9138e-05  5.69976e-05      46.5611 
          60            0           -0           -0      45.5186 
          60      0.00048   1.3623e-05  1.30875e-10      45.5186 
          60     0.001922  4.85515e-05  5.74492e-10      45.5186 
          60     0.004326  9.00213e-05  1.52667e-09      45.5186 
          60      0.00769  0.000122546  3.44907e-09      45.5186 
          60     0.012017  0.000138497  7.24235e-09      45.5186 
          60     0.017304  0.000141944  1.44172e-08      45.5186 
          60     0.023553  0.000145018  2.72589e-08      45.5186 
          60     0.030763   0.00015791  4.89382e-08      45.5186 
          60     0.038936  0.000179315  8.36232e-08      45.5186 
          60     0.048069  0.000197031  1.36553e-07      45.5186 
          60     0.058163  0.000204214  2.14202e-07      45.5186 
          60     0.069219  0.000217233  3.24343e-07      45.5186 
          60     0.081236   0.00023639  4.75772e-07      45.5186 
          60     0.094215  0.000245205  6.77896e-07      45.5186 
          60     0.108155  0.000256973  9.40874e-07      45.5186 
          60     0.123056  0.000265667  1.27515e-06      45.5186 
          60     0.138918  0.000273057    1.691e-06      45.5186 
          60     0.155744  0.000279358  2.19822e-06      45.5186 
          60     0.173529  0.000283884  2.80556e-06      45.5186 
          60     0.192276  0.000286102  3.52088e-06      45.5186 
          60     0.211984  0.000286497   4.3506e-06      45.5186 
          60     0.232655  0.000286089  5.29952e-06      45.5186 
          60     0.254285  0.000283511  6.36976e-06      45.5186 
          60     0.276877  0.000280254  7.56408e-06      45.5186 
          60     0.300431  0.000275912  8.88183e-06      45.5186 
          60     0.324946  0.000270817  1.03199e-05      45.5186 
          60     0.350424  0.000265265   1.1875e-05      45.5186 
          60     0.376861  0.000259512  1.35427e-05      45.5186 
          60      0.40426  0.000253771  1.53184e-05      45.5186 
          60     0.432621  0.000248214   1.7196e-05      45.5186 
          60     0.461945  0.000242983  1.91683e-05      45.5186 
          60     0.492228  0.000238196  2.12263e-05      45.5186 
          60     0.523472  0.000233944  2.33607e-05      45.5186 
          60     0.555678  0.000230285  2.55625e-05      45.5186 
          60     0.588845  0.000227207  2.78259e-05      45.5186 
          60     0.622976  0.000224598  3.01479e-05      45.5186 
          60     0.658066  0.000222496  3.24978e-05      45.5185 
          60     0.694117  0.000220765   3.4867e-05      45.5185 
          60      0.73113  0.000219243  3.72513e-05      45.5185 
          60     0.769107  0.000217772  3.96437e-05      45.5185 
          60     0.808042  0.000216208  4.20336e-05      45.5185 
          60     0.847939  0.000214426  4.44094e-05      45.5185 
          60     0.888797   0.00021232  4.67578e-05      45.5185 
          60      0.93062  0.000209809  4.90657e-05      45.5185 
          60       0.9734  0.000206842  5.13203e-05      45.5185 
          60      1.01714  0.000203396  5.35115e-05      45.5185 
          60      1.06185  0.000199477  5.56313e-05      45.5185 
          60      1.10751   0.00019512  5.76759e-05      45.5185 
          60      1.15414  0.000190382  5.96449e-05      45.5185 
          60      1.20173  0.000185338  6.15403e-05      45.5185 
          60      1.25028  0.000180069  6.33665e-05      45.5185 
          60      1.29979  0.000174649  6.51259e-05      45.5185 