Variables = x, y, u, v, p

Zone, I=416, F=POINT
         -50            0  2.98314e-19  3.66279e-23      79.8048 
         -50     0.013333  0.000250608  6.47857e-08      79.8048 
         -50     0.053333   0.00021711  1.08802e-07      79.8048 
         -50         0.12  0.000202354 -1.27852e-07      79.8048 
         -50     0.213332  0.000204454 -1.03786e-06      79.8047 
         -50     0.333332  0.000214451 -2.60929e-06      79.8047 
         -50         0.48  0.000222826 -4.35691e-06      79.8045 
         -50     0.653331  0.000225702 -7.83042e-06      79.8042 
         -50     0.853332  0.000223904 -1.07294e-05      79.8038 
         -50         1.08  0.000222893 -1.31887e-05      79.8033 
         -50      1.33333  0.000222867 -1.49939e-05      79.8025 
         -50      1.61333  0.000220374 -1.55771e-05      79.8014 
         -50         1.92  0.000218378 -1.45671e-05         79.8 
         -50      2.25333  0.000219766  -1.3219e-05      79.7982 
         -50      2.61333  0.000222994 -1.08026e-05      79.7959 
         -50            3  0.000226282 -6.01284e-06      79.7931 
         -25            0           -0           -0      76.5936 
         -25     0.013333  0.000187868  8.43319e-09      76.5936 
         -25     0.053333  0.000177502 -1.73575e-07      76.5936 
         -25         0.12  0.000186498 -8.88488e-07      76.5936 
         -25     0.213332  0.000205138 -2.26117e-06      76.5936 
         -25     0.333332   0.00022168 -4.11512e-06      76.5935 
         -25         0.48  0.000230263 -6.34633e-06      76.5935 
         -25     0.653331  0.000229007 -8.82415e-06      76.5934 
         -25     0.853332  0.000217551 -1.18396e-05      76.5932 
         -25         1.08  0.000202418 -1.48661e-05       76.593 
         -25      1.33333  0.000188702  -1.7233e-05      76.5927 
         -25      1.61333  0.000173353 -1.87864e-05      76.5923 
         -25         1.92  0.000156881 -1.91273e-05      76.5918 
         -25      2.25333  0.000145596 -1.81628e-05      76.5911 
         -25      2.61333  0.000138179 -1.68445e-05      76.5902 
         -25            3  0.000133383  -1.6465e-05      76.5891 
           0            0            0            0      73.9571 
           0     0.013333  0.000481096 -0.000323917      73.9603 
           0     0.053333  0.000303845 -0.000166045      73.9654 
           0         0.12  0.000231306 -0.000113087      73.9711 
           0     0.213332  0.000198082  -8.7064e-05      73.9773 
           0     0.333332   0.00018035 -7.12501e-05      73.9836 
           0         0.48  0.000166879 -5.96754e-05      73.9899 
           0     0.653331  0.000156102 -5.10871e-05      73.9962 
           0     0.853332  0.000146858   -4.446e-05      74.0024 
           0         1.08  0.000140109 -3.91845e-05      74.0084 
           0      1.33333  0.000136621 -3.48085e-05      74.0141 
           0      1.61333  0.000136438  -3.0956e-05      74.0196 
           0         1.92  0.000139772 -2.72824e-05      74.0247 
           0      2.25333  0.000142736 -2.38245e-05      74.0295 
           0      2.61333  0.000145404  -1.9806e-05      74.0339 
           0            3  0.000143201 -2.10865e-05      74.0379 
          20            0            0            0      72.3339 
          20     0.013333  0.000155313   1.5366e-08      72.3339 
          20     0.053333  0.000163755  9.85807e-08      72.3339 
          20         0.12  0.000176898  5.59008e-07      72.3339 
          20     0.213332  0.000179047  1.95682e-06      72.3339 
          20     0.333332  0.000171289  4.58749e-06      72.3339 
          20         0.48   0.00016229  8.12464e-06      72.3339 
          20     0.653331   0.00015501  1.19787e-05      72.3338 
          20     0.853332  0.000149645  1.58367e-05      72.3338 
          20         1.08  0.000144162  1.94279e-05      72.3336 
          20      1.33333  0.000136449  2.22936e-05      72.3335 
          20      1.61333  0.000127637  2.42198e-05      72.3333 
          20         1.92  0.000120801  2.50756e-05       72.333 
          20      2.25333  0.000118973  2.49394e-05      72.3326 
          20      2.61333  0.000119038  2.36283e-05      72.3321 
          20            3  0.000117809  2.16694e-05      72.3316 
          40            0            0            0      70.6655 
          40     0.013333   0.00015075  1.51251e-08      70.6655 
          40     0.053333  0.000172607  1.94495e-07      70.6655 
          40         0.12  0.000196788  1.02389e-06      70.6655 
          40     0.213332  0.000200874  3.22445e-06      70.6655 
          40     0.333332  0.000184751  7.29385e-06      70.6655 
          40         0.48  0.000164493  1.32342e-05      70.6654 
          40     0.653331  0.000154375  2.07058e-05      70.6654 
          40     0.853332  0.000154289  2.90532e-05      70.6654 
          40         1.08  0.000152789  3.72709e-05      70.6654 
          40      1.33333  0.000143795  4.43609e-05      70.6653 
          40      1.61333  0.000131958  4.97308e-05      70.6652 
          40         1.92  0.000120377  5.25176e-05      70.6651 
          40      2.25333   0.00010652  5.24742e-05       70.665 
          40      2.61333  9.42217e-05  5.04545e-05      70.6648 
          40            3  8.89614e-05  4.79643e-05      70.6646 
          60            0           -0           -0      69.0813 
          60     0.013333  0.000149608 -2.69789e-08      69.0813 
          60     0.053333  0.000191749 -3.87821e-07      69.0813 
          60         0.12  0.000259464 -1.40919e-06      69.0813 
          60     0.213332  0.000318051 -2.66566e-06      69.0813 
          60     0.333332  0.000344703 -3.12974e-06      69.0813 
          60         0.48  0.000344476 -2.18451e-06      69.0813 
          60     0.653331  0.000331205 -1.48349e-07      69.0813 
          60     0.853332  0.000306676   2.0952e-06      69.0812 
          60         1.08   0.00026964  4.01791e-06      69.0812 
          60      1.33333  0.000226804  5.54258e-06      69.0812 
          60      1.61333  0.000182254  6.88439e-06      69.0811 
          60         1.92  0.000137655  7.94117e-06      69.0811 
          60      2.25333  0.000103928  8.46762e-06       69.081 
          60      2.61333  8.23702e-05  8.58901e-06      69.0809 
          60            3  6.94922e-05  7.89484e-06      69.0807 
          80            0           -0           -0      67.5459 
          80     0.013333  0.000142058 -4.89457e-08      67.5459 
          80     0.053333    0.0001783 -6.95651e-07      67.5459 
          80         0.12  0.000249759 -2.74272e-06      67.5459 
          80     0.213332  0.000324279 -6.10462e-06      67.5459 
          80     0.333332  0.000371364 -9.75975e-06      67.5459 
          80         0.48  0.000387297  -1.2933e-05      67.5459 
          80     0.653331  0.000379753  -1.5904e-05      67.5458 
          80     0.853332  0.000347114 -1.95635e-05      67.5458 
          80         1.08  0.000296026 -2.38633e-05      67.5458 
          80      1.33333  0.000245467 -2.77893e-05      67.5458 
          80      1.61333   0.00019542 -3.05798e-05      67.5458 
          80         1.92  0.000140763 -3.20188e-05      67.5457 
          80      2.25333  9.57114e-05 -3.21727e-05      67.5457 
          80      2.61333  6.50381e-05 -3.08434e-05      67.5456 
          80            3  4.91214e-05 -2.80943e-05      67.5455 
         100            0            0            0      66.0411 
         100     0.013333  0.000124824 -2.90896e-08      66.0411 
         100     0.053333  0.000118488 -4.28442e-07      66.0411 
         100         0.12  0.000133179 -1.79535e-06      66.0411 
         100     0.213332   0.00016052 -4.39219e-06      66.0411 
         100     0.333332  0.000185384 -7.98766e-06      66.0411 
         100         0.48  0.000199738 -1.22833e-05      66.0411 
         100     0.653331   0.00020156 -1.73162e-05      66.0411 
         100     0.853332  0.000187852 -2.33634e-05      66.0411 
         100         1.08  0.000164383 -3.01233e-05      66.0411 
         100      1.33333  0.000145692 -3.65092e-05      66.0411 
         100      1.61333   0.00013075 -4.16389e-05       66.041 
         100         1.92  0.000113037 -4.49936e-05       66.041 
         100      2.25333  9.79739e-05 -4.63172e-05       66.041 
         100      2.61333  8.78057e-05 -4.55085e-05      66.0409 
         100            3  8.43947e-05 -4.25411e-05      66.0409 
         150            0           -0           -0      62.3512 
         150     0.013333  0.000101907 -1.01567e-08      62.3512 
         150     0.053333  4.13047e-05 -1.96717e-07      62.3512 
         150         0.12 -8.81208e-06 -1.13757e-06      62.3512 
         150     0.213332 -2.48418e-05 -3.76529e-06      62.3512 
         150     0.333332 -8.81973e-06 -8.78815e-06      62.3512 
         150         0.48  1.75898e-05 -1.62164e-05      62.3512 
         150     0.653331  3.56807e-05  -2.5535e-05      62.3512 
         150     0.853332  4.18095e-05 -3.59807e-05      62.3511 
         150         1.08  4.63811e-05 -4.65491e-05      62.3511 
         150      1.33333  5.88276e-05  -5.6177e-05      62.3511 
         150      1.61333  7.69699e-05 -6.41794e-05      62.3511 
         150         1.92  9.61934e-05 -6.97424e-05      62.3511 
         150      2.25333  0.000114023 -7.23299e-05      62.3511 
         150      2.61333  0.000127972 -7.20234e-05      62.3511 
         150            3  0.000136598 -6.92843e-05      62.3511 
         200            0    2.671e-19  1.57121e-25      58.7067 
         200     0.013333  9.53957e-05 -1.53881e-08      58.7067 
         200     0.053333  2.15178e-05 -2.81043e-07      58.7067 
         200         0.12 -4.18007e-05  -1.5602e-06      58.7067 
         200     0.213332 -6.64695e-05 -4.96684e-06      58.7067 
         200     0.333332 -5.67356e-05 -1.11929e-05      58.7067 
         200         0.48 -3.81557e-05 -2.00793e-05      58.7067 
         200     0.653331 -3.00608e-05 -3.09678e-05      58.7067 
         200     0.853332 -3.21562e-05 -4.28894e-05      58.7067 
         200         1.08 -2.68498e-05 -5.44615e-05      58.7067 
         200      1.33333 -4.09306e-06 -6.44336e-05      58.7067 
         200      1.61333  2.65823e-05 -7.24094e-05      58.7067 
         200         1.92  5.88333e-05 -7.77501e-05      58.7067 
         200      2.25333  9.10843e-05 -7.99135e-05      58.7067 
         200      2.61333  0.000119426 -7.90298e-05      58.7067 
         200            3  0.000140116 -7.53545e-05      58.7067 
         250            0           -0           -0      55.0777 
         250     0.013333   0.00011972 -2.64147e-09      55.0777 
         250     0.053333  0.000103546 -3.76849e-08      55.0777 
         250         0.12  9.27147e-05 -1.52009e-07      55.0777 
         250     0.213332  8.44883e-05 -3.49578e-07      55.0777 
         250     0.333332  7.69273e-05 -6.02199e-07      55.0777 
         250         0.48  7.02579e-05 -9.41841e-07      55.0777 
         250     0.653331  6.50224e-05 -1.48569e-06      55.0777 
         250     0.853332  6.03914e-05 -2.32224e-06      55.0777 
         250         1.08  5.77949e-05 -3.35153e-06      55.0777 
         250      1.33333  6.07011e-05 -4.30207e-06      55.0777 
         250      1.61333  6.85416e-05 -5.00004e-06      55.0777 
         250         1.92   7.7928e-05 -5.49766e-06      55.0777 
         250      2.25333  8.66795e-05 -5.72298e-06      55.0777 
         250      2.61333  9.40283e-05 -5.70913e-06      55.0777 
         250            3   0.00010074 -5.42353e-06      55.0777 
         300            0           -0           -0      51.4539 
         300     0.013333  0.000136488  -1.3616e-08      51.4539 
         300     0.053333  0.000166289 -1.74353e-07      51.4539 
         300         0.12  0.000215032 -5.89361e-07      51.4539 
         300     0.213332  0.000257317 -9.66297e-07      51.4539 
         300     0.333332  0.000276281 -7.08699e-07      51.4539 
         300         0.48  0.000274686  5.64881e-07      51.4539 
         300     0.653331  0.000264963  2.72971e-06      51.4539 
         300     0.853332  0.000252542  5.28385e-06      51.4539 
         300         1.08  0.000234328  7.68557e-06      51.4539 
         300      1.33333  0.000209637  9.67111e-06      51.4539 
         300      1.61333  0.000183227  1.13597e-05      51.4539 
         300         1.92  0.000156071   1.2685e-05      51.4539 
         300      2.25333  0.000129305  1.35821e-05      51.4539 
         300      2.61333  0.000103662  1.39588e-05      51.4539 
         300            3  8.10575e-05  1.37674e-05      51.4539 
         350            0           -0           -0      47.8318 
         350     0.013333  0.000124923 -5.03097e-08      47.8318 
         350     0.053333  0.000135947   -7.396e-07      47.8318 
         350         0.12  0.000189271 -3.22206e-06      47.8318 
         350     0.213332  0.000270637 -8.18786e-06      47.8318 
         350     0.333332  0.000342547  -1.5175e-05      47.8318 
         350         0.48  0.000379206  -2.3108e-05      47.8318 
         350     0.653331  0.000380898 -3.13636e-05      47.8318 
         350     0.853332  0.000356609 -4.00164e-05      47.8318 
         350         1.08  0.000315626 -4.90856e-05      47.8318 
         350      1.33333  0.000272224 -5.78747e-05      47.8318 
         350      1.61333  0.000233776 -6.54441e-05      47.8318 
         350         1.92  0.000193098 -7.13018e-05      47.8318 
         350      2.25333  0.000152905 -7.48704e-05      47.8318 
         350      2.61333  0.000115966 -7.59717e-05      47.8318 
         350            3  8.43813e-05 -7.45816e-05      47.8318 
         400            0           -0           -0      44.2099 
         400     0.013333  8.80128e-05 -4.38862e-09      44.2099 
         400     0.053333 -7.54106e-06 -1.15514e-07      44.2099 
         400         0.12 -0.000104793  -8.4208e-07      44.2099 
         400     0.213332 -0.000163742 -3.22362e-06      44.2099 
         400     0.333332 -0.000173318  -8.2653e-06      44.2099 
         400         0.48 -0.000154472  -1.6236e-05      44.2099 
         400     0.653331 -0.000134482 -2.66542e-05      44.2099 
         400     0.853332 -0.000125013 -3.86771e-05      44.2099 
         400         1.08 -0.000116865 -5.11818e-05      44.2099 
         400      1.33333 -9.35138e-05 -6.29095e-05      44.2099 
         400      1.61333 -5.43237e-05 -7.30861e-05      44.2099 
         400         1.92 -1.08889e-05 -8.13799e-05      44.2099 
         400      2.25333  3.35354e-05 -8.72345e-05      44.2099 
         400      2.61333  7.74374e-05  -9.0215e-05      44.2099 
         400            3  0.000118059 -9.01102e-05      44.2099 
         450            0  1.43931e-19 -2.05735e-27       40.588 
         450     0.013333  0.000123309  4.39392e-08       40.588 
         450     0.053333  0.000104182  6.52643e-07       40.588 
         450         0.12  6.12741e-05  2.88907e-06       40.588 
         450     0.213332 -6.06369e-06  7.49242e-06       40.588 
         450     0.333332  -7.1398e-05  1.42059e-05       40.588 
         450         0.48 -0.000109949  2.21324e-05       40.588 
         450     0.653331 -0.000116817  3.06661e-05       40.588 
         450     0.853332 -9.82231e-05  3.98141e-05       40.588 
         450         1.08  -6.2764e-05  4.95539e-05       40.588 
         450      1.33333 -2.55332e-05  5.91887e-05       40.588 
         450      1.61333  3.41896e-06   6.7761e-05       40.588 
         450         1.92  3.13328e-05  7.46286e-05       40.588 
         450      2.25333  6.01187e-05  7.95716e-05       40.588 
         450      2.61333  8.81617e-05   8.2071e-05       40.588 
         450            3  0.000112708  8.17781e-05       40.588 
         500            0            0            0      36.9659 
         500     0.013333  0.000142334  2.11585e-08      36.9659 
         500     0.053333   0.00017653  3.56684e-07      36.9659 
         500         0.12  0.000204127  1.85387e-06      36.9659 
         500     0.213332   0.00019409  5.64501e-06      36.9659 
         500     0.333332  0.000152251  1.23296e-05      36.9659 
         500         0.48   0.00011012  2.14926e-05      36.9659 
         500     0.653331  9.18778e-05  3.21785e-05      36.9659 
         500     0.853332  9.81701e-05  4.34879e-05      36.9659 
         500         1.08   0.00011155  5.44766e-05      36.9659 
         500      1.33333  0.000112584  6.41145e-05      36.9659 
         500      1.61333  0.000102845  7.19933e-05      36.9659 
         500         1.92  9.65625e-05  7.82636e-05      36.9659 
         500      2.25333  9.31194e-05  8.25452e-05      36.9659 
         500      2.61333  9.04964e-05  8.44855e-05      36.9659 
         500            3  8.88402e-05  8.38665e-05      36.9659 
         550            0           -0           -0      33.3432 
         550     0.013333  9.99375e-05 -4.70363e-08      33.3432 
         550     0.053333   4.6963e-05  -7.2297e-07      33.3432 
         550         0.12  2.94136e-05 -3.38625e-06      33.3432 
         550     0.213332   7.2827e-05 -9.47128e-06      33.3432 
         550     0.333332  0.000159896 -1.96053e-05      33.3432 
         550         0.48  0.000250506 -3.33686e-05      33.3432 
         550     0.653331  0.000314797 -4.99026e-05      33.3432 
         550     0.853332  0.000341288 -6.86255e-05      33.3432 
         550         1.08  0.000329878 -8.92532e-05      33.3432 
         550      1.33333  0.000294531 -0.000110997      33.3432 
         550      1.61333  0.000259469 -0.000132208      33.3432 
         550         1.92  0.000230036 -0.000151205      33.3432 
         550      2.25333  0.000199747 -0.000166893      33.3432 
         550      2.61333  0.000167129 -0.000178158      33.3432 
         550            3  0.000134743  -0.00018409      33.3432 
         600            0           -0           -0      29.7203 
         600     0.013333  0.000193343 -6.01948e-08      29.7203 
         600     0.053333   0.00038679 -8.25757e-07      29.7203 
         600         0.12  0.000672242  -3.1895e-06      29.7203 
         600     0.213332   0.00095116 -6.69912e-06      29.7203 
         600     0.333332   0.00112707 -9.10327e-06      29.7203 
         600         0.48   0.00117323 -7.87724e-06      29.7203 
         600     0.653331   0.00113417 -2.06108e-06      29.7203 
         600     0.853332   0.00106414  7.45953e-06      29.7203 
         600         1.08  0.000983256  1.89539e-05      29.7203 
         600      1.33333  0.000886545  3.09998e-05      29.7203 
         600      1.61333  0.000771141  4.29484e-05      29.7203 
         600         1.92  0.000639609  5.43217e-05      29.7203 
         600      2.25333  0.000495059  6.46712e-05      29.7203 
         600      2.61333  0.000343312  7.33448e-05      29.7203 
         600            3  0.000194103  7.97242e-05      29.7203 
         650            0            0            0      26.0963 
         650     0.013333  8.82263e-05   1.6272e-07      26.0963 
         650     0.053333 -5.94271e-05  2.38463e-06      26.0963 
         650         0.12 -0.000349102  1.03805e-05      26.0963 
         650     0.213332 -0.000738205  2.64781e-05      26.0963 
         650     0.333332  -0.00109678  4.93968e-05      26.0963 
         650         0.48  -0.00131991  7.55427e-05      26.0963 
         650     0.653331  -0.00139674  0.000102294      26.0963 
         650     0.853332  -0.00136525  0.000129649      26.0963 
         650         1.08  -0.00124782  0.000159171      26.0963 
         650      1.33333  -0.00106564  0.000191025      26.0963 
         650      1.61333 -0.000865561  0.000222903      26.0963 
         650         1.92  -0.00066924  0.000251518      26.0963 
         650      2.25333 -0.000464332  0.000275392      26.0963 
         650      2.61333 -0.000249686   0.00029287      26.0963 
         650            3 -3.73986e-05  0.000302379      26.0963 
         700            0            0            0      22.4732 
         700     0.013333  8.46509e-05 -7.92144e-08      22.4732 
         700     0.053333 -1.24682e-06  -1.1965e-06      22.4732 
         700         0.12 -4.42536e-05 -5.46566e-06      22.4732 
         700     0.213332 -6.96071e-06 -1.48707e-05      22.4732 
         700     0.333332  8.60905e-05 -3.00251e-05      22.4732 
         700         0.48  0.000183654 -5.02171e-05      22.4732 
         700     0.653331  0.000251073 -7.45479e-05      22.4732 
         700     0.853332  0.000272931 -0.000102795      22.4732 
         700         1.08  0.000241375 -0.000135182      22.4732 
         700      1.33333  0.000171971 -0.000170791      22.4732 
         700      1.61333   0.00011382  -0.00020661      22.4732 
         700         1.92  9.06949e-05 -0.000239594      22.4732 
         700      2.25333  8.10947e-05 -0.000267693      22.4732 
         700      2.61333  7.26031e-05 -0.000289532      22.4732 
         700            3  6.73064e-05 -0.000303867      22.4732 
         750            0           -0           -0      18.8494 
         750     0.013333  0.000100968 -2.83608e-08      18.8494 
         750     0.053333   4.6162e-05 -4.56452e-07      18.8494 
         750         0.12   1.8038e-05  -2.2744e-06      18.8494 
         750     0.213332  4.63773e-05 -6.77838e-06      18.8494 
         750     0.333332  0.000123911 -1.48109e-05      18.8494 
         750         0.48  0.000213064 -2.62011e-05      18.8494 
         750     0.653331  0.000278404 -4.00447e-05      18.8494 
         750     0.853332  0.000306638 -5.53931e-05      18.8494 
         750         1.08  0.000305295 -7.14855e-05      18.8494 
         750      1.33333  0.000292142 -8.75284e-05      18.8494 
         750      1.61333  0.000278263 -0.000102898      18.8494 
         750         1.92  0.000258827 -0.000117118      18.8494 
         750      2.25333   0.00023413 -0.000129796      18.8494 
         750      2.61333  0.000206753 -0.000139983      18.8494 
         750            3  0.000178064 -0.000146783      18.8494 
         800            0            0            0      15.2253 
         800     0.013333  0.000148161 -3.47873e-08      15.2253 
         800     0.053333  0.000218348 -5.01485e-07      15.2253 
         800         0.12  0.000345458 -2.13266e-06      15.2253 
         800     0.213332  0.000498216 -5.28663e-06      15.2253 
         800     0.333332  0.000631432 -9.51121e-06      15.2253 
         800         0.48  0.000714694 -1.38199e-05      15.2253 
         800     0.653331  0.000748258  -1.7356e-05      15.2253 
         800     0.853332  0.000750105 -1.98408e-05      15.2253 
         800         1.08  0.000733268 -2.16127e-05      15.2253 
         800      1.33333  0.000695018 -2.34385e-05      15.2253 
         800      1.61333   0.00063015 -2.58941e-05      15.2253 
         800         1.92  0.000548403 -2.88299e-05      15.2253 
         800      2.25333  0.000458299  -3.1524e-05      15.2253 
         800      2.61333  0.000362746 -3.37967e-05      15.2253 
         800            3  0.000263924 -3.55557e-05      15.2253 
         850            0           -0           -0      11.6008 
         850     0.013333  0.000193058 -2.73386e-08      11.6008 
         850     0.053333   0.00037724  -3.4472e-07      11.6008 
         850         0.12   0.00063237 -1.09914e-06      11.6008 
         850     0.213332  0.000863412 -1.38025e-06      11.6008 
         850     0.333332   0.00099252   8.0064e-07      11.6008 
         850         0.48   0.00100793  7.27366e-06      11.6008 
         850     0.653331  0.000956577   1.8499e-05      11.6008 
         850     0.853332  0.000890911  3.35271e-05      11.6008 
         850         1.08  0.000830608  5.07431e-05      11.6008 
         850      1.33333  0.000765955   6.8595e-05      11.6008 
         850      1.61333  0.000686021  8.60641e-05      11.6008 
         850         1.92  0.000593154  0.000102717      11.6008 
         850      2.25333  0.000490311  0.000117948      11.6008 
         850      2.61333  0.000379869  0.000130973      11.6008 
         850            3  0.000265214  0.000141043      11.6007 
         900            0           -0           -0       7.9756 
         900     0.013333  0.000181084  1.03859e-07       7.9756 
         900     0.053333   0.00028936  1.62376e-06       7.9756 
         900         0.12  0.000337656  7.78598e-06       7.9756 
         900     0.213332  0.000236724  2.23199e-05       7.9756 
         900     0.333332  1.46085e-05  4.71502e-05       7.9756 
         900         0.48 -0.000218698  8.12437e-05       7.9756 
         900     0.653331 -0.000370247  0.000121871       7.9756 
         900     0.853332 -0.000414889  0.000166677       7.9756 
         900         1.08 -0.000375331  0.000214274       7.9756 
         900      1.33333 -0.000296275   0.00026311       7.9756 
         900      1.61333 -0.000223746  0.000310963       7.9756 
         900         1.92 -0.000171721  0.000355411       7.9756 
         900      2.25333 -0.000122199  0.000394795       7.9756 
         900      2.61333 -6.74407e-05  0.000427114       7.9756 
         900            3 -1.05428e-05   0.00045025      7.97561 
         950            0           -0           -0      4.35009 
         950     0.013333  -1.2937e-05  6.52022e-08      4.35009 
         950     0.053333 -0.000396368  8.34203e-07      4.35009 
         950         0.12 -0.000899335  2.76036e-06      4.35009 
         950     0.213332  -0.00134733  4.04892e-06      4.35009 
         950     0.333332  -0.00159625  7.49154e-07      4.35009 
         950         0.48  -0.00163259 -1.04742e-05      4.35009 
         950     0.653331  -0.00155446 -2.99145e-05      4.35009 
         950     0.853332  -0.00146068 -5.49746e-05      4.35008 
         950         1.08  -0.00137043 -8.16888e-05      4.35008 
         950      1.33333  -0.00124172 -0.000106381      4.35008 
         950      1.61333  -0.00105578 -0.000127451      4.35009 
         950         1.92 -0.000852727 -0.000145897      4.35009 
         950      2.25333 -0.000648315 -0.000162152       4.3501 
         950      2.61333 -0.000439601 -0.000175783      4.35011 
         950            3 -0.000224474 -0.000185787      4.35012 
        1000            0  1.37924e-19  -2.9972e-24     0.725252 
        1000     0.013333  0.000111917 -1.91076e-07     0.725252 
        1000     0.053333  0.000122334 -2.76882e-06     0.725252 
        1000         0.12  0.000265434 -1.23933e-05     0.725252 
        1000     0.213332  0.000559132 -3.29093e-05     0.725252 
        1000     0.333332  0.000907546 -6.43042e-05     0.725252 
        1000         0.48   0.00118045 -0.000103113     0.725252 
        1000     0.653331   0.00131024  -0.00014569     0.725252 
        1000     0.853332   0.00130044 -0.000190797     0.725253 
        1000         1.08   0.00117719 -0.000239229     0.725254 
        1000      1.33333  0.000979396 -0.000290975     0.725254 
        1000      1.61333  0.000780225 -0.000343042     0.725254 
        1000         1.92  0.000634462  -0.00039126     0.725252 
        1000      2.25333  0.000510464 -0.000433102     0.725249 
        1000      2.61333  0.000381569 -0.000467236     0.725245 
        1000            3  0.000248906 -0.000492186     0.725237 
