Variables = x, y, u, v, p

Zone, I=416, F=POINT
         -50            0            0            0      86.8491 
         -50     0.013333  0.000162893  5.68059e-08      86.8491 
         -50     0.053333  0.000159217  3.02686e-07      86.8491 
         -50         0.12  0.000160735  1.11207e-06       86.849 
         -50     0.213332  0.000153962  2.85434e-06       86.849 
         -50     0.333332  0.000141028  5.65867e-06      86.8489 
         -50         0.48  0.000129891  9.38091e-06      86.8487 
         -50     0.653331   0.00012516   1.4385e-05      86.8485 
         -50     0.853332  0.000125815  1.87967e-05       86.848 
         -50         1.08  0.000128765  2.30208e-05      86.8474 
         -50      1.33333  0.000131539  2.60722e-05      86.8465 
         -50      1.61333  0.000133331  2.82447e-05      86.8454 
         -50         1.92  0.000131171  2.89883e-05      86.8438 
         -50      2.25333  0.000129991  2.77326e-05      86.8419 
         -50      2.61333  0.000131056  2.50744e-05      86.8394 
         -50            3  0.000131991  2.24404e-05      86.8364 
         -25            0  1.40282e-19  1.10784e-23      83.3659 
         -25     0.013333  0.000113961  1.95897e-08      83.3659 
         -25     0.053333  0.000101064  5.82542e-08      83.3659 
         -25         0.12  9.77157e-05  1.00242e-07      83.3659 
         -25     0.213332  9.96732e-05  9.72313e-08      83.3658 
         -25     0.333332  0.000103723  3.32275e-08      83.3658 
         -25         0.48  0.000107656  3.15252e-08      83.3657 
         -25     0.653331  0.000111354  1.53603e-07      83.3656 
         -25     0.853332  0.000114835  4.97199e-07      83.3655 
         -25         1.08  0.000117338  1.04965e-06      83.3652 
         -25      1.33333  0.000118569  1.72026e-06      83.3649 
         -25      1.61333  0.000119822   2.7425e-06      83.3645 
         -25         1.92  0.000119905  3.21664e-06      83.3639 
         -25      2.25333  0.000124484  5.84756e-06      83.3631 
         -25      2.61333  0.000133517  9.28082e-06      83.3622 
         -25            3  0.000138156  8.73065e-06       83.361 
           0            0  3.13427e-19 -3.76703e-19      80.5028 
           0     0.013333  0.000267731 -0.000188886      80.5061 
           0     0.053333  0.000188344 -9.34796e-05      80.5114 
           0         0.12  0.000163869 -6.53932e-05      80.5173 
           0     0.213332  0.000157374 -5.10276e-05      80.5237 
           0     0.333332  0.000153092 -4.31856e-05      80.5302 
           0         0.48  0.000145986 -3.75145e-05      80.5367 
           0     0.653331  0.000138524 -3.33801e-05      80.5432 
           0     0.853332  0.000130996 -3.02408e-05      80.5495 
           0         1.08  0.000123555 -2.77681e-05      80.5557 
           0      1.33333   0.00011626  -2.5691e-05      80.5615 
           0      1.61333  0.000106998 -2.38104e-05      80.5672 
           0         1.92  9.40254e-05 -2.20017e-05      80.5725 
           0      2.25333  8.05088e-05  -2.0036e-05      80.5775 
           0      2.61333  7.47719e-05 -1.67936e-05      80.5821 
           0            3  8.49322e-05 -9.47253e-06      80.5864 
          20            0           -0           -0      78.7788 
          20     0.013333  7.30929e-05 -3.88948e-08      78.7788 
          20     0.053333  3.28676e-05 -9.33127e-07      78.7788 
          20         0.12  3.48216e-05 -4.60265e-06      78.7788 
          20     0.213332  8.01589e-05 -1.29772e-05      78.7788 
          20     0.333332  0.000133355 -2.64545e-05      78.7787 
          20         0.48  0.000185774 -4.29803e-05      78.7786 
          20     0.653331  0.000240413 -6.00172e-05      78.7785 
          20     0.853332   0.00025075 -7.83743e-05      78.7783 
          20         1.08   0.00022098 -9.71149e-05       78.778 
          20      1.33333  0.000186681 -0.000112813      78.7775 
          20      1.61333  0.000154627 -0.000123152       78.777 
          20         1.92  0.000125442 -0.000126774      78.7762 
          20      2.25333  0.000100605  -0.00012381      78.7753 
          20      2.61333  7.99641e-05 -0.000115733      78.7742 
          20            3  7.07249e-05 -0.000102458      78.7729 
          40            0           -0           -0      76.9529 
          40     0.013333  6.28643e-05 -1.75426e-08      76.9529 
          40     0.053333  6.72701e-06 -3.21815e-07      76.9529 
          40         0.12 -4.07697e-05 -1.54309e-06      76.9529 
          40     0.213332 -6.25495e-05  -4.3976e-06      76.9529 
          40     0.333332 -5.99748e-05 -9.43221e-06      76.9529 
          40         0.48 -4.81899e-05 -1.69817e-05      76.9529 
          40     0.653331 -4.34525e-05 -2.71751e-05      76.9529 
          40     0.853332   -4.961e-05 -3.96143e-05      76.9529 
          40         1.08 -5.04774e-05 -5.28104e-05      76.9528 
          40      1.33333 -2.98567e-05 -6.45581e-05      76.9527 
          40      1.61333  5.68899e-06 -7.33773e-05      76.9526 
          40         1.92  4.29698e-05 -7.83674e-05      76.9525 
          40      2.25333  7.76752e-05 -7.86761e-05      76.9524 
          40      2.61333  0.000105953 -7.52005e-05      76.9521 
          40            3  0.000123926 -7.01579e-05      76.9519 
          60            0           -0           -0      75.2332 
          60     0.013333  8.04059e-05  5.43834e-08      75.2332 
          60     0.053333  5.94202e-05  7.79236e-07      75.2332 
          60         0.12  1.08723e-05  3.41283e-06      75.2332 
          60     0.213332 -6.17073e-05   8.7275e-06      75.2332 
          60     0.333332 -0.000128554  1.62902e-05      75.2332 
          60         0.48 -0.000166781  2.51063e-05      75.2332 
          60     0.653331 -0.000169935  3.47083e-05      75.2332 
          60     0.853332 -0.000140092  4.50809e-05      75.2332 
          60         1.08 -9.31632e-05  5.55144e-05      75.2332 
          60      1.33333 -4.91427e-05  6.46969e-05      75.2331 
          60      1.61333 -7.90098e-06  7.15755e-05      75.2331 
          60         1.92  3.92643e-05  7.53194e-05       75.233 
          60      2.25333  7.77021e-05  7.55774e-05      75.2329 
          60      2.61333  0.000106048   7.2922e-05      75.2328 
          60            3  0.000126995  6.86046e-05      75.2327 
          80            0           -0           -0      73.5682 
          80     0.013333  9.85669e-05  4.72456e-08      73.5682 
          80     0.053333  0.000130709  7.19054e-07      73.5682 
          80         0.12  0.000146217  3.37739e-06      73.5682 
          80     0.213332  0.000123512  9.32321e-06      73.5682 
          80     0.333332  8.17581e-05  1.88053e-05      73.5682 
          80         0.48  5.17648e-05  3.11639e-05      73.5682 
          80     0.653331  5.00043e-05  4.56391e-05      73.5682 
          80     0.853332  6.98338e-05  6.12034e-05      73.5682 
          80         1.08  8.42832e-05  7.59574e-05      73.5682 
          80      1.33333  8.10429e-05  8.81468e-05      73.5682 
          80      1.61333  7.35668e-05  9.71374e-05      73.5681 
          80         1.92  6.92629e-05  0.000101823      73.5681 
          80      2.25333    6.598e-05  0.000101902       73.568 
          80      2.61333  6.28801e-05  9.76062e-05       73.568 
          80            3  5.76289e-05  8.95223e-05      73.5679 
         100            0  1.00636e-19  5.46034e-25      71.9371 
         100     0.013333  9.41359e-05  2.08829e-08      71.9371 
         100     0.053333  0.000124525  3.34377e-07      71.9371 
         100         0.12  0.000151792  1.68268e-06      71.9371 
         100     0.213332  0.000154492  4.93377e-06      71.9371 
         100     0.333332  0.000139327  1.04168e-05      71.9371 
         100         0.48  0.000125192  1.78004e-05      71.9371 
         100     0.653331  0.000122897  2.65091e-05      71.9371 
         100     0.853332  0.000127161  3.57108e-05      71.9371 
         100         1.08   0.00012274  4.41624e-05       71.937 
         100      1.33333  0.000108209  5.09564e-05       71.937 
         100      1.61333  9.27433e-05  5.59115e-05       71.937 
         100         1.92  7.62995e-05  5.84366e-05       71.937 
         100      2.25333  6.12428e-05  5.81112e-05      71.9369 
         100      2.61333  4.87798e-05  5.54843e-05      71.9369 
         100            3  3.88099e-05  5.12269e-05      71.9368 
         150            0           -0           -0      67.9379 
         150     0.013333  8.55787e-05  2.45032e-08      67.9379 
         150     0.053333  9.75696e-05  3.79033e-07      67.9379 
         150         0.12  0.000101804   1.7935e-06      67.9379 
         150     0.213332  8.46649e-05  4.99725e-06      67.9379 
         150     0.333332  5.60508e-05  1.01634e-05      67.9379 
         150         0.48  3.34079e-05  1.69005e-05      67.9379 
         150     0.653331  2.60026e-05  2.47182e-05      67.9379 
         150     0.853332  3.20673e-05  3.31666e-05      67.9379 
         150         1.08  4.22558e-05   4.1594e-05      67.9379 
         150      1.33333  4.88269e-05  4.92265e-05      67.9379 
         150      1.61333  5.28574e-05  5.54538e-05      67.9379 
         150         1.92  5.83986e-05  5.95938e-05      67.9379 
         150      2.25333  6.10712e-05  6.12399e-05      67.9379 
         150      2.61333  6.31074e-05  6.05305e-05      67.9378 
         150            3  6.73074e-05  5.76276e-05      67.9378 
         200            0            0            0      63.9885 
         200     0.013333  5.09633e-05  8.47338e-08      63.9885 
         200     0.053333 -3.78433e-05  1.20208e-06      63.9885 
         200         0.12 -0.000178543  4.94688e-06      63.9885 
         200     0.213332 -0.000328649  1.16379e-05      63.9885 
         200     0.333332 -0.000428833  1.96615e-05      63.9885 
         200         0.48 -0.000460626  2.71213e-05      63.9885 
         200     0.653331 -0.000442855  3.35813e-05      63.9885 
         200     0.853332 -0.000391814  3.98582e-05      63.9885 
         200         1.08 -0.000317363  4.62784e-05      63.9885 
         200      1.33333 -0.000236117  5.20919e-05      63.9885 
         200      1.61333   -0.0001526    5.632e-05      63.9885 
         200         1.92 -5.93726e-05  5.85977e-05      63.9885 
         200      2.25333   2.7024e-05  5.86988e-05      63.9885 
         200      2.61333  9.93678e-05  5.65949e-05      63.9885 
         200            3  0.000155253  5.26954e-05      63.9885 
         250            0           -0           -0      60.0564 
         250     0.013333  6.16017e-05  6.88709e-08      60.0564 
         250     0.053333  4.16908e-06  9.78629e-07      60.0564 
         250         0.12 -9.32403e-05  4.06654e-06      60.0564 
         250     0.213332 -0.000208647  9.82184e-06      60.0564 
         250     0.333332 -0.000301481  1.74042e-05      60.0564 
         250         0.48 -0.000352706  2.56516e-05      60.0564 
         250     0.653331 -0.000367016  3.42275e-05      60.0564 
         250     0.853332 -0.000346906  4.38053e-05      60.0564 
         250         1.08 -0.000289534  5.50402e-05      60.0564 
         250      1.33333 -0.000213035  6.71801e-05      60.0564 
         250      1.61333 -0.000139849  7.82454e-05      60.0564 
         250         1.92 -6.24938e-05  8.69772e-05      60.0564 
         250      2.25333  1.16989e-05  9.27263e-05      60.0564 
         250      2.61333  7.79782e-05  9.50309e-05      60.0564 
         250            3  0.000132733  9.38944e-05      60.0564 
         300            0            0            0      56.1304 
         300     0.013333  7.37713e-05 -4.02957e-08      56.1304 
         300     0.053333  7.73575e-05 -6.17599e-07      56.1304 
         300         0.12   0.00012116  -2.8507e-06      56.1304 
         300     0.213332  0.000200923 -7.70742e-06      56.1304 
         300     0.333332  0.000282799 -1.50942e-05      56.1304 
         300         0.48  0.000333198 -2.39084e-05      56.1304 
         300     0.653331  0.000345282 -3.29998e-05      56.1304 
         300     0.853332  0.000331585 -4.17245e-05      56.1304 
         300         1.08   0.00030614 -4.97197e-05      56.1304 
         300      1.33333  0.000273928 -5.67865e-05      56.1304 
         300      1.61333  0.000233258 -6.27421e-05      56.1304 
         300         1.92  0.000183805 -6.71264e-05      56.1304 
         300      2.25333  0.000132982 -6.94283e-05      56.1304 
         300      2.61333  8.50348e-05 -6.94069e-05      56.1304 
         300            3  4.28433e-05 -6.71288e-05      56.1304 
         350            0           -0           -0      52.2059 
         350     0.013333 -5.50314e-06 -2.98578e-08      52.2059 
         350     0.053333 -0.000206243 -5.83521e-07      52.2059 
         350         0.12  -0.00039921 -3.49721e-06      52.2059 
         350     0.213332 -0.000482452 -1.19028e-05      52.2059 
         350     0.333332 -0.000444443 -2.82939e-05      52.2059 
         350         0.48 -0.000356942 -5.27107e-05      52.2059 
         350     0.653331 -0.000292822 -8.32095e-05      52.2059 
         350     0.853332 -0.000270551 -0.000117137      52.2059 
         350         1.08 -0.000255687 -0.000151357      52.2059 
         350      1.33333 -0.000209983 -0.000182846      52.2059 
         350      1.61333 -0.000140925 -0.000210094      52.2059 
         350         1.92 -7.08938e-05 -0.000231945      52.2059 
         350      2.25333 -2.97539e-06 -0.000246556      52.2059 
         350      2.61333  5.97643e-05 -0.000252837      52.2059 
         350            3  0.000112394 -0.000250402      52.2059 
         400            0           -0           -0      48.2819 
         400     0.013333  5.24638e-05  1.33717e-07      48.2819 
         400     0.053333 -4.84797e-05  1.94698e-06      48.2819 
         400         0.12 -0.000246237  8.37337e-06      48.2819 
         400     0.213332 -0.000501379  2.09837e-05      48.2819 
         400     0.333332 -0.000715706  3.83348e-05      48.2819 
         400         0.48 -0.000825526  5.74716e-05      48.2819 
         400     0.653331 -0.000837588   7.6676e-05      48.2819 
         400     0.853332   -0.0007812  9.63057e-05      48.2819 
         400         1.08 -0.000673001  0.000117197      48.2819 
         400      1.33333 -0.000538017  0.000138617      48.2819 
         400      1.61333  -0.00040588  0.000158202      48.2819 
         400         1.92  -0.00027041  0.000174055      48.2819 
         400      2.25333 -0.000132775  0.000184992      48.2819 
         400      2.61333 -7.33449e-07  0.000190086      48.2819 
         400            3  0.000115163  0.000188909      48.2819 
         450            0            0            0      44.3586 
         450     0.013333  0.000183806 -2.82843e-08      44.3586 
         450     0.053333  0.000462198 -2.44722e-07      44.3586 
         450         0.12  0.000801146  6.23214e-08      44.3586 
         450     0.213332   0.00104909  3.72483e-06      44.3586 
         450     0.333332   0.00113426  1.43114e-05      44.3586 
         450         0.48   0.00110395  3.33428e-05      44.3586 
         450     0.653331   0.00104902  5.94661e-05      44.3586 
         450     0.853332   0.00100959  8.94936e-05      44.3586 
         450         1.08  0.000952622  0.000119355      44.3586 
         450      1.33333  0.000836296  0.000145725      44.3586 
         450      1.61333  0.000679179  0.000167919      44.3586 
         450         1.92  0.000515229  0.000186187      44.3586 
         450      2.25333  0.000347379   0.00019936      44.3586 
         450      2.61333  0.000180409  0.000206394      44.3586 
         450            3  2.80184e-05  0.000206654      44.3586 
         500            0           -0           -0      40.4345 
         500     0.013333  9.13846e-05 -6.35315e-08      40.4345 
         500     0.053333   0.00014166 -8.93447e-07      40.4345 
         500         0.12  0.000236426 -3.61239e-06      40.4345 
         500     0.213332  0.000332805 -8.25541e-06      40.4345 
         500     0.333332  0.000379466 -1.33519e-05      40.4345 
         500         0.48  0.000366237 -1.74276e-05      40.4345 
         500     0.653331  0.000320013 -2.05814e-05      40.4345 
         500     0.853332  0.000258385 -2.43248e-05      40.4345 
         500         1.08  0.000180696 -2.99101e-05      40.4345 
         500      1.33333  0.000106149 -3.65551e-05      40.4345 
         500      1.61333  6.50827e-05 -4.20323e-05      40.4345 
         500         1.92   4.2969e-05 -4.55722e-05      40.4345 
         500      2.25333  2.47308e-05 -4.73572e-05      40.4345 
         500      2.61333  8.80377e-06 -4.74333e-05      40.4345 
         500            3 -1.92519e-06 -4.58305e-05      40.4345 
         550            0            0            0        36.51 
         550     0.013333 -7.04465e-05 -3.21632e-08        36.51 
         550     0.053333 -0.000438628 -6.82639e-07        36.51 
         550         0.12 -0.000825171 -4.41553e-06        36.51 
         550     0.213332   -0.0010352 -1.60196e-05        36.51 
         550     0.333332   -0.0010071 -4.01833e-05        36.51 
         550         0.48 -0.000839649 -7.82074e-05        36.51 
         550     0.653331 -0.000674843 -0.000127669        36.51 
         550     0.853332 -0.000582902 -0.000184545        36.51 
         550         1.08 -0.000539639 -0.000244383        36.51 
         550      1.33333 -0.000478083 -0.000302695        36.51 
         550      1.61333 -0.000372889 -0.000356252        36.51 
         550         1.92 -0.000255388 -0.000403362        36.51 
         550      2.25333 -0.000135726 -0.000441493        36.51 
         550      2.61333 -1.70023e-05 -0.000467859      36.5101 
         550            3  9.42989e-05 -0.000480326      36.5101 
         600            0           -0           -0      32.5864 
         600     0.013333  0.000288588  2.69741e-09      32.5864 
         600     0.053333   0.00082999  3.18923e-07      32.5864 
         600         0.12   0.00145944  3.30402e-06      32.5864 
         600     0.213332   0.00188586  1.47776e-05      32.5864 
         600     0.333332   0.00197849  4.14262e-05      32.5864 
         600         0.48    0.0018354  8.60913e-05      32.5864 
         600     0.653331   0.00164664  0.000146355      32.5864 
         600     0.853332    0.0015216  0.000216878      32.5864 
         600         1.08   0.00143772  0.000291373      32.5864 
         600      1.33333   0.00131002  0.000363803      32.5864 
         600      1.61333   0.00110738  0.000430186      32.5864 
         600         1.92  0.000874958  0.000488887      32.5864 
         600      2.25333  0.000630848  0.000537028      32.5864 
         600      2.61333  0.000381794  0.000571436      32.5864 
         600            3   0.00014019  0.000589419      32.5863 
         650            0            0            0      28.6606 
         650     0.013333  -0.00013935  1.74518e-08      28.6606 
         650     0.053333  -0.00070233 -2.52879e-08      28.6606 
         650         0.12  -0.00136074 -2.01363e-06      28.6606 
         650     0.213332  -0.00183384 -1.13362e-05      28.6606 
         650     0.333332  -0.00198632 -3.44162e-05      28.6606 
         650         0.48  -0.00190618 -7.40216e-05      28.6606 
         650     0.653331  -0.00177561 -0.000127874      28.6606 
         650     0.853332  -0.00169963 -0.000190771      28.6606 
         650         1.08  -0.00164317 -0.000256023      28.6606 
         650      1.33333  -0.00150155 -0.000316824      28.6606 
         650      1.61333  -0.00125058 -0.000369681      28.6606 
         650         1.92 -0.000969347 -0.000414859      28.6606 
         650      2.25333 -0.000679716 -0.000451378      28.6607 
         650      2.61333 -0.000383672 -0.000476835      28.6607 
         650            3 -9.23976e-05 -0.000488943      28.6607 
         700            0           -0           -0      24.7363 
         700     0.013333  0.000182653  6.99543e-08      24.7363 
         700     0.053333  0.000429714  1.20756e-06      24.7363 
         700         0.12  0.000662909  6.46348e-06      24.7363 
         700     0.213332  0.000736901  2.02852e-05      24.7363 
         700     0.333332  0.000646826  4.56268e-05      24.7363 
         700         0.48  0.000508443  8.17503e-05      24.7363 
         700     0.653331  0.000435375  0.000125505      24.7363 
         700     0.853332  0.000460203  0.000173685      24.7363 
         700         1.08  0.000532312  0.000222875      24.7363 
         700      1.33333   0.00055312  0.000268288      24.7363 
         700      1.61333  0.000477632  0.000306225      24.7363 
         700         1.92  0.000376222  0.000336983      24.7363 
         700      2.25333  0.000283049  0.000360468      24.7363 
         700      2.61333  0.000196609  0.000375553      24.7363 
         700            3  0.000111934  0.000380711      24.7363 
         750            0            0            0      20.8106 
         750     0.013333 -2.99527e-05 -1.80679e-07      20.8106 
         750     0.053333 -0.000249386 -2.84077e-06      20.8106 
         750         0.12 -0.000350798  -1.3675e-05      20.8106 
         750     0.213332 -0.000196813  -3.9144e-05      20.8106 
         750     0.333332  0.000144925 -8.21103e-05      20.8106 
         750         0.48  0.000480951 -0.000140086      20.8106 
         750     0.653331  0.000667577 -0.000208224      20.8106 
         750     0.853332  0.000676297 -0.000283002      20.8106 
         750         1.08  0.000557264 -0.000362017      20.8106 
         750      1.33333  0.000413551 -0.000441061      20.8106 
         750      1.61333  0.000336616 -0.000514401      20.8106 
         750         1.92  0.000303069 -0.000578808      20.8106 
         750      2.25333  0.000264025  -0.00063234      20.8106 
         750      2.61333  0.000211824 -0.000672245      20.8106 
         750            3  0.000158321 -0.000695462      20.8106 
         800            0           -0           -0      16.8848 
         800     0.013333  0.000252177  8.83308e-08      16.8848 
         800     0.053333  0.000677683  1.51767e-06      16.8848 
         800         0.12   0.00112082  8.14015e-06      16.8848 
         800     0.213332   0.00134703   2.5871e-05      16.8848 
         800     0.333332   0.00129787   5.9503e-05      16.8848 
         800         0.48   0.00109897  0.000109673      16.8848 
         800     0.653331  0.000919133  0.000173453      16.8848 
         800     0.853332  0.000848788  0.000247062      16.8848 
         800         1.08  0.000874763  0.000326599      16.8848 
         800      1.33333  0.000900358  0.000406652      16.8848 
         800      1.61333  0.000831283  0.000481227      16.8848 
         800         1.92  0.000694792  0.000547398      16.8848 
         800      2.25333  0.000544122  0.000603587      16.8848 
         800      2.61333  0.000394148  0.000647239      16.8848 
         800            3   0.00024259  0.000675249      16.8848 
         850            0           -0           -0      12.9581 
         850     0.013333 -1.39422e-06  4.64722e-08      12.9581 
         850     0.053333 -0.000221089   6.0254e-07      12.9581 
         850         0.12 -0.000512655  2.10224e-06      12.9581 
         850     0.213332 -0.000783985  3.71196e-06      12.9581 
         850     0.333332 -0.000959208  3.47768e-06      12.9581 
         850         0.48  -0.00103045 -1.72043e-07      12.9581 
         850     0.653331  -0.00104359 -7.40962e-06      12.9581 
         850     0.853332  -0.00104363 -1.71665e-05      12.9581 
         850         1.08  -0.00103288 -2.74194e-05      12.9581 
         850      1.33333 -0.000971714 -3.54332e-05      12.9581 
         850      1.61333 -0.000837224 -3.93853e-05      12.9581 
         850         1.92 -0.000671965  -4.0251e-05      12.9581 
         850      2.25333 -0.000506202 -3.95541e-05      12.9581 
         850      2.61333 -0.000341078 -3.78133e-05      12.9581 
         850            3 -0.000170887 -3.49603e-05      12.9581 
         900            0           -0           -0      9.03208 
         900     0.013333  7.53472e-05   5.8035e-09      9.03208 
         900     0.053333  6.58351e-05   1.0052e-07      9.03208 
         900         0.12  5.00841e-05  5.40766e-07      9.03208 
         900     0.213332  1.86897e-05  1.69352e-06      9.03208 
         900     0.333332 -2.35938e-05  3.75093e-06      9.03208 
         900         0.48 -6.13355e-05  6.50536e-06      9.03208 
         900     0.653331  -8.1627e-05  9.51453e-06      9.03208 
         900     0.853332 -8.26211e-05  1.24067e-05      9.03208 
         900         1.08 -7.18218e-05  1.49101e-05      9.03208 
         900      1.33333 -6.27759e-05  1.65701e-05      9.03208 
         900      1.61333 -6.28597e-05  1.70693e-05      9.03208 
         900         1.92 -5.95376e-05   1.6717e-05      9.03208 
         900      2.25333 -4.67239e-05   1.6356e-05      9.03208 
         900      2.61333 -2.78046e-05  1.58162e-05      9.03208 
         900            3   -7.188e-06  1.47934e-05      9.03208 
         950            0           -0           -0      5.10531 
         950     0.013333  7.34711e-05  6.92718e-09      5.10531 
         950     0.053333   5.8536e-05  1.05455e-07      5.10531 
         950         0.12  3.50354e-05  5.16925e-07      5.10531 
         950     0.213332 -5.75409e-06  1.55833e-06      5.10531 
         950     0.333332 -6.07541e-05  3.50174e-06      5.10531 
         950         0.48 -0.000115803  6.33472e-06      5.10531 
         950     0.653331 -0.000156583  9.62825e-06      5.10531 
         950     0.853332 -0.000181307  1.27307e-05      5.10531 
         950         1.08  -0.00019719  1.52555e-05      5.10531 
         950      1.33333 -0.000203412  1.74426e-05      5.10531 
         950      1.61333 -0.000189546  1.99829e-05      5.10531 
         950         1.92 -0.000158053  2.31066e-05      5.10531 
         950      2.25333 -0.000120434  2.61999e-05      5.10531 
         950      2.61333 -8.11132e-05  2.89778e-05      5.10531 
         950            3 -3.90931e-05  3.12576e-05      5.10532 
        1000            0           -0           -0       1.1777 
        1000     0.013333  4.65747e-05  1.05013e-07       1.1777 
        1000     0.053333 -7.19137e-05  1.54185e-06       1.1777 
        1000         0.12 -0.000306359  6.74108e-06       1.1777 
        1000     0.213332 -0.000635894   1.7212e-05       1.1777 
        1000     0.333332 -0.000958116  3.18199e-05       1.1777 
        1000         0.48  -0.00116359  4.74186e-05       1.1777 
        1000     0.653331  -0.00121629  6.13277e-05       1.1777 
        1000     0.853332  -0.00115232  7.29847e-05       1.1777 
        1000         1.08    -0.001022  8.33701e-05       1.1777 
        1000      1.33333 -0.000864458  9.29985e-05       1.1777 
        1000      1.61333   -0.0007131  0.000101033       1.1777 
        1000         1.92   -0.0005751  0.000106558      1.17771 
        1000      2.25333 -0.000429628  0.000109469      1.17771 
        1000      2.61333  -0.00027028  0.000109714      1.17772 
        1000            3 -0.000104881  0.000107012      1.17773 
