Variables = x, y, u, v, p

Zone, I=416, F=POINT
         -50            0            0            0      70.2679 
         -50     0.013333   8.4067e-05  4.76044e-08      70.2679 
         -50     0.053333  7.14941e-05  2.89265e-07      70.2679 
         -50         0.12   5.9959e-05  1.05369e-06      70.2679 
         -50     0.213332  4.15134e-05  2.48832e-06      70.2679 
         -50     0.333332   2.3478e-05  4.66834e-06      70.2678 
         -50         0.48   1.1153e-05  7.64662e-06      70.2677 
         -50     0.653331  8.48536e-06  1.00391e-05      70.2674 
         -50     0.853332  1.55174e-05  1.32542e-05      70.2671 
         -50         1.08  2.83834e-05  1.66562e-05      70.2666 
         -50      1.33333  4.37994e-05  1.92424e-05      70.2659 
         -50      1.61333  6.08066e-05  2.11557e-05      70.2649 
         -50         1.92  8.36338e-05  2.21415e-05      70.2637 
         -50      2.25333  0.000106631  2.41834e-05      70.2621 
         -50      2.61333  0.000118542  2.38118e-05      70.2601 
         -50            3  0.000114408  1.61959e-05      70.2576 
         -25            0  7.49214e-20  7.52887e-24      67.4601 
         -25     0.013333  6.18879e-05  1.46474e-08      67.4601 
         -25     0.053333  5.59707e-05  5.58535e-08      67.4601 
         -25         0.12  5.63227e-05  1.72401e-07      67.4601 
         -25     0.213332  5.53724e-05   3.9253e-07      67.4601 
         -25     0.333332  5.37657e-05  7.16868e-07      67.4601 
         -25         0.48  5.19129e-05  1.16074e-06        67.46 
         -25     0.653331  5.08162e-05  1.77494e-06        67.46 
         -25     0.853332  5.04035e-05  2.35141e-06      67.4598 
         -25         1.08  4.99856e-05  2.87683e-06      67.4596 
         -25      1.33333  4.98939e-05  3.43919e-06      67.4594 
         -25      1.61333  5.09807e-05  3.97258e-06       67.459 
         -25         1.92  5.82419e-05  4.33191e-06      67.4585 
         -25      2.25333  6.18379e-05  4.61804e-06      67.4579 
         -25      2.61333  5.96262e-05  4.70764e-06      67.4572 
         -25            3  5.72303e-05  3.86644e-06      67.4562 
           0            0  1.70719e-19 -2.05005e-19      65.1533 
           0     0.013333   0.00015212 -0.000100082      65.1555 
           0     0.053333  0.000126797 -5.09129e-05      65.1597 
           0         0.12  0.000140537 -3.66362e-05      65.1645 
           0     0.213332  0.000152221 -3.00306e-05      65.1696 
           0     0.333332  0.000156241 -2.62322e-05      65.1748 
           0         0.48  0.000154496 -2.28806e-05      65.1801 
           0     0.653331   0.00015042 -1.98499e-05      65.1853 
           0     0.853332  0.000141346 -1.71844e-05      65.1903 
           0         1.08  0.000125841 -1.48602e-05      65.1953 
           0      1.33333  0.000106679 -1.27707e-05         65.2 
           0      1.61333  8.45928e-05 -1.08602e-05      65.2045 
           0         1.92  5.79935e-05 -9.27258e-06      65.2088 
           0      2.25333  3.35636e-05 -7.81469e-06      65.2128 
           0      2.61333  2.11053e-05 -5.54701e-06      65.2165 
           0            3  2.08219e-05 -2.90974e-06        65.22 
          20            0           -0           -0      63.7634 
          20     0.013333   6.2281e-05 -5.04868e-08      63.7634 
          20     0.053333  0.000101444 -9.03567e-07      63.7634 
          20         0.12  0.000174994 -3.71832e-06      63.7634 
          20     0.213332  0.000244986  -8.8154e-06      63.7634 
          20     0.333332  0.000280004 -1.57537e-05      63.7633 
          20         0.48  0.000286925 -2.36222e-05      63.7633 
          20     0.653331  0.000297163 -3.02663e-05      63.7632 
          20     0.853332  0.000290557 -3.54975e-05       63.763 
          20         1.08  0.000245603 -4.09978e-05      63.7627 
          20      1.33333  0.000185591 -4.60855e-05      63.7624 
          20      1.61333  0.000122859 -4.96032e-05      63.7619 
          20         1.92   6.4282e-05  -5.0877e-05      63.7613 
          20      2.25333  1.90145e-05 -4.96923e-05      63.7606 
          20      2.61333 -6.34221e-06 -4.62185e-05      63.7597 
          20            3 -1.25304e-05 -4.11531e-05      63.7586 
          40            0           -0           -0      62.2924 
          40     0.013333  6.97647e-05 -2.38142e-08      62.2924 
          40     0.053333  0.000129644 -2.87058e-07      62.2924 
          40         0.12  0.000199942 -6.59091e-07      62.2924 
          40     0.213332  0.000234725  3.23884e-08      62.2924 
          40     0.333332  0.000227354  3.08864e-06      62.2924 
          40         0.48  0.000204691  8.54224e-06      62.2924 
          40     0.653331  0.000186144  1.50971e-05      62.2924 
          40     0.853332  0.000165627  2.10957e-05      62.2924 
          40         1.08  0.000135882  2.59291e-05      62.2923 
          40      1.33333  0.000100254  2.97085e-05      62.2923 
          40      1.61333  6.53075e-05  3.25764e-05      62.2922 
          40         1.92  3.24669e-05  3.38238e-05      62.2921 
          40      2.25333   1.2774e-05   3.3627e-05      62.2919 
          40      2.61333  7.56442e-07  3.14758e-05      62.2918 
          40            3 -1.28917e-05  2.69931e-05      62.2916 
          60            0           -0           -0      60.9074 
          60     0.013333  8.40613e-05  3.85558e-10      60.9074 
          60     0.053333  0.000179313  1.11149e-07      60.9074 
          60         0.12  0.000277625  1.24298e-06      60.9074 
          60     0.213332  0.000319867  5.32247e-06      60.9074 
          60     0.333332  0.000307768  1.38141e-05      60.9074 
          60         0.48  0.000284011  2.64397e-05      60.9074 
          60     0.653331  0.000276118  4.14646e-05      60.9074 
          60     0.853332  0.000266965  5.61229e-05      60.9074 
          60         1.08   0.00022835  6.80049e-05      60.9074 
          60      1.33333  0.000172718  7.65748e-05      60.9073 
          60      1.61333  0.000117227  8.24112e-05      60.9073 
          60         1.92  6.11539e-05  8.46828e-05      60.9072 
          60      2.25333  1.61019e-05  8.27714e-05      60.9071 
          60      2.61333 -1.27199e-05  7.79714e-05       60.907 
          60            3 -2.62524e-05  7.17353e-05      60.9069 
          80            0           -0           -0      59.5666 
          80     0.013333  8.01963e-05   1.5999e-08      59.5666 
          80     0.053333  0.000165659  3.28679e-07      59.5666 
          80         0.12  0.000247737    2.067e-06      59.5666 
          80     0.213332  0.000274637  7.05097e-06      59.5666 
          80     0.333332  0.000253306  1.64062e-05      59.5666 
          80         0.48  0.000224639  2.97732e-05      59.5666 
          80     0.653331     0.000215  4.57458e-05      59.5666 
          80     0.853332  0.000208876  6.18733e-05      59.5666 
          80         1.08  0.000175404  7.54841e-05      59.5666 
          80      1.33333  0.000128021  8.57614e-05      59.5666 
          80      1.61333  8.75269e-05  9.32356e-05      59.5665 
          80         1.92  4.86237e-05  9.65536e-05      59.5665 
          80      2.25333  1.79107e-05  9.54884e-05      59.5664 
          80      2.61333 -2.20919e-06  9.06347e-05      59.5664 
          80            3 -1.55371e-05   8.2691e-05      59.5663 
         100            0  5.60383e-20  3.68369e-25      58.2532 
         100     0.013333  5.76676e-05  9.78227e-10      58.2532 
         100     0.053333  9.53274e-05  3.67638e-08      58.2532 
         100         0.12  0.000145006   3.2503e-07      58.2532 
         100     0.213332  0.000184983   1.2604e-06      58.2532 
         100     0.333332   0.00021095  3.14264e-06      58.2532 
         100         0.48  0.000228146  6.09752e-06      58.2532 
         100     0.653331  0.000242008  1.00599e-05      58.2532 
         100     0.853332  0.000245338  1.42845e-05      58.2532 
         100         1.08  0.000222108  1.74262e-05      58.2532 
         100      1.33333  0.000181237  1.90225e-05      58.2532 
         100      1.61333  0.000139355  1.97269e-05      58.2532 
         100         1.92  9.39677e-05  1.94281e-05      58.2532 
         100      2.25333  5.27239e-05  1.79813e-05      58.2531 
         100      2.61333  2.10496e-05  1.60567e-05      58.2531 
         100            3  1.04374e-06   1.3966e-05       58.253 
         150            0           -0           -0      55.0332 
         150     0.013333  2.38517e-05 -7.45255e-08      55.0332 
         150     0.053333  -3.1586e-06 -1.13188e-06      55.0332 
         150         0.12   1.5922e-05 -5.13774e-06      55.0332 
         150     0.213332  8.47193e-05 -1.36606e-05      55.0332 
         150     0.333332  0.000163159 -2.65488e-05      55.0332 
         150         0.48  0.000209977 -4.24388e-05      55.0332 
         150     0.653331  0.000213461 -6.02147e-05      55.0332 
         150     0.853332  0.000182841  -7.9181e-05      55.0332 
         150         1.08  0.000141469 -9.79769e-05      55.0332 
         150      1.33333  0.000110257  -0.00011468      55.0332 
         150      1.61333  8.51226e-05 -0.000127827      55.0332 
         150         1.92  5.55851e-05 -0.000136095      55.0332 
         150      2.25333  3.03519e-05 -0.000138634      55.0331 
         150      2.61333  1.21404e-05 -0.000135616      55.0331 
         150            3  1.25245e-06 -0.000128002      55.0331 
         200            0            0            0      51.8522 
         200     0.013333  8.93554e-05 -5.92073e-08      51.8522 
         200     0.053333  0.000221555 -7.55087e-07      51.8522 
         200         0.12   0.00039807 -2.54555e-06      51.8522 
         200     0.213332   0.00053718 -4.23822e-06      51.8522 
         200     0.333332  0.000593315 -3.56249e-06      51.8522 
         200         0.48  0.000585813  6.76663e-07      51.8522 
         200     0.653331  0.000555106  7.62031e-06      51.8522 
         200     0.853332   0.00050846  1.49763e-05      51.8522 
         200         1.08  0.000431289  2.07862e-05      51.8522 
         200      1.33333  0.000335672  2.48878e-05      51.8522 
         200      1.61333  0.000240014  2.83354e-05      51.8522 
         200         1.92  0.000139046  3.08875e-05      51.8522 
         200      2.25333  4.67565e-05  3.20996e-05      51.8522 
         200      2.61333 -2.85082e-05  3.22111e-05      51.8522 
         200            3   -8.351e-05  3.11921e-05      51.8522 
         250            0           -0           -0      48.6833 
         250     0.013333  3.89096e-05 -5.74595e-08      48.6833 
         250     0.053333  4.88684e-05 -8.62717e-07      48.6833 
         250         0.12  0.000108572 -3.89315e-06      48.6833 
         250     0.213332  0.000213276   -1.037e-05      48.6833 
         250     0.333332  0.000325719 -2.02564e-05      48.6833 
         250         0.48  0.000406536 -3.23831e-05      48.6833 
         250     0.653331  0.000443286 -4.55299e-05      48.6833 
         250     0.853332  0.000440804 -5.91893e-05      48.6833 
         250         1.08  0.000404248 -7.33196e-05      48.6833 
         250      1.33333  0.000343639 -8.75314e-05      48.6833 
         250      1.61333   0.00027422 -0.000100516      48.6833 
         250         1.92  0.000196664 -0.000110737      48.6833 
         250      2.25333  0.000120826 -0.000117348      48.6833 
         250      2.61333   5.1279e-05 -0.000119734      48.6833 
         250            3 -7.79387e-06  -0.00011781      48.6833 
         300            0            0            0      45.5169 
         300     0.013333  -3.4663e-06 -3.65083e-09      45.5169 
         300     0.053333 -0.000117386 -1.25627e-07      45.5169 
         300         0.12 -0.000238992 -1.00644e-06      45.5169 
         300     0.213332 -0.000319256 -3.95236e-06      45.5169 
         300     0.333332 -0.000343338 -1.01401e-05      45.5169 
         300         0.48 -0.000336467 -1.98133e-05      45.5169 
         300     0.653331 -0.000329301 -3.23897e-05      45.5169 
         300     0.853332 -0.000329624 -4.67109e-05      45.5169 
         300         1.08 -0.000316032 -6.09039e-05      45.5169 
         300      1.33333 -0.000268307 -7.30956e-05      45.5169 
         300      1.61333 -0.000199878 -8.28187e-05      45.5169 
         300         1.92 -0.000126516 -8.98353e-05      45.5169 
         300      2.25333 -5.29885e-05 -9.36498e-05      45.5169 
         300      2.61333  1.57152e-05 -9.40269e-05      45.5169 
         300            3  7.33658e-05 -9.09867e-05       45.517 
         350            0           -0           -0      42.3501 
         350     0.013333  4.15748e-05  9.62786e-09      42.3501 
         350     0.053333  3.85015e-05  1.48293e-07      42.3501 
         350         0.12  3.39455e-05  6.86456e-07      42.3501 
         350     0.213332  2.29453e-05  1.85409e-06      42.3501 
         350     0.333332  1.27356e-05  3.61428e-06      42.3501 
         350         0.48  1.00852e-05  5.69548e-06      42.3501 
         350     0.653331  1.57218e-05  7.83338e-06      42.3501 
         350     0.853332  2.47423e-05  9.83854e-06      42.3501 
         350         1.08  3.09222e-05  1.15201e-05      42.3501 
         350      1.33333  3.31321e-05  1.28368e-05      42.3501 
         350      1.61333   3.4635e-05  1.38759e-05      42.3501 
         350         1.92  3.61348e-05  1.45988e-05      42.3501 
         350      2.25333  3.70535e-05    1.489e-05      42.3501 
         350      2.61333  3.74346e-05  1.46768e-05      42.3501 
         350            3  3.72247e-05  1.39658e-05      42.3501 
         400            0           -0           -0      39.1812 
         400     0.013333   8.7963e-05  8.86442e-08      39.1812 
         400     0.053333  0.000177385  1.41679e-06      39.1812 
         400         0.12  0.000211335   6.9298e-06      39.1812 
         400     0.213332  0.000124052  2.00089e-05      39.1812 
         400     0.333332 -4.01858e-05  4.19729e-05      39.1812 
         400         0.48 -0.000184902  7.11764e-05      39.1812 
         400     0.653331 -0.000251251  0.000104793      39.1812 
         400     0.853332 -0.000243154  0.000140488      39.1812 
         400         1.08 -0.000202286  0.000176048      39.1812 
         400      1.33333 -0.000168989  0.000209116      39.1812 
         400      1.61333 -0.000144834  0.000238118      39.1812 
         400         1.92 -0.000111566  0.000261716      39.1812 
         400      2.25333   -7.333e-05  0.000278038      39.1812 
         400      2.61333 -3.36093e-05  0.000285634      39.1812 
         400            3  5.99001e-06  0.000283875      39.1812 
         450            0            0            0      36.0108 
         450     0.013333  9.91703e-05 -1.22602e-07      36.0108 
         450     0.053333  0.000279196  -1.7113e-06      36.0108 
         450         0.12  0.000569871 -6.88688e-06      36.0108 
         450     0.213332  0.000877851 -1.58306e-05      36.0108 
         450     0.333332   0.00109898 -2.61269e-05      36.0108 
         450         0.48   0.00120024 -3.50717e-05      36.0108 
         450     0.653331   0.00121803 -4.20532e-05      36.0108 
         450     0.853332   0.00118197 -4.88617e-05      36.0108 
         450         1.08   0.00107853 -5.83148e-05      36.0108 
         450      1.33333  0.000908521 -7.12287e-05      36.0108 
         450      1.61333  0.000722648 -8.51704e-05      36.0108 
         450         1.92  0.000538903 -9.73711e-05      36.0108 
         450      2.25333    0.0003518 -0.000107194      36.0108 
         450      2.61333  0.000165382 -0.000113904      36.0108 
         450            3 -5.43232e-06 -0.000116877      36.0107 
         500            0           -0           -0      32.8376 
         500     0.013333  8.06335e-05  7.44277e-09      32.8376 
         500     0.053333  0.000174824  1.82898e-07      32.8376 
         500         0.12  0.000270479   1.3242e-06      32.8376 
         500     0.213332  0.000296866  5.19865e-06      32.8376 
         500     0.333332  0.000234355  1.37398e-05      32.8376 
         500         0.48  0.000124007   2.7524e-05      32.8376 
         500     0.653331  2.25551e-05  4.52993e-05      32.8376 
         500     0.853332 -4.61913e-05  6.50361e-05      32.8376 
         500         1.08 -8.81243e-05   8.5212e-05      32.8376 
         500      1.33333 -0.000106906  0.000105447      32.8376 
         500      1.61333 -0.000102495  0.000125661      32.8376 
         500         1.92 -8.85365e-05  0.000144645      32.8376 
         500      2.25333 -7.17857e-05  0.000160747      32.8376 
         500      2.61333  -5.2386e-05  0.000172655      32.8376 
         500            3 -3.04187e-05  0.000179452      32.8376 
         550            0            0            0      29.6621 
         550     0.013333 -0.000135105 -9.25873e-08      29.6621 
         550     0.053333 -0.000559028 -1.63234e-06      29.6621 
         550         0.12 -0.000963756 -8.97897e-06      29.6621 
         550     0.213332  -0.00111714 -2.90258e-05      29.6621 
         550     0.333332 -0.000983447 -6.72791e-05      29.6621 
         550         0.48 -0.000723048 -0.000124037      29.6621 
         550     0.653331 -0.000517113 -0.000195121      29.6621 
         550     0.853332 -0.000434756 -0.000275124      29.6621 
         550         1.08 -0.000426678 -0.000358496      29.6621 
         550      1.33333 -0.000397822 -0.000439461      29.6621 
         550      1.61333  -0.00031322 -0.000513698      29.6621 
         550         1.92 -0.000214564 -0.000578595      29.6621 
         550      2.25333  -0.00011567 -0.000630492      29.6622 
         550      2.61333 -1.85479e-05 -0.000665596      29.6622 
         550            3  7.23668e-05  -0.00068098      29.6622 
         600            0           -0           -0      26.4848 
         600     0.013333  0.000252665  1.46678e-07      26.4848 
         600     0.053333  0.000750163  2.46038e-06      26.4848 
         600         0.12   0.00122084  1.28216e-05      26.4848 
         600     0.213332   0.00138243  3.96323e-05      26.4848 
         600     0.333332   0.00120802  8.89361e-05      26.4848 
         600         0.48  0.000894133  0.000160564      26.4848 
         600     0.653331  0.000653505  0.000249723      26.4848 
         600     0.853332  0.000572714  0.000350879      26.4849 
         600         1.08  0.000604699  0.000458339      26.4849 
         600      1.33333  0.000622946  0.000564733      26.4849 
         600      1.61333  0.000546548  0.000662941      26.4848 
         600         1.92  0.000427344  0.000748743      26.4848 
         600      2.25333  0.000301837  0.000818424      26.4848 
         600      2.61333  0.000177378  0.000867158      26.4848 
         600            3    5.708e-05  0.000890815      26.4848 
         650            0            0            0      23.3036 
         650     0.013333  -0.00016664 -4.80971e-08      23.3036 
         650     0.053333 -0.000691696 -9.57784e-07      23.3036 
         650         0.12  -0.00126978 -5.89977e-06      23.3036 
         650     0.213332  -0.00163847 -2.07825e-05      23.3036 
         650     0.333332  -0.00169831   -5.136e-05      23.3036 
         650         0.48  -0.00155573 -9.95128e-05      23.3036 
         650     0.653331  -0.00138685 -0.000162923      23.3036 
         650     0.853332   -0.0012955 -0.000237378      23.3036 
         650         1.08  -0.00126773 -0.000317773      23.3036 
         650      1.33333  -0.00120735 -0.000397739      23.3036 
         650      1.61333  -0.00104812 -0.000471491      23.3036 
         650         1.92 -0.000833455 -0.000536279      23.3036 
         650      2.25333 -0.000602069 -0.000589744      23.3036 
         650      2.61333  -0.00036551 -0.000628717      23.3036 
         650            3 -0.000130775 -0.000650132      23.3037 
         700            0           -0           -0      20.1206 
         700     0.013333  0.000134414 -7.13767e-08      20.1206 
         700     0.053333  0.000396169  -9.5441e-07      20.1206 
         700         0.12  0.000768176 -3.54583e-06      20.1206 
         700     0.213332   0.00112698 -7.08906e-06      20.1206 
         700     0.333332   0.00136681 -9.05255e-06      20.1206 
         700         0.48   0.00146546 -7.01722e-06      20.1207 
         700     0.653331   0.00147527 -3.40076e-07      20.1207 
         700     0.853332   0.00145194  9.73303e-06      20.1207 
         700         1.08   0.00140124  2.06525e-05      20.1207 
         700      1.33333   0.00128956  2.95069e-05      20.1207 
         700      1.61333    0.0011094  3.48401e-05      20.1207 
         700         1.92  0.000903389   3.7889e-05      20.1206 
         700      2.25333  0.000687947  3.93394e-05      20.1206 
         700      2.61333  0.000464942  3.94694e-05      20.1206 
         700            3  0.000240535  3.82143e-05      20.1206 
         750            0            0            0      16.9328 
         750     0.013333  4.54341e-05  6.55896e-08      16.9328 
         750     0.053333  3.51078e-05  9.78613e-07      16.9328 
         750         0.12 -1.85323e-05  4.37965e-06      16.9328 
         750     0.213332 -0.000123518  1.15752e-05      16.9328 
         750     0.333332  -0.00023845  2.24968e-05      16.9328 
         750         0.48 -0.000317234  3.59391e-05      16.9328 
         750     0.653331 -0.000344024  5.07849e-05      16.9328 
         750     0.853332 -0.000327189  6.67783e-05      16.9328 
         750         1.08 -0.000278803  8.41016e-05      16.9328 
         750      1.33333 -0.000214092  0.000102469      16.9328 
         750      1.61333 -0.000153109   0.00012075      16.9328 
         750         1.92 -0.000104581  0.000137575      16.9328 
         750      2.25333 -6.08218e-05  0.000152025      16.9328 
         750      2.61333 -1.70946e-05  0.000163179      16.9328 
         750            3  2.58107e-05  0.000170275      16.9328 
         800            0           -0           -0      13.7427 
         800     0.013333  5.19319e-05    -1.19e-07      13.7427 
         800     0.053333  0.000116532 -1.78328e-06      13.7427 
         800         0.12  0.000297759 -8.01182e-06      13.7427 
         800     0.213332  0.000576011 -2.11473e-05      13.7427 
         800     0.333332  0.000849029 -4.06693e-05      13.7427 
         800         0.48   0.00101247 -6.35726e-05      13.7427 
         800     0.653331   0.00104017 -8.70647e-05      13.7427 
         800     0.853332  0.000967354 -0.000110388      13.7427 
         800         1.08  0.000838205 -0.000133913      13.7427 
         800      1.33333  0.000698055 -0.000156967      13.7427 
         800      1.61333  0.000585702 -0.000177609      13.7427 
         800         1.92  0.000491167  -0.00019483      13.7427 
         800      2.25333  0.000389529  -0.00020811      13.7427 
         800      2.61333  0.000276037 -0.000217006      13.7427 
         800            3  0.000160537   -0.0002208      13.7427 
         850            0           -0           -0      10.5502 
         850     0.013333  0.000170117  1.83622e-07      10.5502 
         850     0.053333  0.000441906  2.90245e-06      10.5502 
         850         0.12  0.000613909  1.41032e-05      10.5502 
         850     0.213332  0.000500573  4.09072e-05      10.5502 
         850     0.333332  0.000143117   8.7177e-05      10.5502 
         850         0.48 -0.000255827   0.00015116      10.5502 
         850     0.653331 -0.000518035  0.000227914      10.5502 
         850     0.853332 -0.000586542  0.000313228      10.5502 
         850         1.08 -0.000500158   0.00040426      10.5502 
         850      1.33333 -0.000360368  0.000496895      10.5502 
         850      1.61333 -0.000270267  0.000585293      10.5502 
         850         1.92  -0.00023169  0.000665545      10.5502 
         850      2.25333 -0.000195269  0.000734904      10.5502 
         850      2.61333 -0.000146078  0.000790292      10.5502 
         850            3 -9.28397e-05  0.000828008      10.5502 
         900            0           -0           -0      7.35561 
         900     0.013333 -0.000124295  6.61523e-08      7.35561 
         900     0.053333 -0.000580981  8.22072e-07      7.35561 
         900         0.12  -0.00118428  2.57433e-06      7.35561 
         900     0.213332   -0.0017345  3.24381e-06      7.35561 
         900     0.333332  -0.00207173 -1.27763e-06      7.35561 
         900         0.48     -0.00218 -1.43235e-05      7.35561 
         900     0.653331  -0.00215889 -3.64406e-05      7.35561 
         900     0.853332  -0.00211315 -6.56835e-05      7.35561 
         900         1.08  -0.00206775 -9.83668e-05      7.35561 
         900      1.33333  -0.00196109  -0.00012956      7.35561 
         900      1.61333   -0.0017383  -0.00015532      7.35561 
         900         1.92  -0.00144792 -0.000175711      7.35561 
         900      2.25333  -0.00114169 -0.000192385      7.35562 
         900      2.61333 -0.000828592 -0.000205189      7.35563 
         900            3 -0.000502993 -0.000213027      7.35565 
         950            0           -0           -0      4.15933 
         950     0.013333 -3.01241e-05 -1.16009e-08      4.15933 
         950     0.053333 -0.000218563 -2.09855e-07      4.15933 
         950         0.12 -0.000442916 -1.24746e-06      4.15933 
         950     0.213332 -0.000621711 -4.45348e-06      4.15933 
         950     0.333332  -0.00070016 -1.15294e-05      4.15933 
         950         0.48 -0.000681828 -2.37353e-05      4.15933 
         950     0.653331 -0.000611824 -4.12358e-05      4.15933 
         950     0.853332 -0.000536698 -6.32523e-05      4.15933 
         950         1.08 -0.000480819 -8.88126e-05      4.15933 
         950      1.33333 -0.000449642 -0.000117195      4.15933 
         950      1.61333 -0.000430575 -0.000147443      4.15933 
         950         1.92 -0.000391148 -0.000177422      4.15933 
         950      2.25333 -0.000327556 -0.000205125      4.15933 
         950      2.61333 -0.000249473 -0.000228995      4.15934 
         950            3 -0.000165032 -0.000247901      4.15934 
        1000            0           -0           -0     0.960096 
        1000     0.013333  -3.0509e-05 -1.01425e-07     0.960096 
        1000     0.053333  -0.00019057 -1.60576e-06     0.960095 
        1000         0.12 -0.000299646 -7.73948e-06     0.960095 
        1000     0.213332 -0.000258364 -2.22728e-05     0.960095 
        1000     0.333332 -7.42345e-05 -4.71832e-05     0.960095 
        1000         0.48  0.000147314 -8.14277e-05     0.960095 
        1000     0.653331  0.000297849 -0.000122193     0.960095 
        1000     0.853332  0.000334405  -0.00016701     0.960095 
        1000         1.08  0.000278215 -0.000214273     0.960096 
        1000      1.33333  0.000189125 -0.000262008     0.960096 
        1000      1.61333  0.000127881 -0.000307558     0.960096 
        1000         1.92  9.94817e-05  -0.00034919     0.960096 
        1000      2.25333  7.62297e-05   -0.0003857     0.960096 
        1000      2.61333  4.81893e-05 -0.000415706     0.960096 
        1000            3  1.95162e-05 -0.000437423     0.960095 
