Variables = x, y, u, v, p

Zone, I=416, F=POINT
         -50            0            0            0      19.9559 
         -50     0.013333 -5.31339e-05 -1.09602e-08      19.9559 
         -50     0.053333 -5.45022e-05 -8.27747e-08      19.9559 
         -50         0.12 -5.73137e-05 -3.26005e-07      19.9559 
         -50     0.213332 -5.67736e-05 -9.71557e-07      19.9559 
         -50     0.333332 -5.23377e-05 -2.05212e-06      19.9558 
         -50         0.48 -4.81336e-05  -3.3289e-06      19.9558 
         -50     0.653331 -4.65117e-05 -5.25694e-06      19.9557 
         -50     0.853332  -4.5863e-05 -7.79327e-06      19.9556 
         -50         1.08 -4.40636e-05 -9.46474e-06      19.9555 
         -50      1.33333 -4.09741e-05 -1.14108e-05      19.9553 
         -50      1.61333 -3.84786e-05 -1.25967e-05      19.9551 
         -50         1.92 -3.60628e-05 -1.38112e-05      19.9547 
         -50      2.25333 -3.20821e-05 -1.37931e-05      19.9543 
         -50      2.61333 -2.95257e-05 -1.43517e-05      19.9537 
         -50            3 -3.01559e-05  -1.6411e-05       19.953 
         -25            0           -0           -0      19.1691 
         -25     0.013333 -3.48718e-05 -9.25755e-09      19.1691 
         -25     0.053333 -2.41857e-05 -1.19259e-07      19.1691 
         -25         0.12 -1.06046e-05 -4.62634e-07      19.1691 
         -25     0.213332  2.73768e-06 -1.06364e-06      19.1691 
         -25     0.333332  1.27316e-05 -1.78969e-06      19.1691 
         -25         0.48   1.8623e-05   -2.426e-06      19.1691 
         -25     0.653331  2.09753e-05  -2.9752e-06      19.1691 
         -25     0.853332  1.88635e-05  -3.5601e-06       19.169 
         -25         1.08  1.26234e-05 -4.16944e-06       19.169 
         -25      1.33333    4.146e-06 -4.74594e-06      19.1689 
         -25      1.61333 -6.14613e-06 -5.18067e-06      19.1688 
         -25         1.92 -1.44033e-05   -5.024e-06      19.1687 
         -25      2.25333  -2.0348e-05 -5.28652e-06      19.1685 
         -25      2.61333 -2.73147e-05 -6.25227e-06      19.1683 
         -25            3 -3.51478e-05 -7.13849e-06      19.1681 
           0            0 -8.82808e-20  1.94552e-19      18.5204 
           0     0.013333 -0.000134659  6.60224e-05      18.5213 
           0     0.053333  -4.6112e-05  3.64495e-05      18.5225 
           0         0.12  -1.1381e-05  1.97884e-05      18.5239 
           0     0.213332  5.78922e-06  1.47527e-05      18.5253 
           0     0.333332   1.1748e-05  1.12534e-05      18.5267 
           0         0.48  1.25421e-05  8.80671e-06      18.5282 
           0     0.653331   1.0972e-05  7.03386e-06      18.5296 
           0     0.853332  6.46302e-06   5.5629e-06       18.531 
           0         1.08 -1.50652e-07  4.27118e-06      18.5323 
           0      1.33333  -5.9242e-06  3.15423e-06      18.5336 
           0      1.61333 -9.75099e-06  2.18379e-06      18.5348 
           0         1.92 -1.34375e-05  1.24353e-06       18.536 
           0      2.25333 -1.56033e-05  6.57761e-07      18.5371 
           0      2.61333 -1.22203e-05  7.34634e-07      18.5381 
           0            3 -9.49159e-06  1.32543e-07       18.539 
          20            0  5.41544e-05 -2.65502e-05        18.13 
          20     0.013333  6.04363e-05 -2.70421e-05        18.13 
          20     0.053333  7.98309e-05 -2.85823e-05        18.13 
          20         0.12  0.000113448 -3.13963e-05        18.13 
          20     0.213332  0.000160803 -3.59568e-05        18.13 
          20     0.333332    0.0002158 -4.30014e-05        18.13 
          20         0.48  0.000259958  -5.3357e-05      18.1299 
          20     0.653331  0.000276324 -6.69766e-05      18.1299 
          20     0.853332  0.000261369 -8.25965e-05      18.1299 
          20         1.08  0.000226433 -9.78992e-05      18.1299 
          20      1.33333   0.00018394 -0.000110654      18.1298 
          20      1.61333  0.000135452 -0.000119375      18.1298 
          20         1.92  8.69638e-05 -0.000122947      18.1298 
          20      2.25333  4.57252e-05   -0.0001215      18.1297 
          20      2.61333  1.49517e-05 -0.000115611      18.1296 
          20            3 -5.52644e-06 -0.000107916      18.1295 
          40            0   0.00180429  -0.00262635      17.7513 
          40     0.013333   0.00187605  -0.00263646      17.7513 
          40     0.053333   0.00210506  -0.00266483      17.7512 
          40         0.12   0.00253159  -0.00270598      17.7512 
          40     0.213332   0.00320653  -0.00275273      17.7511 
          40     0.333332   0.00411926  -0.00280136       17.751 
          40         0.48   0.00505102  -0.00285864      17.7509 
          40     0.653331   0.00553499  -0.00293908      17.7507 
          40     0.853332   0.00521951  -0.00304034      17.7505 
          40         1.08   0.00424986  -0.00312443      17.7503 
          40      1.33333   0.00299163   -0.0031416        17.75 
          40      1.61333    0.0016796  -0.00306086      17.7497 
          40         1.92   0.00047679   -0.0028749      17.7493 
          40      2.25333 -0.000457398  -0.00259885      17.7489 
          40      2.61333   -0.0010281  -0.00226651      17.7484 
          40            3  -0.00126259  -0.00191819      17.7478 
          60            0           -0           -0      17.3579 
          60     0.013333  0.000803537 -2.77593e-06      17.3579 
          60     0.053333    0.0034433 -3.74668e-05      17.3579 
          60         0.12   0.00739243 -0.000141342      17.3579 
          60     0.213332    0.0109201 -0.000293924      17.3579 
          60     0.333332    0.0127448 -0.000427157      17.3579 
          60         0.48    0.0130864  -0.00051484      17.3579 
          60     0.653331    0.0125321 -0.000611652      17.3579 
          60     0.853332    0.0116039 -0.000757161      17.3579 
          60         1.08    0.0101797  -0.00091001      17.3579 
          60      1.33333    0.0074798  -0.00105733      17.3578 
          60      1.61333   0.00415147  -0.00116736      17.3576 
          60         1.92  0.000983875  -0.00120796      17.3574 
          60      2.25333  -0.00154246  -0.00118257      17.3571 
          60      2.61333  -0.00314486  -0.00108894      17.3567 
          60            3  -0.00380403 -0.000957716      17.3564 
          80            0  5.18284e-19 -3.08636e-25      16.9801 
          80     0.013333  0.000832518 -2.96067e-06      16.9801 
          80     0.053333   0.00367125 -4.06222e-05      16.9801 
          80         0.12   0.00822596 -0.000158167      16.9801 
          80     0.213332    0.0127759 -0.000345737      16.9801 
          80     0.333332    0.0156745 -0.000535367      16.9801 
          80         0.48    0.0169333 -0.000677163      16.9801 
          80     0.653331    0.0170061 -0.000809865      16.9801 
          80     0.853332     0.015164  -0.00105641      16.9801 
          80         1.08    0.0114052  -0.00146233      16.9801 
          80      1.33333   0.00764608  -0.00191739        16.98 
          80      1.61333   0.00449247  -0.00228763      16.9798 
          80         1.92   0.00144197   -0.0025223      16.9796 
          80      2.25333  -0.00123492  -0.00261235      16.9793 
          80      2.61333  -0.00311777  -0.00255477       16.979 
          80            3  -0.00403089  -0.00239352      16.9786 
         100            0           -0           -0       16.608 
         100     0.013333 -0.000378039 -2.02413e-06       16.608 
         100     0.053333 -0.000776184 -2.99324e-05       16.608 
         100         0.12 -9.27339e-05 -0.000131937       16.608 
         100     0.213332   0.00185816 -0.000342634       16.608 
         100     0.333332   0.00417965 -0.000658586       16.608 
         100         0.48   0.00583391  -0.00105799       16.608 
         100     0.653331   0.00601215  -0.00153757       16.608 
         100     0.853332   0.00422552  -0.00210806       16.608 
         100         1.08   0.00152443  -0.00271978       16.608 
         100      1.33333  6.44965e-05   -0.0032512       16.608 
         100      1.61333 -0.000180905  -0.00363118       16.608 
         100         1.92 -0.000468565  -0.00386001      16.6079 
         100      2.25333  -0.00078862  -0.00392388      16.6078 
         100      2.61333 -0.000976588  -0.00382508      16.6077 
         100            3  -0.00102342  -0.00359743      16.6076 
         150            0 -1.91016e-20  -5.4369e-26       15.706 
         150     0.013333  3.45995e-05 -8.27803e-07       15.706 
         150     0.053333  0.000370225 -1.17485e-05       15.706 
         150         0.12   0.00114199 -4.87113e-05       15.706 
         150     0.213332   0.00212843 -0.000117579       15.706 
         150     0.333332   0.00291596 -0.000209235       15.706 
         150         0.48   0.00331797 -0.000312007       15.706 
         150     0.653331   0.00334769 -0.000424869       15.706 
         150     0.853332   0.00295106 -0.000558132       15.706 
         150         1.08    0.0021788 -0.000711336       15.706 
         150      1.33333    0.0013958 -0.000860848       15.706 
         150      1.61333  0.000770765 -0.000981536      15.7059 
         150         1.92   0.00023958  -0.00106274      15.7059 
         150      2.25333 -0.000221292  -0.00109891      15.7058 
         150      2.61333 -0.000579597  -0.00108733      15.7058 
         150            3 -0.000790078  -0.00103611      15.7057 
         200            0           -0           -0      14.8183 
         200     0.013333  0.000766629 -1.26837e-06      14.8183 
         200     0.053333   0.00301655 -1.65562e-05      14.8183 
         200         0.12   0.00600398 -5.85183e-05      14.8183 
         200     0.213332   0.00839223  -0.00010753      14.8183 
         200     0.333332    0.0093261  -0.00012078      14.8183 
         200         0.48   0.00912813 -7.68182e-05      14.8183 
         200     0.653331   0.00846021  3.36625e-06      14.8183 
         200     0.853332   0.00739198  7.50792e-05      14.8183 
         200         1.08   0.00584872  0.000117067      14.8183 
         200      1.33333   0.00424903  0.000144332      14.8183 
         200      1.61333   0.00278319  0.000174111      14.8182 
         200         1.92   0.00131813  0.000202972      14.8181 
         200      2.25333 -5.31014e-05  0.000223335       14.818 
         200      2.61333  -0.00118094  0.000237881      14.8178 
         200            3  -0.00193821  0.000243306      14.8176 
         250            0           -0           -0      13.9302 
         250     0.013333  0.000447918  1.84728e-06      13.9302 
         250     0.053333   0.00115231  2.82304e-05      13.9302 
         250         0.12  0.000788365  0.000129368      13.9302 
         250     0.213332 -0.000923288  0.000346479      13.9302 
         250     0.333332  -0.00290574  0.000675297      13.9302 
         250         0.48  -0.00401129   0.00107811      13.9302 
         250     0.653331  -0.00391746   0.00152525      13.9302 
         250     0.853332  -0.00291717   0.00200082      13.9302 
         250         1.08  -0.00176726   0.00246772      13.9302 
         250      1.33333  -0.00116894   0.00286983      13.9302 
         250      1.61333 -0.000881068   0.00317876      13.9302 
         250         1.92  -0.00051931   0.00338429      13.9302 
         250      2.25333 -0.000133234   0.00346583      13.9303 
         250      2.61333  0.000201735    0.0034158      13.9303 
         250            3  0.000450457   0.00324534      13.9303 
         300            0   7.7604e-20  4.56656e-26      13.0456 
         300     0.013333  0.000181187  2.81099e-06      13.0456 
         300     0.053333 -4.25716e-05  4.17949e-05      13.0456 
         300         0.12  -0.00205478  0.000185157      13.0456 
         300     0.213332  -0.00572662  0.000480403      13.0456 
         300     0.333332   -0.0093476  0.000912113      13.0456 
         300         0.48   -0.0114439   0.00142608      13.0456 
         300     0.653331   -0.0117513   0.00198598      13.0456 
         300     0.853332   -0.0105925   0.00258761      13.0456 
         300         1.08  -0.00854397   0.00321552      13.0456 
         300      1.33333  -0.00651634    0.0038142      13.0456 
         300      1.61333  -0.00486539   0.00432213      13.0457 
         300         1.92  -0.00319482   0.00470512      13.0457 
         300      2.25333   -0.0014735   0.00493211      13.0459 
         300      2.61333   0.00011861   0.00498058       13.046 
         300            3   0.00137775   0.00485226      13.0462 
         350            0            0            0      12.1674 
         350     0.013333   0.00105982  1.94215e-06      12.1674 
         350     0.053333   0.00327729   3.0526e-05      12.1674 
         350         0.12   0.00447926  0.000145934      12.1674 
         350     0.213332   0.00349134  0.000411511      12.1674 
         350     0.333332   0.00113767  0.000846925      12.1674 
         350         0.48 -0.000912577   0.00142139      12.1674 
         350     0.653331  -0.00167716   0.00209263      12.1674 
         350     0.853332  -0.00114487   0.00282943      12.1674 
         350         1.08 -7.51467e-05   0.00358738      12.1674 
         350      1.33333  0.000489797   0.00429548      12.1674 
         350      1.61333  0.000414612   0.00489764      12.1674 
         350         1.92  0.000283204   0.00536769      12.1674 
         350      2.25333   0.00018658   0.00566922      12.1674 
         350      2.61333  9.16547e-05   0.00577492      12.1674 
         350            3  2.52642e-07   0.00567859      12.1674 
         400            0            0            0      11.2909 
         400     0.013333   0.00117322 -8.94522e-07      11.2909 
         400     0.053333   0.00446592 -1.13655e-05      11.2909 
         400         0.12   0.00876576 -3.78304e-05      11.2909 
         400     0.213332     0.012396 -5.94086e-05      11.2909 
         400     0.333332       0.0142 -3.36696e-05      11.2909 
         400         0.48    0.0143477  6.93772e-05      11.2909 
         400     0.653331     0.013765  0.000246385      11.2909 
         400     0.853332    0.0130166  0.000466687      11.2909 
         400         1.08    0.0119072  0.000687791      11.2909 
         400      1.33333    0.0101208  0.000876268      11.2909 
         400      1.61333   0.00792245    0.0010284      11.2909 
         400         1.92   0.00565329   0.00115262      11.2908 
         400      2.25333   0.00331229   0.00124122      11.2907 
         400      2.61333   0.00101219   0.00128741      11.2905 
         400            3 -0.000996365   0.00128757      11.2903 
         450            0 -4.41002e-19 -5.59527e-27      10.4058 
         450     0.013333  -0.00115343 -1.03341e-06      10.4058 
         450     0.053333  -0.00373268 -1.70782e-05      10.4058 
         450         0.12  -0.00592652 -8.70608e-05      10.4058 
         450     0.213332  -0.00632556  -0.00026204      10.4058 
         450     0.333332  -0.00507619 -0.000571768      10.4058 
         450         0.48  -0.00343913    -0.001006      10.4058 
         450     0.653331  -0.00249188  -0.00153221      10.4058 
         450     0.853332    -0.002477  -0.00211697      10.4058 
         450         1.08  -0.00286569  -0.00272071      10.4058 
         450      1.33333  -0.00287224  -0.00329347      10.4058 
         450      1.61333  -0.00234431  -0.00379814      10.4058 
         450         1.92  -0.00170312  -0.00421663      10.4058 
         450      2.25333  -0.00106064  -0.00452284      10.4059 
         450      2.61333 -0.000431059  -0.00469044      10.4059 
         450            3   0.00014254  -0.00470384       10.406 
         500            0            0            0      9.52608 
         500     0.013333 -0.000200025  8.97758e-07      9.52608 
         500     0.053333 -0.000875668  1.27475e-05      9.52608 
         500         0.12  -0.00217165  5.28356e-05      9.52608 
         500     0.213332  -0.00373351  0.000126976      9.52608 
         500     0.333332  -0.00496471  0.000223285      9.52608 
         500         0.48  -0.00560279  0.000326308      9.52607 
         500     0.653331   -0.0057822  0.000433031      9.52607 
         500     0.853332   -0.0056011  0.000555511      9.52607 
         500         1.08  -0.00492299  0.000710827      9.52606 
         500      1.33333  -0.00381782  0.000898281      9.52607 
         500      1.61333  -0.00277249   0.00108935      9.52609 
         500         1.92  -0.00194173   0.00125702      9.52612 
         500      2.25333  -0.00113938   0.00139181      9.52617 
         500      2.61333 -0.000332169   0.00148528      9.52624 
         500            3  0.000385911   0.00153029      9.52633 
         550            0           -0           -0      8.64886 
         550     0.013333  4.42661e-05  3.89948e-07      8.64886 
         550     0.053333  0.000101383  5.94448e-06      8.64886 
         550         0.12 -0.000134115  2.73097e-05      8.64886 
         550     0.213332 -0.000726252  7.38308e-05      8.64886 
         550     0.333332   -0.0014162  0.000145656      8.64886 
         550         0.48  -0.00188608  0.000234373      8.64886 
         550     0.653331  -0.00201954  0.000331653      8.64886 
         550     0.853332  -0.00186887  0.000434576      8.64886 
         550         1.08  -0.00154128  0.000541637      8.64886 
         550      1.33333  -0.00120527  0.000645536      8.64886 
         550      1.61333 -0.000987473  0.000735836      8.64887 
         550         1.92 -0.000803649  0.000808255      8.64887 
         550      2.25333 -0.000588933  0.000860698      8.64888 
         550      2.61333 -0.000350062  0.000889551      8.64889 
         550            3 -0.000119726  0.000891488      8.64891 
         600            0            0            0      7.77362 
         600     0.013333  0.000312523 -7.01935e-07      7.77362 
         600     0.053333   0.00138426 -9.99995e-06      7.77362 
         600         0.12   0.00311961  -4.1433e-05      7.77362 
         600     0.213332   0.00500671 -9.82314e-05      7.77362 
         600     0.333332   0.00633639 -0.000166079      7.77362 
         600         0.48   0.00679477 -0.000225108      7.77362 
         600     0.653331   0.00659552 -0.000267377      7.77363 
         600     0.853332   0.00605307 -0.000300474      7.77363 
         600         1.08   0.00528482 -0.000336727      7.77363 
         600      1.33333   0.00437798 -0.000378543      7.77362 
         600      1.61333   0.00350378 -0.000417174      7.77361 
         600         1.92   0.00268544 -0.000445106      7.77358 
         600      2.25333   0.00183418 -0.000461356      7.77354 
         600      2.61333  0.000945075 -0.000465209      7.77348 
         600            3  9.17661e-05 -0.000455478       7.7734 
         650            0           -0           -0      6.89265 
         650     0.013333 -0.000587069  8.44492e-07      6.89265 
         650     0.053333  -0.00228727  1.17918e-05      6.89265 
         650         0.12  -0.00489064  4.73647e-05      6.89265 
         650     0.213332  -0.00761786   0.00010791      6.89265 
         650     0.333332  -0.00956311  0.000173919      6.89265 
         650         0.48   -0.0104093  0.000222565      6.89264 
         650     0.653331   -0.0104867  0.000246837      6.89264 
         650     0.853332   -0.0101746  0.000258982      6.89264 
         650         1.08  -0.00946882  0.000281575      6.89263 
         650      1.33333  -0.00825586  0.000328669      6.89264 
         650      1.61333   -0.0067836   0.00039177      6.89266 
         650         1.92  -0.00536259  0.000451582      6.89269 
         650      2.25333   -0.0039096  0.000501912      6.89275 
         650      2.61333  -0.00238111  0.000540079      6.89283 
         650            3 -0.000867929  0.000563628      6.89294 
         700            0            0            0      6.02095 
         700     0.013333  0.000102228 -1.42577e-07      6.02095 
         700     0.053333  0.000452491 -1.77076e-06      6.02095 
         700         0.12  0.000893773  -5.6684e-06      6.02095 
         700     0.213332   0.00122153 -8.44433e-06      6.02095 
         700     0.333332   0.00132984 -4.74228e-06      6.02095 
         700         0.48   0.00131062  6.89724e-06      6.02095 
         700     0.653331   0.00132279  2.24241e-05      6.02095 
         700     0.853332   0.00140665  3.47542e-05      6.02095 
         700         1.08   0.00142253  3.45546e-05      6.02095 
         700      1.33333   0.00119029  1.32844e-05      6.02095 
         700      1.61333  0.000780201 -2.72352e-05      6.02095 
         700         1.92  0.000461747 -7.40049e-05      6.02094 
         700      2.25333  0.000224546 -0.000119818      6.02093 
         700      2.61333  1.01602e-05 -0.000162394      6.02091 
         700            3  -0.00018913 -0.000200617      6.02088 
         750            0           -0           -0      5.14588 
         750     0.013333 -0.000349794 -2.91206e-07      5.14588 
         750     0.053333  -0.00109768  -4.7424e-06      5.14588 
         750         0.12  -0.00174324 -2.39105e-05      5.14588 
         750     0.213332  -0.00184721 -7.18676e-05      5.14588 
         750     0.333332  -0.00139411 -0.000157959      5.14588 
         750         0.48 -0.000734456 -0.000281085      5.14587 
         750     0.653331  -0.00023635 -0.000433075      5.14587 
         750     0.853332  -6.1529e-05 -0.000605701      5.14587 
         750         1.08 -0.000160808 -0.000791579      5.14587 
         750      1.33333 -0.000319306 -0.000979523      5.14587 
         750      1.61333 -0.000331357  -0.00115593      5.14587 
         750         1.92 -0.000237775  -0.00131364      5.14588 
         750      2.25333 -0.000142462  -0.00144821      5.14588 
         750      2.61333 -6.68516e-05  -0.00155246      5.14589 
         750            3   6.4458e-06  -0.00161806       5.1459 
         800            0  5.34257e-20  5.18912e-27      4.27344 
         800     0.013333  0.000195633 -1.53275e-07      4.27344 
         800     0.053333  0.000822065 -2.08086e-06      4.27344 
         800         0.12   0.00170897 -7.95016e-06      4.27344 
         800     0.213332   0.00259478 -1.66603e-05      4.27344 
         800     0.333332   0.00322747 -2.30987e-05      4.27344 
         800         0.48   0.00352375  -2.1598e-05      4.27344 
         800     0.653331   0.00357736 -9.63151e-06      4.27344 
         800     0.853332   0.00352513  1.14724e-05      4.27344 
         800         1.08   0.00342018  3.74035e-05      4.27344 
         800      1.33333    0.0032082  6.21547e-05      4.27344 
         800      1.61333   0.00283304  8.05675e-05      4.27344 
         800         1.92    0.0023557  9.25877e-05      4.27343 
         800      2.25333   0.00184251  0.000100831      4.27342 
         800      2.61333   0.00130491  0.000105736       4.2734 
         800            3  0.000744959  0.000106766      4.27337 
         850            0            0            0      3.39925 
         850     0.013333  3.93907e-05  1.79114e-07      3.39925 
         850     0.053333  0.000156862  2.72883e-06      3.39925 
         850         0.12  0.000177461  1.25605e-05      3.39925 
         850     0.213332  4.12593e-05  3.41474e-05      3.39925 
         850     0.333332 -0.000159003  6.79595e-05      3.39925 
         850         0.48 -0.000282782  0.000110557      3.39925 
         850     0.653331 -0.000265513  0.000158523      3.39925 
         850     0.853332 -0.000120743  0.000211053      3.39925 
         850         1.08  9.97749e-05  0.000267833      3.39925 
         850      1.33333  0.000299131  0.000325519      3.39925 
         850      1.61333  0.000388595  0.000378992      3.39925 
         850         1.92  0.000386026  0.000425518      3.39926 
         850      2.25333  0.000354081  0.000464378      3.39926 
         850      2.61333  0.000316005   0.00049387      3.39926 
         850            3  0.000267538  0.000511679      3.39927 
         900            0           -0           -0      2.52855 
         900     0.013333 -7.90331e-05  -8.7171e-07      2.52855 
         900     0.053333  9.46315e-05 -1.33733e-05      2.52855 
         900         0.12   0.00113423 -6.22906e-05      2.52855 
         900     0.213332   0.00321296 -0.000171983      2.52855 
         900     0.333332   0.00566971 -0.000347433      2.52855 
         900         0.48   0.00752408 -0.000569608      2.52855 
         900     0.653331   0.00826479 -0.000811688      2.52855 
         900     0.853332   0.00802002  -0.00105686      2.52855 
         900         1.08   0.00720933  -0.00129854      2.52855 
         900      1.33333   0.00627909  -0.00152852      2.52855 
         900      1.61333    0.0054979  -0.00173594      2.52854 
         900         1.92   0.00477436  -0.00191587      2.52853 
         900      2.25333   0.00394622  -0.00206597      2.52851 
         900      2.61333   0.00298576  -0.00217882      2.52848 
         900            3   0.00195416  -0.00224431      2.52844 
         950            0            0            0      1.65944 
         950     0.013333     0.001827 -3.08943e-09      1.65944 
         950     0.053333   0.00665654  1.88517e-06      1.65944 
         950         0.12    0.0124467  2.17469e-05      1.65945 
         950     0.213332    0.0167431   0.00010198      1.65945 
         950     0.333332    0.0181567  0.000296015      1.65945 
         950         0.48    0.0171875  0.000633323      1.65945 
         950     0.653331    0.0154342   0.00110288      1.65946 
         950     0.853332     0.014147   0.00166701      1.65947 
         950         1.08    0.0134733   0.00227785      1.65947 
         950      1.33333    0.0126914   0.00288498      1.65947 
         950      1.61333    0.0112136   0.00345069      1.65945 
         950         1.92   0.00931147   0.00396629      1.65942 
         950      2.25333   0.00732958   0.00442936      1.65936 
         950      2.61333   0.00530313   0.00481963      1.65927 
         950            3   0.00317948   0.00510947      1.65914 
        1000            0           -0           -0     0.780785 
        1000     0.013333 -1.03669e-05  1.39204e-06     0.780785 
        1000     0.053333 -0.000393737  2.05192e-05     0.780786 
        1000         0.12  -0.00189457  9.06421e-05     0.780786 
        1000     0.213332  -0.00451533  0.000236543     0.780786 
        1000     0.333332  -0.00735803  0.000455101     0.780785 
        1000         0.48  -0.00946158  0.000722356     0.780783 
        1000     0.653331   -0.0105273   0.00101818     0.780779 
        1000     0.853332    -0.010723    0.0013425     0.780774 
        1000         1.08   -0.0100996   0.00171182      0.78077 
        1000      1.33333  -0.00860484   0.00213809      0.78077 
        1000      1.61333  -0.00667158   0.00260227     0.780777 
        1000         1.92  -0.00513015   0.00305596     0.780797 
        1000      2.25333  -0.00391836   0.00346671     0.780836 
        1000      2.61333  -0.00274904    0.0038157     0.780897 
        1000            3  -0.00150666   0.00408745     0.780985 
