Variables = x, y, u, v, p

Zone, I=800, F=POINT
         250            0            0            0 -8.29047e-05 
         250     0.000234  0.000101638   1.0375e-11 -8.29046e-05 
         250     0.000939  0.000407856  1.67079e-10 -8.29043e-05 
         250     0.002113  0.000917785  8.46057e-10 -8.29039e-05 
         250     0.003759   0.00163273  2.67763e-09 -8.29032e-05 
         250     0.005872   0.00255052  6.53408e-09 -8.29024e-05 
         250     0.008457   0.00367332  1.35535e-08 -8.29015e-05 
         250      0.01151   0.00499941   2.5106e-08 -8.29003e-05 
         250     0.015036   0.00653095  4.28451e-08  -8.2899e-05 
         250     0.019031   0.00826622  6.86389e-08 -8.28975e-05 
         250     0.023493    0.0102043  1.04601e-07 -8.28958e-05 
         250     0.028429    0.0123483  1.53178e-07 -8.28939e-05 
         250     0.033831    0.0146948  2.16928e-07 -8.28918e-05 
         250     0.039706    0.0172467  2.98823e-07 -8.28896e-05 
         250     0.046047     0.020001  4.01903e-07 -8.28872e-05 
         250     0.052863    0.0229617  5.29712e-07 -8.28846e-05 
         250      0.06015     0.026127  6.85846e-07 -8.28819e-05 
         250       0.0679    0.0294934  8.74006e-07 -8.28789e-05 
         250     0.076126    0.0330665  1.09866e-06 -8.28758e-05 
         250     0.084816    0.0368412  1.36387e-06 -8.28725e-05 
         250     0.093982    0.0408227  1.67467e-06  -8.2869e-05 
         250     0.103611    0.0450052  2.03551e-06 -8.28654e-05 
         250     0.113718    0.0493954  2.45213e-06 -8.28615e-05 
         250     0.124286    0.0539857  2.92922e-06 -8.28575e-05 
         250     0.135333     0.058784  3.47327e-06 -8.28533e-05 
         250      0.14685    0.0637862  4.08979e-06 -8.28489e-05 
         250     0.158827    0.0689881  4.78437e-06 -8.28444e-05 
         250     0.171284    0.0743983  5.56456e-06 -8.28396e-05 
         250     0.184201    0.0800078  6.43579e-06 -8.28347e-05 
         250     0.197599    0.0858259  7.40638e-06 -8.28296e-05 
         250     0.211455    0.0918423  8.48182e-06 -8.28243e-05 
         250     0.225792    0.0980669   9.6713e-06 -8.28189e-05 
         250       0.2406     0.104495  1.09817e-05 -8.28132e-05 
         250     0.255865     0.111121  1.24196e-05 -8.28074e-05 
         250     0.271613     0.117955  1.39956e-05 -8.28014e-05 
         250     0.287818     0.124986  1.57154e-05 -8.27952e-05 
         250     0.304506     0.132225  1.75903e-05 -8.27888e-05 
         250      0.32165     0.139659  1.96262e-05 -8.27822e-05 
         250     0.339278     0.147301  2.18353e-05 -8.27755e-05 
         250     0.357377     0.155145  2.42255e-05 -8.27685e-05 
         250      0.37593     0.163181  2.68038e-05 -8.27614e-05 
         250     0.394968     0.171424   2.9584e-05 -8.27541e-05 
         250     0.414461     0.179859  3.25717e-05 -8.27466e-05 
         250      0.43444     0.188498  3.57815e-05 -8.27388e-05 
         250     0.454872     0.197328  3.92183e-05 -8.27309e-05 
         250     0.475791     0.206361  4.28982e-05 -8.27228e-05 
         250     0.497163     0.215581  4.68255e-05 -8.27145e-05 
         250     0.519021     0.225002  5.10169e-05 -8.27059e-05 
         250      0.54135     0.234614  5.54802e-05 -8.26972e-05 
         250     0.564131      0.24441  6.02222e-05 -8.26882e-05 
         250       0.5874     0.254401   6.5261e-05  -8.2679e-05 
         250     0.611121     0.264571  7.05997e-05 -8.26696e-05 
         250      0.63533     0.274933   7.6257e-05   -8.266e-05 
         250      0.65999     0.285469  8.22347e-05 -8.26502e-05 
         250     0.685139     0.296191  8.85528e-05   -8.264e-05 
         250     0.710759      0.30709  9.52175e-05 -8.26297e-05 
         250     0.736828     0.318153  0.000102233 -8.26191e-05 
         250     0.763387     0.329393  0.000109621 -8.26082e-05 
         250     0.790396      0.34079  0.000117379  -8.2597e-05 
         250     0.817896     0.352358  0.000125528 -8.25856e-05 
         250     0.845843     0.364072  0.000134066 -8.25739e-05 
         250     0.874283     0.375948  0.000143014 -8.25618e-05 
         250      0.90317     0.387961  0.000152366 -8.25495e-05 
         250     0.932551     0.400125  0.000162144 -8.25368e-05 
         250     0.962401     0.412423  0.000172349 -8.25238e-05 
         250     0.992697     0.424839  0.000182977 -8.25104e-05 
         250      1.02349     0.437388  0.000194051 -8.24967e-05 
         250      1.05472      0.45004  0.000205558 -8.24825e-05 
         250      1.08645     0.462808   0.00021752  -8.2468e-05 
         250      1.11863     0.475665  0.000229921  -8.2453e-05 
         250       1.1513      0.48862   0.00024278 -8.24376e-05 
         250      1.18444     0.501655  0.000256089 -8.24217e-05 
         250      1.21802     0.514749  0.000269836 -8.24054e-05 
         250      1.25211     0.527913   0.00028404 -8.23885e-05 
         250      1.28663     0.541115  0.000298673 -8.23711e-05 
         250      1.32165     0.554365  0.000313756 -8.23531e-05 
         250      1.35712     0.567629  0.000329255 -8.23346e-05 
         250      1.39308     0.580916  0.000345187 -8.23154e-05 
         250      1.42951     0.594204  0.000361531 -8.22956e-05 
         250      1.46638     0.607467  0.000378258 -8.22753e-05 
         250      1.50375     0.620714   0.00039538 -8.22542e-05 
         250      1.54156     0.633909  0.000412862 -8.22323e-05 
         250      1.57987     0.647058  0.000430705 -8.22096e-05 
         250      1.61863     0.660126  0.000448862 -8.21862e-05 
         250      1.65788      0.67312  0.000467342  -8.2162e-05 
         250      1.69757     0.686001  0.000486091 -8.21369e-05 
         250      1.73776     0.698775  0.000505115 -8.21111e-05 
         250      1.77842     0.711417  0.000524371 -8.20843e-05 
         250      1.81952     0.723901  0.000543816 -8.20567e-05 
         250      1.86113      0.73623  0.000563448 -8.20282e-05 
         250      1.90316      0.74837  0.000583205 -8.19988e-05 
         250      1.94571     0.760324  0.000603083 -8.19683e-05 
         250      1.98869     0.772057  0.000623015 -8.19369e-05 
         250      2.03217     0.783574  0.000642996 -8.19044e-05 
         250      2.07612     0.794851  0.000662973 -8.18708e-05 
         250      2.12051     0.805864   0.00068289 -8.18362e-05 
         250       2.1654     0.816617  0.000702741 -8.18004e-05 
         250      2.21073     0.827081  0.000722452 -8.17636e-05 
         250      2.25656      0.83726  0.000742016 -8.17256e-05 
         250      2.30283     0.847126  0.000761362 -8.16864e-05 
         250       2.3496     0.856685  0.000780479 -8.16461e-05 
         250      2.39685      0.86592  0.000799313 -8.16046e-05 
         250      2.44452     0.874815  0.000817812  -8.1562e-05 
         250      2.49271     0.883376  0.000835965 -8.15182e-05 
         250      2.54132     0.891586  0.000853708 -8.14733e-05 
         250      2.59044     0.899452  0.000871034 -8.14272e-05 
         250         2.64     0.906958  0.000887883   -8.138e-05 
         250      2.69006     0.914113  0.000904251 -8.13316e-05 
         250      2.74056     0.920907  0.000920082 -8.12822e-05 
         250      2.79156      0.92735  0.000935375 -8.12317e-05 
         250      2.84304     0.933439  0.000950095 -8.11801e-05 
         250      2.89494     0.939173   0.00096421 -8.11275e-05 
         250      2.94735     0.944565  0.000977726 -8.10738e-05 
         250       3.0002     0.949614  0.000990608 -8.10191e-05 
         250      3.05355     0.954334   0.00100287 -8.09634e-05 
         250      3.10733     0.958727   0.00101447 -8.09066e-05 
         250      3.16163     0.962808   0.00102545 -8.08489e-05 
         250      3.21639     0.966584   0.00103578 -8.07901e-05 
         250      3.27158     0.970065   0.00104547 -8.07303e-05 
         250      3.32729     0.973267   0.00105454 -8.06695e-05 
         250      3.38342     0.976198   0.00106299 -8.06078e-05 
         250      3.44007     0.978876   0.00107083 -8.05451e-05 
         250      3.49714      0.98131   0.00107809 -8.04815e-05 
         250      3.55472     0.983517   0.00108478  -8.0417e-05 
         250      3.61273     0.985509   0.00109092 -8.03519e-05 
         250      3.67125     0.987301   0.00109653 -8.02861e-05 
         250      3.73025     0.988908   0.00110162 -8.02199e-05 
         250      3.78967     0.990341   0.00110626 -8.01486e-05 
         250      3.84961     0.991615   0.00111046 -8.00789e-05 
         250      3.90996     0.992743   0.00111423 -8.00107e-05 
         250      3.97084     0.993737   0.00111761 -7.99419e-05 
         250      4.03214      0.99461   0.00112062 -7.98726e-05 
         250      4.09395     0.995373    0.0011233 -7.98039e-05 
         250      4.15624     0.996038   0.00112568 -7.97382e-05 
         250      4.21895     0.996613   0.00112778 -7.96668e-05 
         250      4.28217     0.997109   0.00112962 -7.95902e-05 
         250      4.34582     0.997535   0.00113122  -7.9514e-05 
         250      4.40998       0.9979   0.00113261 -7.94378e-05 
         250      4.47457     0.998209   0.00113381 -7.93616e-05 
         250      4.53968     0.998471   0.00113485 -7.92854e-05 
         250      4.60525     0.998692   0.00113573 -7.92094e-05 
         250      4.67125     0.998877   0.00113649 -7.91336e-05 
         250      4.73777     0.999032   0.00113714 -7.90577e-05 
         250       4.8047     0.999159   0.00113769 -7.89817e-05 
         250      4.87216     0.999265   0.00113816 -7.89049e-05 
         250      4.94003     0.999352   0.00113855 -7.88271e-05 
         250      5.00843     0.999423   0.00113888 -7.87477e-05 
         250      5.07724      0.99948   0.00113916 -7.86664e-05 
         250      5.14658     0.999527    0.0011394 -7.85829e-05 
         250      5.21639     0.999564    0.0011396 -7.84977e-05 
         250      5.28661     0.999594   0.00113977 -7.84114e-05 
         250      5.35736     0.999618   0.00113991 -7.83254e-05 
         250      5.42852     0.999637   0.00114002 -7.82423e-05 
         250      5.50021     0.999652   0.00114012 -7.81636e-05 
         250      5.57231     0.999663    0.0011402 -7.80855e-05 
         250      5.64493     0.999672   0.00114027 -7.80051e-05 
         250      5.71803     0.999679   0.00114034 -7.79215e-05 
         250      5.79154     0.999685   0.00114041 -7.78347e-05 
         250      5.86558     0.999689   0.00114047 -7.77454e-05 
         250      5.94003     0.999692   0.00114051 -7.76547e-05 
         250      6.01501     0.999694   0.00114055 -7.75633e-05 
         250       6.0904     0.999696   0.00114058 -7.74722e-05 
         250      6.16632     0.999698   0.00114061 -7.73818e-05 
         250      6.24271     0.999699   0.00114064 -7.72922e-05 
         250       6.3195       0.9997   0.00114067 -7.72035e-05 
         250      6.39683     0.999701   0.00114071 -7.71151e-05 
         250      6.47457     0.999701   0.00114075 -7.70266e-05 
         250      6.55284     0.999702    0.0011408 -7.69376e-05 
         250      6.63152     0.999702   0.00114084 -7.68474e-05 
         250      6.71073     0.999703   0.00114088 -7.67556e-05 
         250      6.79034     0.999703   0.00114092 -7.66614e-05 
         250      6.87049     0.999703   0.00114097 -7.65635e-05 
         250      6.95111     0.999704   0.00114102 -7.64597e-05 
         250      7.03214     0.999704   0.00114105 -7.63575e-05 
         250       7.1137     0.999704   0.00114105 -7.62676e-05 
         250      7.19566     0.999705   0.00114113 -7.61902e-05 
         250      7.27816     0.999705    0.0011411 -7.61249e-05 
         250      7.36106     0.999705   0.00114112 -7.60432e-05 
         250      7.44451     0.999706    0.0011412 -7.58979e-05 
         250      7.52842     0.999706   0.00114123 -7.57788e-05 
         250      7.61273     0.999706   0.00114124 -7.56745e-05 
         250      7.69758     0.999706   0.00114126 -7.55771e-05 
         250      7.78283     0.999707   0.00114129 -7.54821e-05 
         250      7.86862     0.999707   0.00114134 -7.53866e-05 
         250      7.95481     0.999707    0.0011414 -7.52891e-05 
         250      8.04155     0.999708   0.00114145  -7.5189e-05 
         250      8.12868     0.999708    0.0011415 -7.50863e-05 
         250      8.21635     0.999708   0.00114154 -7.49809e-05 
         250      8.30449     0.999709   0.00114158 -7.48731e-05 
         250      8.39303     0.999709   0.00114161 -7.47636e-05 
         250      8.48211     0.999709   0.00114164 -7.46528e-05 
         250      8.57159     0.999709   0.00114167 -7.45417e-05 
         250      8.66161      0.99971   0.00114171 -7.44311e-05 
         250      8.75203      0.99971   0.00114175  -7.4322e-05 
         250      8.84299      0.99971   0.00114179 -7.42148e-05 
         250      8.93443     0.999711   0.00114182 -7.41091e-05 
         250      9.02626     0.999711   0.00114184 -7.40021e-05 
         250      9.11863     0.999712   0.00114191 -7.38876e-05 
         250      9.21139     0.999712   0.00114195 -7.37844e-05 
         250      9.30471     0.999712   0.00114195 -7.36796e-05 
         250      9.39841     0.999712   0.00114197 -7.35684e-05 
         250      9.49267     0.999713   0.00114201 -7.34541e-05 
         250      9.58739     0.999713   0.00114206 -7.33389e-05 
         250      9.68251     0.999713   0.00114212 -7.32241e-05 
         250      9.77817     0.999714   0.00114217   -7.311e-05 
         250      9.87422     0.999714   0.00114221 -7.29967e-05 
         250      9.97083     0.999715   0.00114225 -7.28835e-05 
         250      10.0678     0.999715   0.00114227   -7.277e-05 
         250      10.1654     0.999715   0.00114228 -7.26555e-05 
         250      10.2633     0.999716   0.00114229 -7.25397e-05 
         250      10.3618     0.999716   0.00114231 -7.24218e-05 
         250      10.4607     0.999716   0.00114234 -7.23018e-05 
         250      10.5601     0.999717   0.00114238 -7.21798e-05 
         250        10.66     0.999717   0.00114244 -7.20555e-05 
         250      10.7603     0.999717   0.00114251 -7.19293e-05 
         250      10.8611     0.999718   0.00114259 -7.18013e-05 
         250      10.9623     0.999718   0.00114267 -7.16715e-05 
         250      11.0641     0.999719   0.00114274 -7.15397e-05 
         250      11.1663     0.999719    0.0011428 -7.14052e-05 
         250       11.269     0.999719   0.00114286 -7.12808e-05 
         250      11.3721      0.99972   0.00114293 -7.11715e-05 
         250      11.4757      0.99972   0.00114294  -7.1058e-05 
         250      11.5798     0.999721    0.0011429 -7.09417e-05 
         250      11.6844     0.999721   0.00114283 -7.08242e-05 
         250      11.7894     0.999721   0.00114279 -7.07064e-05 
         250       11.895     0.999722   0.00114285 -7.05883e-05 
         250      12.0009     0.999722   0.00114303 -7.04681e-05 
         250      12.1073     0.999722    0.0011433 -7.03398e-05 
         250      12.2142     0.999723   0.00114338  -7.0192e-05 
         250      12.3216     0.999724   0.00114277 -7.00134e-05 
         250      12.4294     0.999724   0.00114341 -6.99218e-05 
         250      12.5378     0.999724   0.00114353 -6.98039e-05 
         250      12.6465     0.999724   0.00114343 -6.96747e-05 
         250      12.7558     0.999725    0.0011433  -6.9541e-05 
         250      12.8656     0.999725   0.00114322 -6.94027e-05 
         250      12.9757     0.999726   0.00114323 -6.92516e-05 
         250      13.0864     0.999726   0.00114336 -6.90704e-05 
         250      13.1975     0.999727   0.00114356 -6.88864e-05 
         250      13.3092     0.999727    0.0011436 -6.88353e-05 
         250      13.4212     0.999727   0.00114368 -6.87378e-05 
         250      13.5338     0.999728   0.00114377 -6.86092e-05 
         250      13.6468     0.999728   0.00114384 -6.84624e-05 
         250      13.7603     0.999729    0.0011439 -6.83074e-05 
         250      13.8743     0.999729   0.00114393  -6.8151e-05 
         250      13.9886      0.99973   0.00114395 -6.79984e-05 
         250      14.1036      0.99973   0.00114395  -6.7852e-05 
         250      14.2189     0.999731   0.00114396 -6.77125e-05 
         250      14.3348     0.999731   0.00114399 -6.75792e-05 
         250       14.451     0.999731   0.00114402 -6.74502e-05 
         250      14.5678     0.999732   0.00114407  -6.7323e-05 
         250      14.6851     0.999732   0.00114414 -6.71949e-05 
         250      14.8028     0.999733   0.00114421 -6.70633e-05 
         250       14.921     0.999733   0.00114427 -6.69259e-05 
         250      15.0396     0.999734   0.00114432 -6.67816e-05 
         250      15.1588     0.999734   0.00114436   -6.663e-05 
         250      15.2783     0.999735   0.00114436 -6.64719e-05 
         250      15.3984     0.999735   0.00114435 -6.63089e-05 
         250       15.519     0.999736   0.00114434 -6.61437e-05 
         250        15.64     0.999736   0.00114434 -6.59793e-05 
         250      15.7615     0.999737   0.00114438  -6.5818e-05 
         250      15.8834     0.999737   0.00114448 -6.56611e-05 
         250      16.0058     0.999737   0.00114463 -6.55069e-05 
         250      16.1286     0.999738    0.0011448 -6.53497e-05 
         250       16.252     0.999738   0.00114486 -6.51765e-05 
         250      16.3759     0.999739   0.00114457 -6.49657e-05 
         250      16.5002      0.99974    0.0011448 -6.48279e-05 
         250       16.625      0.99974   0.00114504  -6.4708e-05 
         250      16.7501      0.99974   0.00114505 -6.45672e-05 
         250      16.8759     0.999741   0.00114499 -6.44178e-05 
         250       17.002     0.999741   0.00114495 -6.42676e-05 
         250      17.1287     0.999742   0.00114495   -6.412e-05 
         250      17.2557     0.999742     0.001145 -6.39759e-05 
         250      17.3834     0.999743   0.00114508 -6.38336e-05 
         250      17.5115     0.999743   0.00114517 -6.36907e-05 
         250      17.6399     0.999744   0.00114524 -6.35443e-05 
         250       17.769     0.999745   0.00114531 -6.33915e-05 
         250      17.8984     0.999745   0.00114536 -6.32313e-05 
         250      18.0284     0.999746    0.0011454 -6.30634e-05 
         250      18.1587     0.999746   0.00114544 -6.28907e-05 
         250      18.2896     0.999747   0.00114547 -6.27178e-05 
         250       18.421     0.999748   0.00114544 -6.25528e-05 
         250      18.5528     0.999748   0.00114529 -6.24068e-05 
         250      18.6851     0.999749   0.00114535 -6.22349e-05 
         250      18.8178     0.999749    0.0011456 -6.20451e-05 
         250      18.9511     0.999749    0.0011457 -6.18754e-05 
         250      19.0847     0.999749   0.00114574  -6.1713e-05 
         250      19.2189      0.99975   0.00114576 -6.15508e-05 
         250      19.3535     0.999751   0.00114579 -6.13861e-05 
         250      19.4886     0.999752   0.00114583 -6.12188e-05 
         250      19.6242     0.999752   0.00114588 -6.10505e-05 
         250      19.7602     0.999753   0.00114593 -6.08831e-05 
         250      19.8968     0.999754     0.001146  -6.0718e-05 
         250      20.0337     0.999754   0.00114606 -6.05562e-05 
         250      20.1712     0.999754   0.00114612 -6.03973e-05 
         250      20.3091     0.999755   0.00114618 -6.02404e-05 
         250      20.4475     0.999755   0.00114622 -6.00839e-05 
         250      20.5864     0.999756   0.00114624 -5.99269e-05 
         250      20.7257     0.999757   0.00114623 -5.97705e-05 
         250      20.8655     0.999758   0.00114621 -5.96186e-05 
         250      21.0058     0.999758   0.00114629 -5.94455e-05 
         250      21.1465     0.999758   0.00114637 -5.92412e-05 
         250      21.2877     0.999759   0.00114638 -5.90407e-05 
         250      21.4294     0.999759   0.00114641  -5.8841e-05 
         250      21.5716      0.99976   0.00114647 -5.86409e-05 
         250      21.7142      0.99976   0.00114655   -5.844e-05 
         250      21.8573     0.999761   0.00114666 -5.82383e-05 
         250      22.0008     0.999762   0.00114677 -5.80367e-05 
         250      22.1449     0.999762   0.00114686 -5.78359e-05 
         250      22.2893     0.999763   0.00114693 -5.76371e-05 
         250      22.4344     0.999764   0.00114698 -5.74408e-05 
         250      22.5797     0.999764   0.00114699  -5.7248e-05 
         250      22.7257     0.999765   0.00114698 -5.70587e-05 
         250      22.8721     0.999766   0.00114695 -5.68731e-05 
         250      23.0189     0.999766   0.00114693 -5.66912e-05 
         250      23.1663     0.999767   0.00114692 -5.65118e-05 
         250       23.314     0.999768   0.00114694 -5.63345e-05 
         250      23.4623     0.999768   0.00114699 -5.61579e-05 
         250       23.611     0.999769   0.00114708  -5.5981e-05 
         250      23.7602      0.99977   0.00114719 -5.58025e-05 
         250        23.91      0.99977   0.00114732 -5.56213e-05 
         250        24.06     0.999771   0.00114745 -5.54371e-05 
         250      24.2107     0.999772   0.00114757 -5.52494e-05 
         250      24.3617     0.999773   0.00114764 -5.50591e-05 
         250      24.5133     0.999773   0.00114766 -5.48673e-05 
         250      24.6653     0.999774   0.00114763 -5.46769e-05 
         250      24.8178     0.999775   0.00114756 -5.44917e-05 
         250      24.9708     0.999776   0.00114749 -5.43173e-05 
         250      25.1242     0.999777   0.00114751  -5.4161e-05 
         250      25.2781     0.999777   0.00114754 -5.39532e-05 
         250      25.4324     0.999777   0.00114759 -5.37355e-05 
         250      25.5873     0.999778   0.00114769 -5.35408e-05 
         250      25.7426     0.999778   0.00114781 -5.33609e-05 
         250      25.8984     0.999778   0.00114791 -5.31881e-05 
         250      26.0546     0.999779   0.00114795 -5.30156e-05 
         250      26.2114      0.99978   0.00114793 -5.28365e-05 
         250      26.3686     0.999782   0.00114785 -5.26449e-05 
         250      26.5262     0.999783   0.00114779 -5.24353e-05 
         250      26.6844     0.999784   0.00114793 -5.22022e-05 
         250      26.8429     0.999783   0.00114833  -5.1955e-05 
         250       27.002     0.999784   0.00114805  -5.1748e-05 
         250      27.1615     0.999785   0.00114797  -5.1534e-05 
         250      27.3216     0.999785   0.00114803 -5.13169e-05 
         250      27.4821     0.999785   0.00114815 -5.10995e-05 
         250       27.643     0.999785    0.0011483 -5.08837e-05 
         250      27.8044     0.999786   0.00114845 -5.06698e-05 
         250      27.9663     0.999787   0.00114857  -5.0458e-05 
         250      28.1287     0.999788   0.00114867 -5.02475e-05 
         250      28.2914     0.999789   0.00114874 -5.00379e-05 
         250      28.4548      0.99979   0.00114877 -4.98279e-05 
         250      28.6185     0.999791   0.00114878  -4.9617e-05 
         250      28.7828     0.999792   0.00114878 -4.94039e-05 
         250      28.9475     0.999793   0.00114877 -4.91882e-05 
         250      29.1126     0.999793   0.00114875 -4.89696e-05 
         250      29.2784     0.999794   0.00114874 -4.87476e-05 
         250      29.4444     0.999795   0.00114874 -4.85227e-05 
         250       29.611     0.999795   0.00114876 -4.82949e-05 
         250       29.778     0.999795   0.00114879 -4.80651e-05 
         250      29.9456     0.999796   0.00114884 -4.78337e-05 
         250      30.1137     0.999796   0.00114891 -4.76018e-05 
         250      30.2821     0.999797   0.00114899 -4.73707e-05 
         250      30.4511     0.999797   0.00114907 -4.71409e-05 
         250      30.6204     0.999798   0.00114916 -4.69136e-05 
         250      30.7903     0.999799   0.00114924 -4.66894e-05 
         250      30.9606       0.9998   0.00114932 -4.64689e-05 
         250      31.1315     0.999801   0.00114939 -4.62522e-05 
         250      31.3028     0.999802   0.00114944 -4.60391e-05 
         250      31.4745     0.999803   0.00114948 -4.58294e-05 
         250      31.6468     0.999804    0.0011495 -4.56217e-05 
         250      31.8194     0.999806   0.00114951 -4.54148e-05 
         250      31.9926     0.999807   0.00114952 -4.52067e-05 
         250      32.1662     0.999808   0.00114952 -4.49956e-05 
         250      32.3404     0.999808   0.00114953 -4.47787e-05 
         250      32.5149     0.999809   0.00114955  -4.4554e-05 
         250        32.69     0.999809    0.0011496 -4.43189e-05 
         250      32.8655      0.99981   0.00114968 -4.40718e-05 
         250      33.0414      0.99981   0.00114979 -4.38119e-05 
         250       33.218     0.999811   0.00114992 -4.35389e-05 
         250      33.3948     0.999812      0.00115  -4.3268e-05 
         250      33.5723     0.999812   0.00115011 -4.29996e-05 
         250        33.75     0.999813   0.00115025 -4.27356e-05 
         250      33.9284     0.999815   0.00115041 -4.24836e-05 
         250      34.1073     0.999816   0.00115052 -4.22558e-05 
         250      34.2865     0.999816   0.00115045 -4.20687e-05 
         250      34.4663     0.999814      0.00115 -4.19466e-05 
         250      34.6465     0.999817   0.00114897 -4.20398e-05 
         250      34.8272      0.99982   0.00114943 -4.17627e-05 
         250      35.0083     0.999821    0.0011503 -4.13505e-05 
         250        35.19     0.999822   0.00115081   -4.102e-05 
         250      35.3721     0.999822   0.00115103 -4.07454e-05 
         250      35.5546     0.999823   0.00115106  -4.0506e-05 
         250      35.7377     0.999823   0.00115096 -4.02857e-05 
         250      35.9211     0.999824    0.0011508 -4.00734e-05 
         250      36.1052     0.999825   0.00115063 -3.98606e-05 
         250      36.2895     0.999826   0.00115048 -3.96421e-05 
         250      36.4745     0.999828   0.00115039 -3.94131e-05 
         250      36.6598     0.999828   0.00115028 -3.91583e-05 
         250      36.8457     0.999829   0.00115026 -3.88979e-05 
         250      37.0321      0.99983    0.0011503 -3.86329e-05 
         250      37.2188      0.99983   0.00115041 -3.83648e-05 
         250      37.4062     0.999831   0.00115055 -3.80949e-05 
         250      37.5938     0.999832   0.00115072 -3.78254e-05 
         250      37.7821     0.999833   0.00115088 -3.75575e-05 
         250      37.9707     0.999833   0.00115104 -3.72932e-05 
         250      38.1599     0.999834   0.00115116 -3.70331e-05 
         250      38.3496     0.999834   0.00115125 -3.67778e-05 
         250      38.5396     0.999835   0.00115131 -3.65276e-05 
         250      38.7302     0.999836   0.00115132 -3.62816e-05 
         250      38.9211     0.999836   0.00115129 -3.60395e-05 
         250      39.1127     0.999837   0.00115122 -3.57994e-05 
         250      39.3046     0.999838   0.00115114 -3.55604e-05 
         250      39.4971     0.999839   0.00115104 -3.53204e-05 
         250      39.6899      0.99984   0.00115093 -3.50782e-05 
         250      39.8833     0.999841   0.00115084 -3.48319e-05 
         250      40.0772     0.999842   0.00115077 -3.45805e-05 
         250      40.2714     0.999843   0.00115073 -3.43235e-05 
         250      40.4663     0.999844   0.00115073 -3.40602e-05 
         250      40.6615     0.999846   0.00115078 -3.37913e-05 
         250      40.8573     0.999847   0.00115087 -3.35175e-05 
         250      41.0534     0.999848     0.001151 -3.32406e-05 
         250      41.2501     0.999849   0.00115117 -3.29626e-05 
         250      41.4473      0.99985   0.00115137 -3.26862e-05 
         250      41.6448     0.999851   0.00115157 -3.24144e-05 
         250      41.8429     0.999851   0.00115177 -3.21497e-05 
         250      42.0414     0.999852   0.00115193 -3.18945e-05 
         250      42.2405     0.999853   0.00115206 -3.16498e-05 
         250      42.4399     0.999853   0.00115211 -3.14153e-05 
         250      42.6399     0.999854   0.00115209 -3.11875e-05 
         250      42.8404     0.999855     0.001152 -3.09599e-05 
         250      43.0412     0.999856   0.00115183 -3.07212e-05 
         250      43.2426     0.999857   0.00115162 -3.04535e-05 
         250      43.4444     0.999859   0.00115143 -3.01317e-05 
         250      43.6467      0.99986   0.00115134 -2.97204e-05 
         250      43.8494     0.999862   0.00115148 -2.91734e-05 
         250      44.0527     0.999862   0.00115201  -2.8429e-05 
         250      44.2563     0.999862   0.00115248 -2.80712e-05 
         250      44.4606     0.999863   0.00115217 -2.83562e-05 
         250      44.6653     0.999864   0.00115187  -2.8453e-05 
         250      44.8704     0.999865   0.00115163 -2.84224e-05 
         250       45.076     0.999867   0.00115148 -2.83161e-05 
         250       45.282     0.999869   0.00115138 -2.81773e-05 
         250      45.4886     0.999869    0.0011514 -2.75725e-05 
         250      45.6955      0.99987   0.00115163 -2.69878e-05 
         250       45.903      0.99987   0.00115193 -2.65086e-05 
         250      46.1111      0.99987   0.00115223 -2.61125e-05 
         250      46.3194     0.999871   0.00115247 -2.57801e-05 
         250      46.5283     0.999871   0.00115263  -2.5494e-05 
         250      46.7376     0.999872    0.0011527 -2.52408e-05 
         250      46.9475     0.999873    0.0011527 -2.50085e-05 
         250      47.1577     0.999874   0.00115263 -2.47881e-05 
         250      47.3685     0.999876   0.00115253 -2.45717e-05 
         250      47.5798     0.999877   0.00115241 -2.43538e-05 
         250      47.7914     0.999878   0.00115228 -2.41304e-05 
         250      48.0037     0.999879   0.00115217 -2.38981e-05 