Variables = x, y, u, v, p

Zone, I=800, F=POINT
           0            0   2.8776e-18 -1.66722e-18  -0.00318298 
           0     0.000234  0.000312864 -0.000108079  -0.00314308 
           0     0.000939   0.00119824 -0.000396624  -0.00303403 
           0     0.002113   0.00250695 -0.000770662  -0.00288575 
           0     0.003759   0.00406927  -0.00112269  -0.00273547 
           0     0.005872   0.00575344  -0.00137711  -0.00261602 
           0     0.008457   0.00752755  -0.00152215  -0.00254347 
           0      0.01151   0.00944114  -0.00160156  -0.00251409 
           0     0.015036    0.0115905  -0.00167961  -0.00250802 
           0     0.019031     0.014042  -0.00179405  -0.00250074 
           0     0.023493     0.016798   -0.0019299  -0.00247648 
           0     0.028429    0.0198125  -0.00203363  -0.00243665 
           0     0.033831    0.0230362  -0.00206133  -0.00239792 
           0     0.039706    0.0264934  -0.00202585  -0.00237834 
           0     0.046047    0.0302586  -0.00199164  -0.00237964 
           0     0.052863    0.0343835  -0.00200125  -0.00238025 
           0      0.06015    0.0387908  -0.00200044  -0.00235556 
           0       0.0679    0.0433822   -0.0019057  -0.00232152 
           0     0.076126    0.0483343  -0.00183068  -0.00233515 
           0     0.084816    0.0535583  -0.00178214   -0.0023026 
           0     0.093982    0.0590946  -0.00170663  -0.00230524 
           0     0.103611    0.0648926  -0.00163813  -0.00229612 
           0     0.113718    0.0709705  -0.00156928  -0.00228422 
           0     0.124286     0.077321  -0.00150042  -0.00227377 
           0     0.135333    0.0839531   -0.0014346  -0.00226546 
           0      0.14685    0.0908575  -0.00137443   -0.0022581 
           0     0.158827    0.0980242  -0.00132016  -0.00225028 
           0     0.171284     0.105463  -0.00127013  -0.00224162 
           0     0.184201      0.11316  -0.00122302  -0.00223298 
           0     0.197599     0.121129  -0.00117912  -0.00222562 
           0     0.211455     0.129355  -0.00114014   -0.0022196 
           0     0.225792     0.137846  -0.00110575   -0.0022129 
           0       0.2406     0.146594  -0.00107234   -0.0022046 
           0     0.255865     0.155595  -0.00104288   -0.0021991 
           0     0.271613     0.164856   -0.0010161  -0.00219301 
           0     0.287818     0.174364 -0.000991834  -0.00218701 
           0     0.304506      0.18413 -0.000969865  -0.00218121 
           0      0.32165     0.194138 -0.000950112   -0.0021756 
           0     0.339278     0.204401 -0.000932403  -0.00217014 
           0     0.357377     0.214911 -0.000916613  -0.00216485 
           0      0.37593     0.225654 -0.000902619  -0.00215971 
           0     0.394968     0.236646 -0.000890273   -0.0021547 
           0     0.414461     0.247869  -0.00087947  -0.00214982 
           0      0.43444     0.259336 -0.000870078  -0.00214505 
           0     0.454872     0.271026 -0.000861997  -0.00214039 
           0     0.475791     0.282956 -0.000855106  -0.00213582 
           0     0.497163     0.295102 -0.000849311  -0.00213133 
           0     0.519021      0.30748   -0.0008445  -0.00212693 
           0      0.54135     0.320076 -0.000840579  -0.00212258 
           0     0.564131     0.332876 -0.000837457   -0.0021183 
           0       0.5874     0.345894 -0.000835036  -0.00211406 
           0     0.611121     0.359106 -0.000833231  -0.00210987 
           0      0.63533     0.372524 -0.000831955   -0.0021057 
           0      0.65999     0.386121 -0.000831125  -0.00210155 
           0     0.685139     0.399912  -0.00083066  -0.00209741 
           0     0.710759     0.413878 -0.000830486  -0.00209328 
           0     0.736828     0.427998 -0.000830528  -0.00208915 
           0     0.763387     0.442286 -0.000830714    -0.002085 
           0     0.790396     0.456709 -0.000830976  -0.00208083 
           0     0.817896     0.471277 -0.000831245  -0.00207662 
           0     0.845843     0.485957 -0.000831462  -0.00207239 
           0     0.874283     0.500758  -0.00083157   -0.0020681 
           0      0.90317     0.515644 -0.000831503  -0.00206377 
           0     0.932551     0.530623 -0.000831224  -0.00205937 
           0     0.962401     0.545668 -0.000830663   -0.0020549 
           0     0.992697     0.560749 -0.000829778  -0.00205036 
           0      1.02349     0.575875 -0.000828528  -0.00204573 
           0      1.05472     0.591002 -0.000826877  -0.00204101 
           0      1.08645     0.606135 -0.000824786   -0.0020362 
           0      1.11863      0.62123 -0.000822223  -0.00203128 
           0       1.1513     0.636291 -0.000819151  -0.00202625 
           0      1.18444     0.651283 -0.000815547  -0.00202111 
           0      1.21802     0.666172 -0.000811399  -0.00201584 
           0      1.25211     0.680961 -0.000806677  -0.00201044 
           0      1.28663       0.6956 -0.000801391  -0.00200492 
           0      1.32165     0.710092 -0.000795521  -0.00199926 
           0      1.35712     0.724387 -0.000789075  -0.00199346 
           0      1.39308     0.738486 -0.000782041  -0.00198751 
           0      1.42951     0.752352  -0.00077443  -0.00198141 
           0      1.46638     0.765952 -0.000766268  -0.00197516 
           0      1.50375     0.779284 -0.000757578  -0.00196877 
           0      1.54156     0.792304 -0.000748352  -0.00196221 
           0      1.57987      0.80501 -0.000738644   -0.0019555 
           0      1.61863     0.817361 -0.000728493  -0.00194865 
           0      1.65788     0.829357 -0.000717915  -0.00194163 
           0      1.69757     0.840959 -0.000706966  -0.00193446 
           0      1.73776      0.85217  -0.00069567  -0.00192712 
           0      1.77842     0.862964 -0.000684083  -0.00191964 
           0      1.81952     0.873319 -0.000672267  -0.00191201 
           0      1.86113      0.88324 -0.000660261  -0.00190423 
           0      1.90316     0.892701 -0.000648142  -0.00189632 
           0      1.94571     0.901711 -0.000635946  -0.00188827 
           0      1.98869     0.910248 -0.000623736  -0.00188008 
           0      2.03217     0.918325 -0.000611549  -0.00187176 
           0      2.07612     0.925933 -0.000599441  -0.00186331 
           0      2.12051      0.93307 -0.000587467  -0.00185474 
           0       2.1654      0.93975  -0.00057567  -0.00184604 
           0      2.21073     0.945969 -0.000564121  -0.00183725 
           0      2.25656     0.951747 -0.000552843  -0.00182835 
           0      2.30283     0.957085 -0.000541891  -0.00181936 
           0       2.3496     0.962004 -0.000531278  -0.00181028 
           0      2.39685     0.966514 -0.000521027  -0.00180111 
           0      2.44452     0.970628 -0.000511177  -0.00179186 
           0      2.49271     0.974371 -0.000501779  -0.00178254 
           0      2.54132     0.977756 -0.000492807  -0.00177315 
           0      2.59044     0.980807 -0.000484267  -0.00176368 
           0         2.64     0.983539 -0.000476183  -0.00175417 
           0      2.69006     0.985979 -0.000468545  -0.00174461 
           0      2.74056     0.988143 -0.000461363    -0.001735 
           0      2.79156     0.990056 -0.000454617  -0.00172535 
           0      2.84304     0.991736 -0.000448301  -0.00171566 
           0      2.89494     0.993203 -0.000442399  -0.00170593 
           0      2.94735     0.994479 -0.000436875  -0.00169617 
           0       3.0002     0.995581 -0.000431713  -0.00168638 
           0      3.05355     0.996529 -0.000426898  -0.00167655 
           0      3.10733     0.997337 -0.000422392  -0.00166671 
           0      3.16163     0.998024 -0.000418186  -0.00165685 
           0      3.21639     0.998603 -0.000414261  -0.00164697 
           0      3.27158     0.999088 -0.000410592  -0.00163708 
           0      3.32729     0.999491 -0.000407143  -0.00162718 
           0      3.38342     0.999823 -0.000403895  -0.00161727 
           0      3.44007       1.0001 -0.000400816  -0.00160733 
           0      3.49714      1.00032 -0.000397892  -0.00159739 
           0      3.55472       1.0005 -0.000395102  -0.00158744 
           0      3.61273      1.00064 -0.000392444  -0.00157748 
           0      3.67125      1.00075 -0.000389893  -0.00156752 
           0      3.73025      1.00084 -0.000387403  -0.00155754 
           0      3.78967      1.00091 -0.000385001  -0.00154757 
           0      3.84961      1.00096 -0.000382651  -0.00153759 
           0      3.90996        1.001 -0.000380343  -0.00152761 
           0      3.97084      1.00102 -0.000378067  -0.00151761 
           0      4.03214      1.00104 -0.000375826  -0.00150762 
           0      4.09395      1.00105 -0.000373614  -0.00149761 
           0      4.15624      1.00106 -0.000371428   -0.0014876 
           0      4.21895      1.00106 -0.000369255   -0.0014776 
           0      4.28217      1.00106 -0.000367076   -0.0014676 
           0      4.34582      1.00106 -0.000364884  -0.00145761 
           0      4.40998      1.00105 -0.000362702  -0.00144761 
           0      4.47457      1.00105 -0.000360586  -0.00143761 
           0      4.53968      1.00104 -0.000358366  -0.00142761 
           0      4.60525      1.00103 -0.000356194  -0.00141759 
           0      4.67125      1.00102 -0.000354008  -0.00140758 
           0      4.73777      1.00101 -0.000351787  -0.00139757 
           0       4.8047      1.00101 -0.000349542  -0.00138756 
           0      4.87216        1.001  -0.00034729  -0.00137756 
           0      4.94003      1.00099 -0.000345049  -0.00136758 
           0      5.00843      1.00098 -0.000342807   -0.0013576 
           0      5.07724      1.00097 -0.000340515  -0.00134761 
           0      5.14658      1.00096 -0.000338219  -0.00133762 
           0      5.21639      1.00095 -0.000335948  -0.00132765 
           0      5.28661      1.00094 -0.000333616  -0.00131767 
           0      5.35736      1.00093 -0.000331254  -0.00130769 
           0      5.42852      1.00092 -0.000328873  -0.00129772 
           0      5.50021      1.00091 -0.000326472  -0.00128777 
           0      5.57231       1.0009 -0.000324056  -0.00127783 
           0      5.64493      1.00089 -0.000321624  -0.00126789 
           0      5.71803      1.00088  -0.00031918  -0.00125796 
           0      5.79154      1.00087 -0.000316725  -0.00124804 
           0      5.86558      1.00086 -0.000314242  -0.00123811 
           0      5.94003      1.00085 -0.000311718   -0.0012282 
           0      6.01501      1.00084 -0.000309136   -0.0012183 
           0       6.0904      1.00083 -0.000306534  -0.00120841 
           0      6.16632      1.00082 -0.000304038  -0.00119851 
           0      6.24271      1.00081 -0.000301315  -0.00118865 
           0       6.3195      1.00081 -0.000298678   -0.0011788 
           0      6.39683       1.0008 -0.000296047  -0.00116896 
           0      6.47457      1.00079 -0.000293377  -0.00115913 
           0      6.55284      1.00078 -0.000290653  -0.00114931 
           0      6.63152      1.00077 -0.000287886  -0.00113951 
           0      6.71073      1.00076 -0.000285086  -0.00112972 
           0      6.79034      1.00075 -0.000282271  -0.00111995 
           0      6.87049      1.00074 -0.000279443  -0.00111018 
           0      6.95111      1.00073 -0.000276609  -0.00110043 
           0      7.03214      1.00072 -0.000273747  -0.00109071 
           0       7.1137      1.00071 -0.000270859  -0.00108099 
           0      7.19566       1.0007 -0.000267932  -0.00107131 
           0      7.27816      1.00069 -0.000264947  -0.00106164 
           0      7.36106      1.00068  -0.00026192  -0.00105199 
           0      7.44451      1.00067 -0.000258865  -0.00104235 
           0      7.52842      1.00066 -0.000255801  -0.00103272 
           0      7.61273      1.00066 -0.000252736  -0.00102311 
           0      7.69758      1.00065 -0.000249651  -0.00101352 
           0      7.78283      1.00064 -0.000246523  -0.00100396 
           0      7.86862      1.00063  -0.00024332 -0.000994417 
           0      7.95481      1.00062 -0.000240054 -0.000984907 
           0      8.04155      1.00061 -0.000236822 -0.000975398 
           0      8.12868       1.0006 -0.000233584 -0.000965909 
           0      8.21635      1.00059 -0.000230213 -0.000956459 
           0      8.30449      1.00058 -0.000226931 -0.000947034 
           0      8.39303      1.00057 -0.000223648 -0.000937646 
           0      8.48211      1.00057 -0.000220316 -0.000928276 
           0      8.57159      1.00056 -0.000216929 -0.000918934 
           0      8.66161      1.00055  -0.00021348 -0.000909598 
           0      8.75203      1.00054 -0.000209981 -0.000900279 
           0      8.84299      1.00053 -0.000206435 -0.000890965 
           0      8.93443      1.00052 -0.000202858 -0.000881673 
           0      9.02626      1.00051 -0.000199272 -0.000872424 
           0      9.11863       1.0005 -0.000195692 -0.000863218 
           0      9.21139      1.00049 -0.000192137 -0.000854077 
           0      9.30471      1.00049  -0.00018858 -0.000844973 
           0      9.39841      1.00048 -0.000184924 -0.000835869 
           0      9.49267      1.00047  -0.00018091 -0.000826637 
           0      9.58739      1.00046 -0.000177384 -0.000817677 
           0      9.68251      1.00045 -0.000173719 -0.000808674 
           0      9.77817      1.00044 -0.000169848 -0.000799609 
           0      9.87422      1.00043 -0.000165926  -0.00079058 
           0      9.97083      1.00043 -0.000162016 -0.000781611 
           0      10.0678      1.00042 -0.000158138 -0.000772724 
           0      10.1654      1.00041 -0.000154269  -0.00076389 
           0      10.2633       1.0004 -0.000150386 -0.000755103 
           0      10.3618      1.00039 -0.000146458 -0.000746325 
           0      10.4607      1.00038  -0.00014248 -0.000737544 
           0      10.5601      1.00038 -0.000138457  -0.00072876 
           0        10.66      1.00037 -0.000134388 -0.000719966 
           0      10.7603      1.00036  -0.00013027 -0.000711197 
           0      10.8611      1.00035 -0.000126031 -0.000702479 
           0      10.9623      1.00034 -0.000121641 -0.000693852 
           0      11.0641      1.00033 -0.000117675 -0.000685186 
           0      11.1663      1.00033 -0.000113506 -0.000676624 
           0       11.269      1.00032 -0.000109267 -0.000668144 
           0      11.3721      1.00031  -0.00010501 -0.000659711 
           0      11.4757       1.0003  -0.00010076 -0.000651323 
           0      11.5798      1.00029 -9.64984e-05 -0.000642954 
           0      11.6844      1.00029  -9.2214e-05 -0.000634607 
           0      11.7894      1.00028 -8.78827e-05 -0.000626262 
           0       11.895      1.00027 -8.35006e-05 -0.000617928 
           0      12.0009      1.00026 -7.90785e-05 -0.000609629 
           0      12.1073      1.00026 -7.46332e-05 -0.000601401 
           0      12.2142      1.00025 -7.01914e-05 -0.000593305 
           0      12.3216      1.00024 -6.56017e-05 -0.000585045 
           0      12.4294      1.00023 -6.10272e-05 -0.000576911 
           0      12.5378      1.00023 -5.64686e-05 -0.000568846 
           0      12.6465      1.00022 -5.19297e-05 -0.000560833 
           0      12.7558      1.00021 -4.73901e-05 -0.000552843 
           0      12.8656       1.0002 -4.28338e-05 -0.000544875 
           0      12.9757       1.0002 -3.82447e-05 -0.000536936 
           0      13.0864      1.00019 -3.36012e-05 -0.000529016 
           0      13.1975      1.00018 -2.89053e-05 -0.000521135 
           0      13.3092      1.00017 -2.41553e-05 -0.000513288 
           0      13.4212      1.00017 -1.93743e-05 -0.000505496 
           0      13.5338      1.00016 -1.45756e-05 -0.000497755 
           0      13.6468      1.00015 -9.78326e-06 -0.000490077 
           0      13.7603      1.00015 -5.01322e-06  -0.00048247 
           0      13.8743      1.00014 -2.56076e-07 -0.000474918 
           0      13.9886      1.00013  4.49783e-06 -0.000467416 
           0      14.1036      1.00012   9.2818e-06 -0.000459921 
           0      14.2189      1.00012  1.40944e-05 -0.000452459 
           0      14.3348      1.00011  1.89834e-05 -0.000445064 
           0       14.451       1.0001  2.39358e-05 -0.000437657 
           0      14.5678       1.0001  2.89295e-05  -0.00043025 
           0      14.6851      1.00009  3.39442e-05 -0.000422869 
           0      14.8028      1.00008  3.89632e-05 -0.000415538 
           0       14.921      1.00008  4.39836e-05 -0.000408261 
           0      15.0396      1.00007  4.89905e-05 -0.000401066 
           0      15.1588      1.00006  5.39944e-05 -0.000393948 
           0      15.2783      1.00006  5.90037e-05 -0.000386919 
           0      15.3984      1.00005   6.4057e-05 -0.000379948 
           0       15.519      1.00004  6.91879e-05 -0.000372995 
           0        15.64      1.00004  7.44174e-05 -0.000365983 
           0      15.7615      1.00003  7.95134e-05 -0.000359039 
           0      15.8834      1.00003  8.45021e-05 -0.000352236 
           0      16.0058      1.00002  8.95963e-05 -0.000345384 
           0      16.1286      1.00001   9.4744e-05  -0.00033855 
           0       16.252      1.00001  9.99308e-05 -0.000331757 
           0      16.3759            1  0.000105142 -0.000325023 
           0      16.5002     0.999995  0.000110367 -0.000318359 
           0       16.625     0.999989  0.000115609 -0.000311747 
           0      16.7501     0.999983  0.000120854  -0.00030519 
           0      16.8759     0.999977  0.000126102  -0.00029867 
           0       17.002     0.999972  0.000131338  -0.00029219 
           0      17.1287     0.999966  0.000136567 -0.000285734 
           0      17.2557     0.999961  0.000141786 -0.000279314 
           0      17.3834     0.999955  0.000147018 -0.000272921 
           0      17.5115      0.99995  0.000152285 -0.000266566 
           0      17.6399     0.999944  0.000157612  -0.00026026 
           0       17.769     0.999939  0.000163026 -0.000253997 
           0      17.8984     0.999933  0.000168504 -0.000247786 
           0      18.0284     0.999927  0.000173959 -0.000241609 
           0      18.1587     0.999921  0.000179149 -0.000235458 
           0      18.2896     0.999916  0.000184811 -0.000229416 
           0       18.421     0.999911  0.000190193 -0.000223438 
           0      18.5528     0.999906  0.000195406 -0.000217523 
           0      18.6851       0.9999  0.000200617 -0.000211663 
           0      18.8178     0.999895  0.000205892 -0.000205855 
           0      18.9511      0.99989   0.00021127 -0.000200075 
           0      19.0847     0.999885  0.000216748 -0.000194316 
           0      19.2189     0.999881  0.000222312 -0.000188561 
           0      19.3535     0.999876  0.000227902 -0.000182823 
           0      19.4886     0.999871  0.000233436 -0.000177121 
           0      19.6242     0.999866  0.000238795 -0.000171522 
           0      19.7602     0.999858  0.000243876 -0.000166135 
           0      19.8968     0.999854  0.000249564 -0.000160481 
           0      20.0337      0.99985   0.00025505 -0.000154985 
           0      20.1712     0.999846  0.000260425 -0.000149608 
           0      20.3091     0.999842   0.00026579 -0.000144305 
           0      20.4475     0.999837   0.00027121 -0.000139034 
           0      20.5864     0.999833    0.0002767 -0.000133786 
           0      20.7257     0.999828  0.000282247 -0.000128561 
           0      20.8655     0.999823  0.000287838 -0.000123356 
           0      21.0058     0.999819  0.000293432 -0.000118186 
           0      21.1465     0.999814  0.000299011 -0.000113051 
           0      21.2877      0.99981  0.000304546 -0.000107969 
           0      21.4294     0.999806  0.000310034 -0.000102935 
           0      21.5716     0.999801  0.000315475 -9.79573e-05 
           0      21.7142     0.999798  0.000320877 -9.30377e-05 
           0      21.8573     0.999794  0.000326273 -8.81651e-05 
           0      22.0008      0.99979  0.000331681 -8.33417e-05 
           0      22.1449     0.999786  0.000337136 -7.85534e-05 
           0      22.2893     0.999783  0.000342646 -7.38018e-05 
           0      22.4344     0.999779   0.00034822 -6.90752e-05 
           0      22.5797     0.999775  0.000353831 -6.43799e-05 
           0      22.7257     0.999771  0.000359438 -5.97115e-05 
           0      22.8721     0.999766  0.000364962 -5.50817e-05 
           0      23.0189     0.999762  0.000370444 -5.05169e-05 
           0      23.1663     0.999758  0.000375979 -4.60271e-05 
           0       23.314     0.999755  0.000381373 -4.16119e-05 
           0      23.4623     0.999751  0.000386659 -3.72547e-05 
           0       23.611     0.999749  0.000391934 -3.29257e-05 
           0      23.7602     0.999746  0.000397437 -2.85383e-05 
           0        23.91     0.999742  0.000403587 -2.39528e-05 
           0        24.06      0.99974  0.000408956 -1.99009e-05 
           0      24.2107     0.999736  0.000413944 -1.59298e-05 
           0      24.3617     0.999732  0.000418891 -1.17843e-05 
           0      24.5133     0.999729   0.00042479 -7.56796e-06 
           0      24.6653     0.999725  0.000430815 -3.43403e-06 
           0      24.8178     0.999722  0.000436305  6.28821e-07 
           0      24.9708     0.999718  0.000441559  4.63969e-06 
           0      25.1242     0.999715  0.000446763  8.60732e-06 
           0      25.2781     0.999712  0.000452023  1.25428e-05 
           0      25.4324      0.99971  0.000457368  1.64398e-05 
           0      25.5873     0.999707  0.000462802  2.03019e-05 
           0      25.7426     0.999704  0.000468289  2.41196e-05 
           0      25.8984     0.999701    0.0004738  2.78956e-05 
           0      26.0546     0.999698   0.00047929  3.16218e-05 
           0      26.2114     0.999695  0.000484739  3.53035e-05 
           0      26.3686     0.999692   0.00049013  3.89385e-05 
           0      26.5262     0.999689  0.000495458  4.25261e-05 
           0      26.6844     0.999686  0.000500743  4.60753e-05 
           0      26.8429     0.999683  0.000506001  4.95841e-05 
           0       27.002     0.999681  0.000511264  5.30617e-05 
           0      27.1615     0.999679  0.000516551  5.65051e-05 
           0      27.3216     0.999676  0.000521887  5.99212e-05 
           0      27.4821     0.999674  0.000527272  6.33068e-05 
           0       27.643     0.999671  0.000532689  6.66569e-05 
           0      27.8044     0.999669  0.000538118  6.99728e-05 
           0      27.9663     0.999666  0.000543506  7.32443e-05 
           0      28.1287     0.999664  0.000548813  7.64718e-05 
           0      28.2914     0.999661  0.000553996  7.96477e-05 
           0      28.4548     0.999659  0.000559064  8.27795e-05 
           0      28.6185     0.999657  0.000564087  8.58737e-05 
           0      28.7828     0.999655  0.000569276  8.89604e-05 
           0      28.9475     0.999653  0.000575022  9.20824e-05 
           0      29.1126     0.999652  0.000579952  9.50702e-05 
           0      29.2784     0.999651  0.000585018  9.80532e-05 
           0      29.4444     0.999649  0.000590328  0.000101044 
           0       29.611     0.999646  0.000595568   0.00010398 
           0       29.778     0.999643  0.000600718  0.000106792 
           0      29.9456     0.999641   0.00060601   0.00010941 
           0      30.1137      0.99964  0.000610903   0.00011226 
           0      30.2821     0.999638  0.000615795  0.000115139 
           0      30.4511     0.999636  0.000620883  0.000117926 
           0      30.6204     0.999633  0.000626076  0.000120643 
           0      30.7903     0.999631  0.000631313  0.000123313 
           0      30.9606     0.999629  0.000636531  0.000125943 
           0      31.1315     0.999628  0.000641703  0.000128544 
           0      31.3028     0.999627  0.000646803  0.000131115 
           0      31.4745     0.999626   0.00065182  0.000133656 
           0      31.6468     0.999625  0.000656768  0.000136169 
           0      31.8194     0.999624  0.000661652  0.000138648 
           0      31.9926     0.999623  0.000666501  0.000141096 
           0      32.1662     0.999622  0.000671327  0.000143507 
           0      32.3404     0.999621  0.000676159  0.000145884 
           0      32.5149     0.999619  0.000681005  0.000148225 
           0        32.69     0.999617  0.000685885  0.000150534 
           0      32.8655     0.999616  0.000690799   0.00015281 
           0      33.0414     0.999614   0.00069574  0.000155053 
           0       33.218     0.999612  0.000700705  0.000157271 
           0      33.3948     0.999611  0.000705672   0.00015946 
           0      33.5723      0.99961  0.000710628  0.000161627 
           0        33.75     0.999608  0.000715545  0.000163769 
           0      33.9284     0.999607  0.000720412  0.000165888 
           0      34.1073     0.999607  0.000725212  0.000167983 
           0      34.2865     0.999606  0.000729935  0.000170048 
           0      34.4663     0.999605  0.000734592  0.000172086 
           0      34.6465     0.999605  0.000739193  0.000174088 
           0      34.8272     0.999604   0.00074377  0.000176056 
           0      35.0083     0.999604  0.000748347  0.000177985 
           0        35.19     0.999603  0.000752965   0.00017988 
           0      35.3721     0.999602   0.00075764  0.000181746 
           0      35.5546     0.999601  0.000762359  0.000183595 
           0      35.7377     0.999599  0.000767067  0.000185456 
           0      35.9211     0.999598   0.00077161  0.000187363 
           0      36.1052     0.999596  0.000775869  0.000189312 
           0      36.2895     0.999596  0.000780971  0.000190783 
           0      36.4745     0.999595  0.000785776  0.000192334 
           0      36.6598     0.999595  0.000790331  0.000193929 
           0      36.8457     0.999595   0.00079457  0.000195537 
           0      37.0321     0.999596   0.00079901  0.000197335 
           0      37.2188     0.999596  0.000803724  0.000199141 
           0      37.4062     0.999596  0.000808382  0.000200842 
           0      37.5938     0.999595  0.000812919  0.000202437 
           0      37.7821     0.999594  0.000817307  0.000203932 
           0      37.9707     0.999593  0.000821519  0.000205323 
           0      38.1599     0.999591  0.000825671  0.000206664 
           0      38.3496     0.999591  0.000830372  0.000208381 
           0      38.5396      0.99959  0.000834657   0.00021001 
           0      38.7302      0.99959  0.000838752  0.000211559 
           0      38.9211     0.999589  0.000842803  0.000213034 
           0      39.1127     0.999589  0.000846906  0.000214449 
           0      39.3046     0.999589    0.0008511  0.000215812 
           0      39.4971     0.999589    0.0008554  0.000217138 
           0      39.6899     0.999589  0.000859779  0.000218434 
           0      39.8833     0.999589   0.00086421  0.000219712 
           0      40.0772     0.999589  0.000868646  0.000220976 
           0      40.2714      0.99959   0.00087304   0.00022223 
           0      40.4663      0.99959  0.000877364  0.000223479 
           0      40.6615      0.99959  0.000881584  0.000224721 
           0      40.8573      0.99959  0.000885696  0.000225955 
           0      41.0534      0.99959  0.000889696  0.000227178 
           0      41.2501     0.999589  0.000893606  0.000228388 
           0      41.4473     0.999589  0.000897452  0.000229578 
           0      41.6448     0.999589  0.000901266  0.000230744 
           0      41.8429     0.999589  0.000905093  0.000231884 
           0      42.0414     0.999588  0.000908962  0.000232994 
           0      42.2405     0.999588  0.000912905  0.000234074 
           0      42.4399     0.999588  0.000916929  0.000235123 
           0      42.6399     0.999588  0.000921033  0.000236145 
           0      42.8404     0.999589  0.000925187  0.000237144 
           0      43.0412     0.999589   0.00092934  0.000238124 
           0      43.2426      0.99959  0.000933435  0.000239094 
           0      43.4444     0.999591  0.000937398  0.000240059 
           0      43.6467     0.999592  0.000941182  0.000241024 
           0      43.8494     0.999593  0.000944766  0.000241991 
           0      44.0527     0.999594  0.000948219  0.000242958 
           0      44.2563     0.999594  0.000951726  0.000243911 
           0      44.4606     0.999594  0.000955674  0.000244827 
           0      44.6653     0.999593  0.000960719  0.000245666 
           0      44.8704     0.999593  0.000963896  0.000246557 
           0       45.076     0.999593  0.000966816  0.000247457 
           0       45.282     0.999593  0.000970401  0.000248314 
           0      45.4886     0.999593  0.000974306  0.000249141 
           0      45.6955     0.999594  0.000978289  0.000249941 
           0       45.903     0.999594  0.000982215  0.000250724 
           0      46.1111     0.999595  0.000986008  0.000251492 
           0      46.3194     0.999595  0.000989645  0.000252249 
           0      46.5283     0.999595  0.000993146  0.000252998 
           0      46.7376     0.999596  0.000996538   0.00025374 
           0      46.9475     0.999596  0.000999872  0.000254477 
           0      47.1577     0.999596   0.00100318  0.000255208 
           0      47.3685     0.999597   0.00100652  0.000255933 
           0      47.5798     0.999597    0.0010099  0.000256649 
           0      47.7914     0.999597   0.00101333  0.000257354 
           0      48.0037     0.999598   0.00101683  0.000258046 