Variables = x, y, u, v, p

Zone, I=800, F=POINT
        1000            0           -0           -0 -3.04493e-05 
        1000     0.000234  6.71822e-05  1.00269e-10 -3.04493e-05 
        1000     0.000939   0.00026959  4.35298e-10 -3.04492e-05 
        1000     0.002113  0.000606649  1.10303e-09 -3.04491e-05 
        1000     0.003759   0.00107922  2.27052e-09 -3.04489e-05 
        1000     0.005872   0.00168587  4.16563e-09 -3.04487e-05 
        1000     0.008457   0.00242803  7.09126e-09 -3.04485e-05 
        1000      0.01151   0.00330455  1.14092e-08 -3.04482e-05 
        1000     0.015036   0.00431687  1.75617e-08 -3.04478e-05 
        1000     0.019031   0.00546385  2.60472e-08 -3.04474e-05 
        1000     0.023493   0.00674489  3.74332e-08  -3.0447e-05 
        1000     0.028429   0.00816202  5.23837e-08 -3.04465e-05 
        1000     0.033831   0.00971293  7.15918e-08 -3.04459e-05 
        1000     0.039706    0.0113996  9.58724e-08 -3.04453e-05 
        1000     0.046047    0.0132201  1.26061e-07 -3.04446e-05 
        1000     0.052863     0.015177  1.63142e-07 -3.04439e-05 
        1000      0.06015     0.017269   2.0812e-07 -3.04432e-05 
        1000       0.0679     0.019494  2.62036e-07 -3.04424e-05 
        1000     0.076126    0.0218557  3.26154e-07 -3.04415e-05 
        1000     0.084816    0.0243505  4.01643e-07 -3.04406e-05 
        1000     0.093982     0.026982  4.89941e-07 -3.04396e-05 
        1000     0.103611    0.0297463  5.92353e-07 -3.04386e-05 
        1000     0.113718    0.0326479  7.10553e-07 -3.04375e-05 
        1000     0.124286    0.0356818  8.45934e-07 -3.04364e-05 
        1000     0.135333    0.0388531  1.00041e-06 -3.04352e-05 
        1000      0.14685    0.0421594  1.17563e-06  -3.0434e-05 
        1000     0.158827    0.0455976  1.37329e-06 -3.04327e-05 
        1000     0.171284    0.0491735  1.59567e-06 -3.04313e-05 
        1000     0.184201    0.0528814  1.84442e-06 -3.04299e-05 
        1000     0.197599    0.0567273  2.12202e-06 -3.04284e-05 
        1000     0.211455    0.0607045  2.43016e-06 -3.04269e-05 
        1000     0.225792    0.0648196  2.77158e-06 -3.04253e-05 
        1000       0.2406    0.0690697  3.14834e-06 -3.04237e-05 
        1000     0.255865    0.0734508  3.56226e-06  -3.0422e-05 
        1000     0.271613    0.0779702  4.01654e-06 -3.04202e-05 
        1000     0.287818    0.0826204  4.51261e-06 -3.04184e-05 
        1000     0.304506    0.0874089  5.05346e-06 -3.04166e-05 
        1000      0.32165    0.0923277   5.6405e-06 -3.04147e-05 
        1000     0.339278    0.0973849  6.27693e-06 -3.04127e-05 
        1000     0.357377     0.102577  6.96447e-06 -3.04107e-05 
        1000      0.37593     0.107898  7.70446e-06 -3.04086e-05 
        1000     0.394968     0.113358  8.50004e-06 -3.04065e-05 
        1000     0.414461     0.118947  9.35185e-06 -3.04045e-05 
        1000      0.43444     0.124674  1.02632e-05 -3.04023e-05 
        1000     0.454872      0.13053  1.12345e-05 -3.04002e-05 
        1000     0.475791     0.136525  1.22698e-05 -3.03981e-05 
        1000     0.497163     0.142647  1.33698e-05 -3.03959e-05 
        1000     0.519021     0.148907  1.45388e-05 -3.03937e-05 
        1000      0.54135       0.1553   1.5779e-05 -3.03915e-05 
        1000     0.564131      0.16182  1.70926e-05 -3.03892e-05 
        1000       0.5874     0.168477  1.84856e-05 -3.03869e-05 
        1000     0.611121      0.17526  1.99614e-05 -3.03844e-05 
        1000      0.63533     0.182179   2.1525e-05 -3.03821e-05 
        1000      0.65999     0.189224  2.31781e-05 -3.03795e-05 
        1000     0.685139     0.196404  2.49296e-05 -3.03767e-05 
        1000     0.710759     0.203714  2.67839e-05 -3.03739e-05 
        1000     0.736828     0.211147   2.8744e-05  -3.0371e-05 
        1000     0.763387     0.218714   3.0817e-05  -3.0368e-05 
        1000     0.790396     0.226402  3.30035e-05 -3.03649e-05 
        1000     0.817896     0.234223  3.53105e-05 -3.03618e-05 
        1000     0.845843     0.242163  3.77377e-05 -3.03586e-05 
        1000     0.874283     0.250235  4.02924e-05 -3.03553e-05 
        1000      0.90317     0.258423  4.29743e-05 -3.03519e-05 
        1000     0.932551     0.266741  4.57912e-05 -3.03484e-05 
        1000     0.962401      0.27518  4.87445e-05 -3.03449e-05 
        1000     0.992697     0.283733  5.18354e-05 -3.03412e-05 
        1000      1.02349     0.292411  5.50727e-05 -3.03375e-05 
        1000      1.05472     0.301199  5.84543e-05 -3.03336e-05 
        1000      1.08645      0.31011  6.19892e-05 -3.03297e-05 
        1000      1.11863     0.319127  6.56748e-05 -3.03257e-05 
        1000       1.1513     0.328263  6.95199e-05 -3.03217e-05 
        1000      1.18444     0.337509  7.35246e-05 -3.03175e-05 
        1000      1.21802     0.346856  7.76885e-05 -3.03132e-05 
        1000      1.25211     0.356315  8.20216e-05 -3.03088e-05 
        1000      1.28663     0.365869  8.65201e-05 -3.03043e-05 
        1000      1.32165     0.375532  9.11957e-05 -3.02995e-05 
        1000      1.35712     0.385284  9.60447e-05 -3.02945e-05 
        1000      1.39308     0.395138  0.000101079 -3.02894e-05 
        1000      1.42951     0.405084  0.000106297 -3.02841e-05 
        1000      1.46638     0.415109  0.000111693  -3.0279e-05 
        1000      1.50375     0.425228  0.000117268 -3.02744e-05 
        1000      1.54156     0.435419  0.000123029 -3.02683e-05 
        1000      1.57987     0.445695  0.000128995 -3.02621e-05 
        1000      1.61863     0.456036   0.00013515  -3.0256e-05 
        1000      1.65788     0.466453  0.000141504 -3.02498e-05 
        1000      1.69757     0.476926  0.000148044 -3.02435e-05 
        1000      1.73776     0.487467  0.000154781 -3.02371e-05 
        1000      1.77842     0.498062  0.000161709 -3.02305e-05 
        1000      1.81952     0.508698  0.000168824 -3.02238e-05 
        1000      1.86113     0.519385  0.000176136 -3.02168e-05 
        1000      1.90316     0.530102  0.000183636 -3.02096e-05 
        1000      1.94571      0.54086  0.000191333 -3.02021e-05 
        1000      1.98869     0.551634  0.000199217 -3.01944e-05 
        1000      2.03217     0.562437  0.000207298 -3.01864e-05 
        1000      2.07612     0.573253  0.000215567 -3.01781e-05 
        1000      2.12051     0.584067  0.000224016 -3.01695e-05 
        1000       2.1654     0.594888  0.000232655 -3.01607e-05 
        1000      2.21073     0.605692  0.000241465 -3.01515e-05 
        1000      2.25656      0.61649  0.000250454 -3.01421e-05 
        1000      2.30283     0.627256  0.000259604 -3.01323e-05 
        1000       2.3496        0.638  0.000268922 -3.01223e-05 
        1000      2.39685     0.648704  0.000278393 -3.01119e-05 
        1000      2.44452     0.659354  0.000288002 -3.01012e-05 
        1000      2.49271     0.669956  0.000297756 -3.00902e-05 
        1000      2.54132     0.680486  0.000307631 -3.00789e-05 
        1000      2.59044     0.690953  0.000317635 -3.00672e-05 
        1000         2.64     0.701331  0.000327742 -3.00552e-05 
        1000      2.69006     0.711627  0.000337959 -3.00428e-05 
        1000      2.74056     0.721818  0.000348261 -3.00301e-05 
        1000      2.79156      0.73191  0.000358654  -3.0017e-05 
        1000      2.84304     0.741887  0.000369121 -3.00035e-05 
        1000      2.89494     0.751732  0.000379642 -2.99897e-05 
        1000      2.94735     0.761453  0.000390224 -2.99754e-05 
        1000       3.0002     0.771025  0.000400836 -2.99607e-05 
        1000      3.05355     0.780456  0.000411484 -2.99455e-05 
        1000      3.10733     0.789722  0.000422137 -2.99298e-05 
        1000      3.16163      0.79883  0.000432795 -2.99137e-05 
        1000      3.21639     0.807766  0.000443433  -2.9897e-05 
        1000      3.27158     0.816515  0.000454026 -2.98797e-05 
        1000      3.32729     0.825083  0.000464571 -2.98617e-05 
        1000      3.38342     0.833451  0.000475034  -2.9843e-05 
        1000      3.44007     0.841625  0.000485414 -2.98235e-05 
        1000      3.49714     0.849587   0.00049568 -2.98029e-05 
        1000      3.55472     0.857343  0.000505842  -2.9781e-05 
        1000      3.61273     0.864877  0.000515885 -2.97577e-05 
        1000      3.67125     0.872195   0.00052584 -2.97325e-05 
        1000      3.73025     0.879288  0.000535736 -2.97051e-05 
        1000      3.78967     0.886145   0.00054539 -2.96699e-05 
        1000      3.84961     0.892776  0.000554798 -2.96351e-05 
        1000      3.90996     0.899169   0.00056402 -2.96039e-05 
        1000      3.97084     0.905332  0.000573055 -2.95756e-05 
        1000      4.03214     0.911253  0.000581876 -2.95499e-05 
        1000      4.09395     0.916941  0.000590485 -2.95262e-05 
        1000      4.15624     0.922392  0.000598864 -2.95042e-05 
        1000      4.21895     0.927601  0.000606996 -2.94836e-05 
        1000      4.28217     0.932578  0.000614885 -2.94642e-05 
        1000      4.34582     0.937317  0.000622512 -2.94459e-05 
        1000      4.40998     0.941828  0.000629882 -2.94284e-05 
        1000      4.47457     0.946108  0.000636978 -2.94119e-05 
        1000      4.53968     0.950166  0.000643808 -2.93962e-05 
        1000      4.60525     0.954003  0.000650363 -2.93816e-05 
        1000      4.67125     0.957622  0.000656636 -2.93681e-05 
        1000      4.73777     0.961033  0.000662639 -2.93558e-05 
        1000       4.8047     0.964235  0.000668361 -2.93452e-05 
        1000      4.87216     0.967242  0.000673776 -2.92991e-05 
        1000      4.94003     0.970052  0.000678906 -2.92556e-05 
        1000      5.00843     0.972679  0.000683764 -2.92153e-05 
        1000      5.07724     0.975124  0.000688347 -2.91777e-05 
        1000      5.14658     0.977398  0.000692665 -2.91422e-05 
        1000      5.21639     0.979507  0.000696723 -2.91084e-05 
        1000      5.28661     0.981456  0.000700522 -2.90757e-05 
        1000      5.35736     0.983256  0.000704077 -2.90439e-05 
        1000      5.42852     0.984912  0.000707391 -2.90126e-05 
        1000      5.50021     0.986433  0.000710477 -2.89815e-05 
        1000      5.57231     0.987825  0.000713338 -2.89505e-05 
        1000      5.64493     0.989097   0.00071599 -2.89193e-05 
        1000      5.71803     0.990256  0.000718439 -2.88878e-05 
        1000      5.79154     0.991309  0.000720694  -2.8856e-05 
        1000      5.86558     0.992263  0.000722766 -2.88237e-05 
        1000      5.94003     0.993124  0.000724664 -2.87909e-05 
        1000      6.01501     0.993901  0.000726399 -2.87576e-05 
        1000       6.0904     0.994599  0.000727979 -2.87238e-05 
        1000      6.16632     0.995224  0.000729414 -2.86894e-05 
        1000      6.24271     0.995783  0.000730714 -2.86546e-05 
        1000       6.3195      0.99628  0.000731885 -2.86194e-05 
        1000      6.39683     0.996723   0.00073294 -2.85837e-05 
        1000      6.47457     0.997114  0.000733883 -2.85477e-05 
        1000      6.55284      0.99746  0.000734726 -2.85113e-05 
        1000      6.63152     0.997764  0.000735474 -2.84746e-05 
        1000      6.71073     0.998032  0.000736137 -2.84377e-05 
        1000      6.79034     0.998266   0.00073672 -2.84005e-05 
        1000      6.87049      0.99847  0.000737232 -2.83632e-05 
        1000      6.95111     0.998648  0.000737678 -2.83256e-05 
        1000      7.03214     0.998802  0.000738066  -2.8288e-05 
        1000       7.1137     0.998935  0.000738402 -2.82501e-05 
        1000      7.19566     0.999049  0.000738691  -2.8212e-05 
        1000      7.27816     0.999147   0.00073894 -2.81738e-05 
        1000      7.36106     0.999231  0.000739153 -2.81354e-05 
        1000      7.44451     0.999302  0.000739336 -2.80968e-05 
        1000      7.52842     0.999362  0.000739494 -2.80579e-05 
        1000      7.61273     0.999413   0.00073963 -2.80189e-05 
        1000      7.69758     0.999456  0.000739749 -2.79795e-05 
        1000      7.78283     0.999491  0.000739853 -2.79398e-05 
        1000      7.86862     0.999521  0.000739946 -2.78998e-05 
        1000      7.95481     0.999546  0.000740029 -2.78595e-05 
        1000      8.04155     0.999567  0.000740103 -2.78188e-05 
        1000      8.12868     0.999584  0.000740168 -2.77778e-05 
        1000      8.21635     0.999599  0.000740223 -2.77364e-05 
        1000      8.30449     0.999612  0.000740266 -2.76946e-05 
        1000      8.39303     0.999622  0.000740292 -2.76524e-05 
        1000      8.48211     0.999631  0.000740296 -2.76099e-05 
        1000      8.57159     0.999636   0.00074027  -2.7567e-05 
        1000      8.66161      0.99964  0.000740239 -2.75233e-05 
        1000      8.75203     0.999645  0.000740291 -2.74788e-05 
        1000      8.84299     0.999649  0.000740324 -2.74353e-05 
        1000      8.93443     0.999652  0.000740341 -2.73923e-05 
        1000      9.02626     0.999655  0.000740346 -2.73496e-05 
        1000      9.11863     0.999657  0.000740342 -2.73069e-05 
        1000      9.21139     0.999658  0.000740332 -2.72641e-05 
        1000      9.30471      0.99966  0.000740318 -2.72211e-05 
        1000      9.39841     0.999661  0.000740305 -2.71778e-05 
        1000      9.49267     0.999662  0.000740293 -2.71342e-05 
        1000      9.58739     0.999662  0.000740283 -2.70904e-05 
        1000      9.68251     0.999663  0.000740278 -2.70464e-05 
        1000      9.77817     0.999664  0.000740276 -2.70022e-05 
        1000      9.87422     0.999665  0.000740279 -2.69579e-05 
        1000      9.97083     0.999665  0.000740285 -2.69137e-05 
        1000      10.0678     0.999666  0.000740293 -2.68695e-05 
        1000      10.1654     0.999666  0.000740304 -2.68253e-05 
        1000      10.2633     0.999667  0.000740315 -2.67813e-05 
        1000      10.3618     0.999667  0.000740326 -2.67374e-05 
        1000      10.4607     0.999668  0.000740335 -2.66935e-05 
        1000      10.5601     0.999668  0.000740341 -2.66497e-05 
        1000        10.66     0.999669  0.000740344 -2.66057e-05 
        1000      10.7603     0.999669  0.000740342 -2.65616e-05 
        1000      10.8611      0.99967  0.000740337 -2.65171e-05 
        1000      10.9623      0.99967  0.000740327 -2.64722e-05 
        1000      11.0641     0.999671  0.000740313 -2.64265e-05 
        1000      11.1663     0.999671  0.000740296   -2.638e-05 
        1000       11.269     0.999671  0.000740277 -2.63324e-05 
        1000      11.3721     0.999672  0.000740257 -2.62836e-05 
        1000      11.4757     0.999672  0.000740237 -2.62336e-05 
        1000      11.5798     0.999673  0.000740219  -2.6182e-05 
        1000      11.6844     0.999673  0.000740204  -2.6129e-05 
        1000      11.7894     0.999674  0.000740193 -2.60746e-05 
        1000       11.895     0.999674  0.000740188  -2.6019e-05 
        1000      12.0009     0.999675   0.00074019 -2.59625e-05 
        1000      12.1073     0.999675  0.000740198 -2.59056e-05 
        1000      12.2142     0.999675  0.000740214  -2.5849e-05 
        1000      12.3216     0.999676  0.000740238 -2.57935e-05 
        1000      12.4294     0.999676  0.000740271 -2.57405e-05 
        1000      12.5378     0.999677  0.000740312 -2.56914e-05 
        1000      12.6465     0.999678  0.000740365 -2.56482e-05 
        1000      12.7558     0.999678  0.000740432 -2.56131e-05 
        1000      12.8656     0.999679  0.000740443 -2.55621e-05 
        1000      12.9757     0.999679  0.000740424  -2.5508e-05 
        1000      13.0864     0.999679  0.000740389 -2.54594e-05 
        1000      13.1975      0.99968  0.000740333 -2.54158e-05 
        1000      13.3092      0.99968  0.000740256 -2.53764e-05 
        1000      13.4212     0.999681  0.000740167 -2.53393e-05 
        1000      13.5338     0.999682  0.000740089 -2.53016e-05 
        1000      13.6468     0.999682  0.000740062 -2.52593e-05 
        1000      13.7603     0.999683  0.000740153 -2.52063e-05 
        1000      13.8743     0.999683  0.000740438 -2.51358e-05 
        1000      13.9886     0.999684  0.000740169 -2.50735e-05 
        1000      14.1036     0.999684  0.000740111 -2.50025e-05 
        1000      14.2189     0.999685   0.00074016 -2.49245e-05 
        1000      14.3348     0.999685  0.000740238 -2.48412e-05 
        1000       14.451     0.999685  0.000740285 -2.47551e-05 
        1000      14.5678     0.999686  0.000740254 -2.46688e-05 
        1000      14.6851     0.999686  0.000740143 -2.46002e-05 
        1000      14.8028     0.999687  0.000740281 -2.46372e-05 
        1000       14.921     0.999688  0.000740373 -2.46319e-05 
        1000      15.0396     0.999689  0.000740419 -2.45967e-05 
        1000      15.1588     0.999689  0.000740428 -2.45416e-05 
        1000      15.2783      0.99969  0.000740411 -2.44748e-05 
        1000      15.3984      0.99969  0.000740379 -2.44026e-05 
        1000       15.519     0.999691  0.000740342 -2.43297e-05 
        1000        15.64     0.999692  0.000740306 -2.42593e-05 
        1000      15.7615     0.999692  0.000740278 -2.41932e-05 
        1000      15.8834     0.999693  0.000740259 -2.41324e-05 
        1000      16.0058     0.999694  0.000740249 -2.40769e-05 
        1000      16.1286     0.999694  0.000740248  -2.4026e-05 
        1000       16.252     0.999695  0.000740253 -2.39786e-05 
        1000      16.3759     0.999695  0.000740261 -2.39333e-05 
        1000      16.5002     0.999695  0.000740271 -2.38887e-05 
        1000       16.625     0.999696  0.000740281 -2.38432e-05 
        1000      16.7501     0.999696  0.000740291 -2.37957e-05 
        1000      16.8759     0.999697  0.000740302 -2.37452e-05 
        1000       17.002     0.999697  0.000740316 -2.36912e-05 
        1000      17.1287     0.999698  0.000740333 -2.36336e-05 
        1000      17.2557     0.999698  0.000740356 -2.35728e-05 
        1000      17.3834     0.999699  0.000740384 -2.35097e-05 
        1000      17.5115       0.9997  0.000740416 -2.34455e-05 
        1000      17.6399     0.999701  0.000740446 -2.33819e-05 
        1000       17.769     0.999702   0.00074047 -2.33204e-05 
        1000      17.8984     0.999703  0.000740479 -2.32626e-05 
        1000      18.0284     0.999703  0.000740468 -2.32094e-05 
        1000      18.1587     0.999704  0.000740435  -2.3161e-05 
        1000      18.2896     0.999704  0.000740389  -2.3116e-05 
        1000       18.421     0.999705  0.000740356 -2.30711e-05 
        1000      18.5528     0.999705  0.000740394 -2.30205e-05 
        1000      18.6851     0.999706  0.000740488 -2.29596e-05 
        1000      18.8178     0.999707   0.00074041 -2.28997e-05 
        1000      18.9511     0.999707   0.00074038 -2.28351e-05 
        1000      19.0847     0.999708  0.000740381  -2.2768e-05 
        1000      19.2189     0.999708  0.000740401 -2.26997e-05 
        1000      19.3535     0.999709  0.000740428 -2.26317e-05 
        1000      19.4886     0.999709  0.000740457 -2.25644e-05 
        1000      19.6242      0.99971  0.000740483 -2.24984e-05 
        1000      19.7602     0.999711  0.000740502  -2.2434e-05 
        1000      19.8968     0.999712  0.000740514 -2.23709e-05 
        1000      20.0337     0.999712  0.000740518 -2.23091e-05 
        1000      20.1712     0.999713  0.000740516 -2.22482e-05 
        1000      20.3091     0.999714   0.00074051 -2.21878e-05 
        1000      20.4475     0.999714  0.000740501 -2.21274e-05 
        1000      20.5864     0.999715  0.000740493 -2.20665e-05 
        1000      20.7257     0.999716  0.000740486 -2.20046e-05 
        1000      20.8655     0.999717  0.000740483 -2.19414e-05 
        1000      21.0058     0.999717  0.000740486 -2.18765e-05 
        1000      21.1465     0.999718  0.000740496 -2.18095e-05 
        1000      21.2877     0.999719  0.000740513 -2.17403e-05 
        1000      21.4294     0.999719  0.000740538 -2.16688e-05 
        1000      21.5716      0.99972   0.00074057 -2.15952e-05 
        1000      21.7142     0.999721  0.000740607 -2.15196e-05 
        1000      21.8573     0.999721  0.000740648 -2.14422e-05 
        1000      22.0008     0.999722  0.000740692 -2.13637e-05 
        1000      22.1449     0.999723  0.000740735 -2.12845e-05 
        1000      22.2893     0.999723  0.000740776 -2.12054e-05 
        1000      22.4344     0.999724  0.000740812  -2.1127e-05 
        1000      22.5797     0.999725   0.00074084 -2.10503e-05 
        1000      22.7257     0.999725  0.000740861 -2.09761e-05 
        1000      22.8721     0.999726  0.000740871 -2.09055e-05 
        1000      23.0189     0.999727   0.00074087 -2.08393e-05 
        1000      23.1663     0.999728  0.000740859 -2.07783e-05 
        1000       23.314     0.999729  0.000740839 -2.07236e-05 
        1000      23.4623     0.999729  0.000740811 -2.06757e-05 
        1000       23.611      0.99973  0.000740778 -2.06352e-05 
        1000      23.7602     0.999731  0.000740743 -2.06024e-05 
        1000        23.91     0.999732   0.00074071 -2.05775e-05 
        1000        24.06     0.999733  0.000740682 -2.05601e-05 
        1000      24.2107     0.999734  0.000740662 -2.05498e-05 
        1000      24.3617     0.999734   0.00074065 -2.05456e-05 
        1000      24.5133     0.999735  0.000740646 -2.05459e-05 
        1000      24.6653     0.999736  0.000740644 -2.05487e-05 
        1000      24.8178     0.999737  0.000740633   -2.052e-05 
        1000      24.9708     0.999738  0.000740635 -2.03532e-05 
        1000      25.1242     0.999738  0.000740687 -2.02006e-05 
        1000      25.2781     0.999739  0.000740789  -2.0057e-05 
        1000      25.4324      0.99974  0.000740933 -1.99178e-05 
        1000      25.5873     0.999741  0.000741104 -1.97784e-05 
        1000      25.7426     0.999742  0.000741271 -1.96352e-05 
        1000      25.8984     0.999742  0.000741384 -1.94842e-05 
        1000      26.0546     0.999743  0.000741372 -1.93226e-05 
        1000      26.2114     0.999743  0.000741132  -1.9147e-05 
        1000      26.3686     0.999744  0.000740723 -1.90579e-05 
        1000      26.5262     0.999745  0.000740794 -1.92398e-05 
        1000      26.6844     0.999746  0.000740885 -1.93434e-05 
        1000      26.8429     0.999747  0.000740983 -1.93822e-05 
        1000       27.002     0.999748  0.000741079 -1.93671e-05 
        1000      27.1615     0.999749  0.000741166 -1.93066e-05 
        1000      27.3216      0.99975   0.00074124 -1.92071e-05 
        1000      27.4821      0.99975  0.000741298 -1.90732e-05 
        1000       27.643     0.999751  0.000741338 -1.89075e-05 
        1000      27.8044     0.999752   0.00074136 -1.87111e-05 
        1000      27.9663     0.999752  0.000741362 -1.84839e-05 
        1000      28.1287     0.999753  0.000741291 -1.83949e-05 
        1000      28.2914     0.999754  0.000741164 -1.85054e-05 
        1000      28.4548     0.999755  0.000741073 -1.85798e-05 
        1000      28.6185     0.999756  0.000741024   -1.862e-05 
        1000      28.7828     0.999757  0.000741015 -1.86289e-05 
        1000      28.9475     0.999758   0.00074104 -1.86103e-05 
        1000      29.1126     0.999759  0.000741092 -1.85682e-05 
        1000      29.2784      0.99976  0.000741162 -1.85067e-05 
        1000      29.4444     0.999761  0.000741241 -1.84301e-05 
        1000       29.611     0.999762  0.000741322 -1.83424e-05 
        1000       29.778     0.999763  0.000741396 -1.82474e-05 
        1000      29.9456     0.999763  0.000741458 -1.81483e-05 
        1000      30.1137     0.999764  0.000741504 -1.80482e-05 
        1000      30.2821     0.999765  0.000741533 -1.79495e-05 
        1000      30.4511     0.999766  0.000741544 -1.78539e-05 
        1000      30.6204     0.999767  0.000741539 -1.77628e-05 
        1000      30.7903     0.999768  0.000741521 -1.76769e-05 
        1000      30.9606     0.999768  0.000741493 -1.75967e-05 
        1000      31.1315     0.999769  0.000741461 -1.75218e-05 
        1000      31.3028      0.99977   0.00074143 -1.74517e-05 
        1000      31.4745     0.999771  0.000741405 -1.73859e-05 
        1000      31.6468     0.999772  0.000741389 -1.73229e-05 
        1000      31.8194     0.999773  0.000741388  -1.7262e-05 
        1000      31.9926     0.999774  0.000741402 -1.72017e-05 
        1000      32.1662     0.999775  0.000741434  -1.7141e-05 
        1000      32.3404     0.999776  0.000741483  -1.7079e-05 
        1000      32.5149     0.999777  0.000741545  -1.7015e-05 
        1000        32.69     0.999778  0.000741618 -1.69484e-05 
        1000      32.8655     0.999779  0.000741696 -1.68793e-05 
        1000      33.0414      0.99978  0.000741772  -1.6808e-05 
        1000       33.218     0.999781   0.00074184  -1.6735e-05 
        1000      33.3948     0.999782  0.000741892 -1.66616e-05 
        1000      33.5723     0.999783  0.000741923 -1.65887e-05 
        1000        33.75     0.999784  0.000741929 -1.65181e-05 
        1000      33.9284     0.999785  0.000741909 -1.64507e-05 
        1000      34.1073     0.999785  0.000741869 -1.63879e-05 
        1000      34.2865     0.999786  0.000741818 -1.63301e-05 
        1000      34.4663     0.999787  0.000741778 -1.62768e-05 
        1000      34.6465     0.999788  0.000741778 -1.62261e-05 
        1000      34.8272     0.999789  0.000741861  -1.6174e-05 
        1000      35.0083      0.99979  0.000742087 -1.61141e-05 
        1000        35.19     0.999792  0.000742446 -1.60389e-05 
        1000      35.3721     0.999794  0.000742031 -1.59739e-05 
        1000      35.5546     0.999795  0.000741855 -1.58956e-05 
        1000      35.7377     0.999796  0.000741828 -1.58097e-05 
        1000      35.9211     0.999796  0.000741884 -1.57206e-05 
        1000      36.1052     0.999797  0.000741976 -1.56315e-05 
        1000      36.2895     0.999798  0.000742075 -1.55451e-05 
        1000      36.4745     0.999798  0.000742163 -1.54631e-05 
        1000      36.6598     0.999799  0.000742231 -1.53865e-05 
        1000      36.8457       0.9998  0.000742277 -1.53157e-05 
        1000      37.0321     0.999801  0.000742303 -1.52509e-05 
        1000      37.2188     0.999802  0.000742314 -1.51918e-05 
        1000      37.4062     0.999803  0.000742315 -1.51376e-05 
        1000      37.5938     0.999804  0.000742312 -1.50876e-05 
        1000      37.7821     0.999805  0.000742311 -1.50407e-05 
        1000      37.9707     0.999807  0.000742316  -1.4996e-05 
        1000      38.1599     0.999808  0.000742329 -1.49522e-05 
        1000      38.3496     0.999809  0.000742351 -1.49083e-05 
        1000      38.5396      0.99981  0.000742382 -1.48635e-05 
        1000      38.7302     0.999811  0.000742421 -1.48166e-05 
        1000      38.9211     0.999813  0.000742463 -1.47671e-05 
        1000      39.1127     0.999814  0.000742508 -1.47141e-05 
        1000      39.3046     0.999815  0.000742549 -1.46574e-05 
        1000      39.4971     0.999816  0.000742586 -1.45964e-05 
        1000      39.6899     0.999817  0.000742613 -1.45313e-05 
        1000      39.8833     0.999818   0.00074263  -1.4462e-05 
        1000      40.0772     0.999819  0.000742636 -1.43886e-05 
        1000      40.2714      0.99982   0.00074263 -1.43118e-05 
        1000      40.4663     0.999821  0.000742615 -1.42318e-05 
        1000      40.6615     0.999822  0.000742594 -1.41493e-05 
        1000      40.8573     0.999823   0.00074257 -1.40651e-05 
        1000      41.0534     0.999824  0.000742549 -1.39798e-05 
        1000      41.2501     0.999825  0.000742537 -1.38943e-05 
        1000      41.4473     0.999826  0.000742539 -1.38093e-05 
        1000      41.6448     0.999827  0.000742561 -1.37256e-05 
        1000      41.8429     0.999828  0.000742608 -1.36438e-05 
        1000      42.0414     0.999829  0.000742682 -1.35645e-05 
        1000      42.2405     0.999831  0.000742783 -1.34879e-05 
        1000      42.4399     0.999832  0.000742911 -1.34144e-05 
        1000      42.6399     0.999833  0.000743059 -1.33438e-05 
        1000      42.8404     0.999834  0.000743219 -1.32758e-05 
        1000      43.0412     0.999836  0.000743378 -1.32099e-05 
        1000      43.2426     0.999837   0.00074352 -1.31451e-05 
        1000      43.4444     0.999838  0.000743627 -1.30803e-05 
        1000      43.6467     0.999839  0.000743678 -1.30139e-05 
        1000      43.8494      0.99984  0.000743653  -1.2944e-05 
        1000      44.0527     0.999841  0.000743536 -1.28685e-05 
        1000      44.2563     0.999842  0.000743314 -1.27848e-05 
        1000      44.4606     0.999843  0.000742988 -1.26901e-05 
        1000      44.6653     0.999844  0.000742574 -1.25814e-05 
        1000      44.8704     0.999845  0.000742112 -1.24556e-05 
        1000       45.076     0.999847   0.00074216 -1.26186e-05 
        1000       45.282     0.999849  0.000742341 -1.27962e-05 
        1000      45.4886     0.999851  0.000742602 -1.29376e-05 
        1000      45.6955     0.999852  0.000742952 -1.30366e-05 
        1000       45.903     0.999853  0.000743381 -1.30868e-05 
        1000      46.1111     0.999853   0.00074404 -1.27546e-05 
        1000      46.3194     0.999852  0.000744126 -1.23092e-05 
        1000      46.5283     0.999852  0.000743828 -1.19043e-05 
        1000      46.7376     0.999853  0.000743523 -1.15008e-05 
        1000      46.9475     0.999855  0.000743008 -1.16325e-05 
        1000      47.1577     0.999858   0.00074268  -1.1879e-05 
        1000      47.3685      0.99986   0.00074262 -1.20364e-05 
        1000      47.5798     0.999862  0.000742743  -1.2117e-05 
        1000      47.7914     0.999863  0.000742976 -1.21332e-05 
        1000      48.0037     0.999865  0.000743261  -1.2097e-05 