Variables = x, y, u, v, p

Zone, I=416, F=POINT
         -50            0            0            0      153.102 
         -50     0.013333  0.000124915  5.36769e-08      153.102 
         -50     0.053333  0.000133841  7.72442e-08      153.102 
         -50         0.12  0.000144773  1.40782e-07      153.102 
         -50     0.213332  0.000152056   3.7499e-07      153.102 
         -50     0.333332  0.000152284  9.29583e-07      153.101 
         -50         0.48  0.000148772  2.72607e-06      153.101 
         -50     0.653331  0.000144982   4.9483e-06      153.101 
         -50     0.853332  0.000139063  6.73979e-06        153.1 
         -50         1.08  0.000130042   8.2377e-06      153.099 
         -50      1.33333  0.000120548  9.78866e-06      153.097 
         -50      1.61333  0.000112272  1.11453e-05      153.095 
         -50         1.92  0.000101141  1.14503e-05      153.093 
         -50      2.25333  8.71392e-05  1.07445e-05      153.089 
         -50      2.61333  7.73792e-05  1.06888e-05      153.085 
         -50            3  7.62843e-05  1.10166e-05       153.08 
         -25            0  1.04957e-19  1.66163e-23      147.058 
         -25     0.013333  8.77856e-05  2.51197e-08      147.058 
         -25     0.053333  8.44533e-05  7.85673e-08      147.058 
         -25         0.12  8.08548e-05  2.13972e-07      147.058 
         -25     0.213332  7.94239e-05   4.2307e-07      147.058 
         -25     0.333332  7.98312e-05  6.34563e-07      147.058 
         -25         0.48  8.04536e-05  7.80077e-07      147.058 
         -25     0.653331  7.96562e-05  9.13182e-07      147.058 
         -25     0.853332  7.67729e-05  9.17859e-07      147.058 
         -25         1.08  7.38325e-05  6.80265e-07      147.057 
         -25      1.33333   7.4264e-05  5.16218e-07      147.057 
         -25      1.61333  7.64135e-05  2.86297e-07      147.056 
         -25         1.92  7.70024e-05  1.51977e-07      147.055 
         -25      2.25333  8.01684e-05  8.56283e-07      147.054 
         -25      2.61333  8.10258e-05 -2.40634e-08      147.052 
         -25            3  7.57276e-05 -4.22381e-06       147.05 
           0            0            0            0      142.078 
           0     0.013333  0.000118277 -0.000109787      142.083 
           0     0.053333  0.000136711 -5.99794e-05      142.092 
           0         0.12  0.000118182 -5.22795e-05      142.102 
           0     0.213332  0.000101713 -4.03444e-05      142.113 
           0     0.333332  8.67833e-05  -3.2119e-05      142.124 
           0         0.48  7.40453e-05 -2.50466e-05      142.135 
           0     0.653331  6.52178e-05  -1.8667e-05      142.145 
           0     0.853332  5.96346e-05 -1.28144e-05      142.156 
           0         1.08  5.57641e-05 -7.48671e-06      142.166 
           0      1.33333   5.1753e-05 -2.67832e-06      142.175 
           0      1.61333  4.74302e-05  1.41433e-06      142.185 
           0         1.92  4.42237e-05  4.71908e-06      142.193 
           0      2.25333  4.39954e-05  7.22349e-06      142.202 
           0      2.61333   4.5595e-05  8.82311e-06       142.21 
           0            3  4.82585e-05  1.06511e-05      142.217 
          20            0  0.000411714 -0.000413196      139.087 
          20     0.013333  0.000415531 -0.000414169      139.087 
          20     0.053333  0.000429481 -0.000416523      139.087 
          20         0.12  0.000461742 -0.000418547      139.087 
          20     0.213332  0.000526112   -0.0004175      139.087 
          20     0.333332  0.000635735 -0.000410348      139.087 
          20         0.48  0.000764927 -0.000395304      139.087 
          20     0.653331  0.000829279 -0.000373766      139.086 
          20     0.853332  0.000765675 -0.000348529      139.086 
          20         1.08  0.000587893 -0.000320123      139.086 
          20      1.33333  0.000364446 -0.000286794      139.085 
          20      1.61333  0.000126034 -0.000247993      139.085 
          20         1.92 -8.86315e-05 -0.000204951      139.084 
          20      2.25333 -0.000243608 -0.000160141      139.083 
          20      2.61333 -0.000326298 -0.000117074      139.082 
          20            3  -0.00035216 -7.79521e-05      139.081 
          40            0           -0           -0      136.081 
          40     0.013333  0.000656247 -1.09268e-06      136.081 
          40     0.053333   0.00233255 -1.45883e-05      136.081 
          40         0.12   0.00457719 -5.25599e-05      136.081 
          40     0.213332   0.00647876 -0.000104688      136.081 
          40     0.333332   0.00738211 -0.000157172      136.081 
          40         0.48   0.00730698  -0.00021417      136.081 
          40     0.653331   0.00715346 -0.000243162      136.081 
          40     0.853332   0.00708866  -0.00020599       136.08 
          40         1.08   0.00618144 -0.000154872       136.08 
          40      1.33333   0.00444992 -0.000123425      136.079 
          40      1.61333   0.00244722 -0.000107043      136.078 
          40         1.92  0.000565775  -9.9325e-05      136.077 
          40      2.25333 -0.000902349 -9.63406e-05      136.075 
          40      2.61333   -0.0017978 -9.55128e-05      136.073 
          40            3  -0.00216016 -9.53403e-05      136.071 
          60            0           -0           -0      133.042 
          60     0.013333  0.000355682 -6.02835e-07      133.042 
          60     0.053333   0.00119965 -7.75978e-06      133.042 
          60         0.12   0.00232793 -2.70322e-05      133.042 
          60     0.213332   0.00326342 -5.06909e-05      133.042 
          60     0.333332   0.00377291 -6.41856e-05      133.042 
          60         0.48   0.00401464 -6.27624e-05      133.042 
          60     0.653331   0.00412781 -5.95921e-05      133.042 
          60     0.853332   0.00395025 -8.21992e-05      133.042 
          60         1.08   0.00334195 -0.000142789      133.042 
          60      1.33333   0.00242657 -0.000226382      133.042 
          60      1.61333   0.00141277  -0.00030626      133.042 
          60         1.92  0.000342142  -0.00037049      133.041 
          60      2.25333 -0.000426734 -0.000413983      133.041 
          60      2.61333 -0.000872296  -0.00043194      133.041 
          60            3  -0.00114014 -0.000431334       133.04 
          80            0           -0           -0      130.144 
          80     0.013333  0.000209177 -2.84011e-07      130.144 
          80     0.053333  0.000629886 -3.65371e-06      130.144 
          80         0.12   0.00117214 -1.24703e-05      130.144 
          80     0.213332   0.00156984 -2.16296e-05      130.144 
          80     0.333332    0.0016861 -2.16728e-05      130.144 
          80         0.48    0.0016209 -9.10642e-06      130.144 
          80     0.653331   0.00148501  8.89978e-06      130.144 
          80     0.853332   0.00122896   1.8956e-05      130.144 
          80         1.08  0.000838782  1.49585e-05      130.144 
          80      1.33333  0.000475817  2.18471e-06      130.144 
          80      1.61333   0.00021651 -9.42006e-06      130.144 
          80         1.92 -2.12022e-05 -1.79943e-05      130.144 
          80      2.25333 -0.000203198 -2.38678e-05      130.144 
          80      2.61333 -0.000317477 -2.65877e-05      130.144 
          80            3 -0.000368921  -2.7819e-05      130.143 
         100            0           -0           -0      127.314 
         100     0.013333   0.00028916 -3.25926e-07      127.314 
         100     0.053333  0.000926027 -4.14058e-06      127.314 
         100         0.12   0.00173657 -1.37635e-05      127.314 
         100     0.213332   0.00234482 -2.21938e-05      127.314 
         100     0.333332   0.00255308 -1.68466e-05      127.314 
         100         0.48   0.00248472   7.7473e-06      127.314 
         100     0.653331   0.00229059  4.37319e-05      127.314 
         100     0.853332   0.00190619  7.47615e-05      127.314 
         100         1.08   0.00135092  9.48113e-05      127.314 
         100      1.33333  0.000901387  0.000112851      127.314 
         100      1.61333  0.000549158  0.000132925      127.314 
         100         1.92  0.000151967  0.000147483      127.314 
         100      2.25333 -0.000175968  0.000154061      127.313 
         100      2.61333 -0.000394698  0.000154771      127.313 
         100            3 -0.000521439  0.000150361      127.313 
         150            0            0            0      120.381 
         150     0.013333  0.000312457  8.56073e-07      120.381 
         150     0.053333  0.000730414  1.31867e-05      120.381 
         150         0.12  0.000673726  6.10707e-05      120.381 
         150     0.213332 -3.01746e-05  0.000165373      120.381 
         150     0.333332 -0.000909469  0.000325881      120.381 
         150         0.48  -0.00142827  0.000525717      120.381 
         150     0.653331  -0.00141931  0.000749073      120.381 
         150     0.853332  -0.00104167  0.000982689      120.381 
         150         1.08 -0.000643807   0.00120511      120.381 
         150      1.33333 -0.000427773   0.00139394      120.381 
         150      1.61333 -0.000287706   0.00153702      120.381 
         150         1.92 -0.000102532   0.00162034      120.381 
         150      2.25333  5.79144e-05   0.00163648      120.381 
         150      2.61333   0.00018394   0.00158873      120.381 
         150            3  0.000276343   0.00148736      120.381 
         200            0           -0           -0      113.538 
         200     0.013333 -0.000409371  4.53078e-07      113.538 
         200     0.053333  -0.00168282  5.58019e-06      113.538 
         200         0.12  -0.00329235  1.75588e-05      113.538 
         200     0.213332  -0.00455539  2.49283e-05      113.538 
         200     0.333332  -0.00511072  9.01658e-06      113.538 
         200         0.48  -0.00515019 -3.91206e-05      113.538 
         200     0.653331  -0.00501439 -0.000112189      113.538 
         200     0.853332  -0.00472537 -0.000189351      113.538 
         200         1.08  -0.00406011 -0.000247827      113.538 
         200      1.33333  -0.00310502 -0.000281995      113.538 
         200      1.61333  -0.00213313 -0.000304558      113.538 
         200         1.92  -0.00112747  -0.00031617      113.538 
         200      2.25333 -0.000208781 -0.000313672      113.538 
         200      2.61333  0.000547991 -0.000300217      113.538 
         200            3   0.00110839  -0.00027698      113.539 
         250            0  1.01627e-19  8.02561e-26      106.728 
         250     0.013333  1.67324e-06  2.92866e-07      106.728 
         250     0.053333 -0.000213465  4.17827e-06      106.728 
         250         0.12 -0.000624475  1.74406e-05      106.728 
         250     0.213332  -0.00112244  4.22651e-05      106.728 
         250     0.333332  -0.00152424  7.49716e-05      106.728 
         250         0.48  -0.00174117  0.000110431      106.728 
         250     0.653331  -0.00179017  0.000147262      106.728 
         250     0.853332  -0.00168519  0.000188164      106.728 
         250         1.08  -0.00143496   0.00023472      106.728 
         250      1.33333  -0.00112054  0.000283238      106.728 
         250      1.61333 -0.000808983  0.000326958      106.728 
         250         1.92  -0.00047555  0.000361315      106.728 
         250      2.25333 -0.000161459  0.000383593      106.728 
         250      2.61333  0.000111656  0.000391771      106.728 
         250            3  0.000331765  0.000386054      106.728 
         300            0           -0           -0      99.9275 
         300     0.013333  8.63923e-05 -1.67045e-07      99.9275 
         300     0.053333   0.00020337 -2.43606e-06      99.9275 
         300         0.12  0.000438579 -1.04246e-05      99.9275 
         300     0.213332  0.000726914 -2.56829e-05      99.9275 
         300     0.333332  0.000941001 -4.55842e-05      99.9275 
         300         0.48   0.00101522 -6.61516e-05      99.9275 
         300     0.653331  0.000970094 -8.60542e-05      99.9275 
         300     0.853332  0.000847538 -0.000106086      99.9275 
         300         1.08  0.000699904 -0.000125285      99.9275 
         300      1.33333  0.000573481 -0.000141143      99.9275 
         300      1.61333  0.000453389 -0.000152878      99.9275 
         300         1.92  0.000314889 -0.000160388      99.9274 
         300      2.25333  0.000176618 -0.000163039      99.9274 
         300      2.61333  5.09738e-05 -0.000160356      99.9274 
         300            3 -5.39022e-05 -0.000152632      99.9274 
         350            0            0            0      93.1311 
         350     0.013333   0.00026227 -5.84234e-07      93.1311 
         350     0.053333   0.00093754 -8.27164e-06      93.1311 
         350         0.12   0.00206151 -3.39251e-05      93.1311 
         350     0.213332   0.00327871 -7.95216e-05      93.1311 
         350     0.333332   0.00411715 -0.000133616      93.1311 
         350         0.48   0.00441554 -0.000182524      93.1311 
         350     0.653331   0.00432675 -0.000223114      93.1311 
         350     0.853332   0.00398527 -0.000263143      93.1311 
         350         1.08   0.00342168 -0.000309711      93.1311 
         350      1.33333   0.00276478 -0.000358435      93.1311 
         350      1.61333   0.00214109 -0.000398743      93.1311 
         350         1.92   0.00148003 -0.000426694      93.1311 
         350      2.25333  0.000812348 -0.000441176       93.131 
         350      2.61333  0.000184721 -0.000440614       93.131 
         350            3 -0.000356263  -0.00042508      93.1309 
         400            0           -0           -0      86.3342 
         400     0.013333 -0.000144302 -3.50926e-07      86.3342 
         400     0.053333 -0.000560954 -5.48892e-06      86.3342 
         400         0.12 -0.000798689 -2.61286e-05      86.3342 
         400     0.213332 -0.000634419 -7.35761e-05      86.3342 
         400     0.333332   -0.0002054 -0.000151666      86.3342 
         400         0.48  0.000189359 -0.000255315      86.3342 
         400     0.653331  0.000365514 -0.000377038      86.3342 
         400     0.853332  0.000304524 -0.000511755      86.3342 
         400         1.08   0.00010765 -0.000653454      86.3342 
         400      1.33333 -3.67721e-05 -0.000790396      86.3342 
         400      1.61333 -4.28927e-05 -0.000910238      86.3342 
         400         1.92 -2.33523e-05  -0.00100598      86.3342 
         400      2.25333 -5.18168e-06  -0.00107172      86.3342 
         400      2.61333  1.35479e-05  -0.00110235      86.3342 
         400            3  3.14474e-05  -0.00109533      86.3342 
         450            0  6.33886e-20 -1.02619e-27      79.5385 
         450     0.013333  3.31702e-05    3.793e-07      79.5385 
         450     0.053333 -0.000139106   5.5861e-06      79.5385 
         450         0.12 -0.000606561  2.45121e-05      79.5385 
         450     0.213332  -0.00131894  6.32533e-05      79.5385 
         450     0.333332  -0.00202313  0.000119938      79.5385 
         450         0.48  -0.00249746  0.000187396      79.5385 
         450     0.653331  -0.00269443   0.00026017      79.5385 
         450     0.853332  -0.00265303  0.000337947      79.5385 
         450         1.08  -0.00240198  0.000422494      79.5385 
         450      1.33333  -0.00201451  0.000511398      79.5385 
         450      1.61333  -0.00160736  0.000596673      79.5385 
         450         1.92  -0.00119248  0.000670349      79.5385 
         450      2.25333  -0.00076473  0.000727283      79.5385 
         450      2.61333 -0.000338413  0.000762908      79.5385 
         450            3   5.5998e-05  0.000774274      79.5386 
         500            0           -0           -0      72.7444 
         500     0.013333  4.63648e-05 -1.68943e-07      72.7444 
         500     0.053333  6.36415e-05 -2.49332e-06      72.7444 
         500         0.12  0.000196112 -1.10073e-05      72.7444 
         500     0.213332  0.000448607 -2.87542e-05      72.7444 
         500     0.333332  0.000727648 -5.55778e-05      72.7444 
         500         0.48  0.000935916 -8.89798e-05      72.7444 
         500     0.653331   0.00103938 -0.000126765      72.7444 
         500     0.853332   0.00104235 -0.000168614      72.7444 
         500         1.08  0.000948172 -0.000215293      72.7444 
         500      1.33333  0.000783596 -0.000265958      72.7444 
         500      1.61333  0.000613619 -0.000316462      72.7444 
         500         1.92  0.000461321 -0.000361904      72.7444 
         500      2.25333  0.000312556 -0.000398971      72.7444 
         500      2.61333  0.000164719 -0.000425024      72.7444 
         500            3  2.84752e-05 -0.000438119      72.7444 
         550            0           -0           -0      65.9486 
         550     0.013333  0.000109945  1.77035e-07      65.9486 
         550     0.053333  0.000186275  2.75469e-06      65.9486 
         550         0.12   0.00012604  1.30575e-05      65.9486 
         550     0.213332 -0.000141281  3.66644e-05      65.9486 
         550     0.333332 -0.000509727  7.52027e-05      65.9486 
         550         0.48 -0.000799254   0.00012513      65.9486 
         550     0.653331 -0.000915283  0.000181017      65.9486 
         550     0.853332 -0.000881732  0.000238917      65.9486 
         550         1.08 -0.000774433  0.000296343      65.9486 
         550      1.33333 -0.000657812  0.000351004      65.9486 
         550      1.61333 -0.000550146  0.000400745      65.9486 
         550         1.92 -0.000432766  0.000443442      65.9486 
         550      2.25333 -0.000302284  0.000476111      65.9486 
         550      2.61333  -0.00016477  0.000496256      65.9486 
         550            3  -3.0215e-05  0.000502056      65.9487 
         600            0            0            0      59.1538 
         600     0.013333  5.90924e-05 -5.66495e-07      59.1538 
         600     0.053333  0.000234437 -8.45786e-06      59.1538 
         600         0.12  0.000866453    -3.78e-05      59.1538 
         600     0.213332   0.00192741 -9.93168e-05      59.1538 
         600     0.333332   0.00300901 -0.000190887      59.1538 
         600         0.48   0.00370389  -0.00030037      59.1538 
         600     0.653331   0.00390739 -0.000417525      59.1538 
         600     0.853332   0.00371649 -0.000540542      59.1538 
         600         1.08   0.00325375 -0.000670609      59.1538 
         600      1.33333   0.00269663 -0.000802121      59.1538 
         600      1.61333   0.00221516 -0.000923638      59.1538 
         600         1.92    0.0017634  -0.00102742      59.1537 
         600      2.25333   0.00128063  -0.00110858      59.1537 
         600      2.61333   0.00077322  -0.00116165      59.1537 
         600            3  0.000280985  -0.00118182      59.1537 
         650            0            0            0      52.3553 
         650     0.013333  4.09342e-05  3.90181e-07      52.3553 
         650     0.053333 -0.000110232  5.67415e-06      52.3553 
         650         0.12  -0.00054174   2.4456e-05      52.3553 
         650     0.213332  -0.00120054  6.19199e-05      52.3553 
         650     0.333332  -0.00184795  0.000115632      52.3553 
         650         0.48  -0.00229597  0.000179356      52.3553 
         650     0.653331  -0.00252318  0.000249823      52.3553 
         650     0.853332  -0.00255406  0.000329624      52.3553 
         650         1.08  -0.00234086  0.000424734      52.3553 
         650      1.33333  -0.00189304  0.000535719      52.3553 
         650      1.61333  -0.00141859  0.000651168      52.3553 
         650         1.92   -0.0010515  0.000756897      52.3553 
         650      2.25333 -0.000710963  0.000846572      52.3553 
         650      2.61333 -0.000360719  0.000915338      52.3554 
         650            3  -2.5694e-05  0.000958707      52.3554 
         700            0           -0           -0       45.558 
         700     0.013333  7.81911e-06  2.65372e-07       45.558 
         700     0.053333 -0.000211622    3.979e-06       45.558 
         700         0.12 -0.000702747  1.78618e-05       45.558 
         700     0.213332  -0.00140877  4.69775e-05       45.558 
         700     0.333332  -0.00208483  8.97144e-05       45.558 
         700         0.48  -0.00249647  0.000138869       45.558 
         700     0.653331  -0.00259138  0.000188124       45.558 
         700     0.853332  -0.00244868  0.000236071       45.558 
         700         1.08  -0.00216743  0.000283322       45.558 
         700      1.33333  -0.00186347  0.000327234       45.558 
         700      1.61333  -0.00161363   0.00036342       45.558 
         700         1.92  -0.00134945  0.000391739       45.558 
         700      2.25333  -0.00103659  0.000412442       45.558 
         700      2.61333  -0.00069031  0.000424331       45.558 
         700            3 -0.000339074  0.000425696       45.558 
         750            0           -0           -0      38.7605 
         750     0.013333 -2.91896e-05 -3.71205e-07      38.7605 
         750     0.053333 -0.000143575 -5.60262e-06      38.7605 
         750         0.12  -4.4587e-06 -2.55029e-05      38.7605 
         750     0.213332  0.000486654 -6.87594e-05      38.7605 
         750     0.333332   0.00113195 -0.000136499      38.7605 
         750         0.48   0.00164764 -0.000222711      38.7605 
         750     0.653331   0.00189684 -0.000320971      38.7605 
         750     0.853332   0.00188191 -0.000429504      38.7605 
         750         1.08   0.00163699 -0.000549409      38.7605 
         750      1.33333   0.00126172 -0.000677388      38.7605 
         750      1.61333  0.000942889  -0.00080267      38.7605 
         750         1.92  0.000739983 -0.000915012      38.7605 
         750      2.25333  0.000557042  -0.00100962      38.7605 
         750      2.61333  0.000358734  -0.00108192      38.7605 
         750            3  0.000164644  -0.00112699      38.7605 
         800            0   2.0375e-19 -9.11846e-27      31.9603 
         800     0.013333  0.000146903  1.21408e-07      31.9603 
         800     0.053333  0.000342999  1.88236e-06      31.9603 
         800         0.12   0.00049548  8.89727e-06      31.9603 
         800     0.213332  0.000501993  2.50378e-05      31.9603 
         800     0.333332  0.000384867  5.19443e-05      31.9603 
         800         0.48  0.000242531  8.84297e-05      31.9603 
         800     0.653331  0.000152976  0.000132387      31.9603 
         800     0.853332  0.000144652  0.000182743      31.9603 
         800         1.08  0.000217477  0.000239184      31.9603 
         800      1.33333  0.000328888  0.000299539      31.9603 
         800      1.61333  0.000390268  0.000358466      31.9603 
         800         1.92  0.000366367  0.000410778      31.9603 
         800      2.25333  0.000314603  0.000454591      31.9603 
         800      2.61333  0.000262389  0.000488061      31.9603 
         800            3  0.000205852  0.000509225      31.9603 
         850            0            0            0      25.1598 
         850     0.013333  3.54322e-05 -1.34677e-08      25.1598 
         850     0.053333 -1.94608e-05 -2.21229e-07      25.1598 
         850         0.12 -7.54225e-05  -1.1214e-06      25.1598 
         850     0.213332 -0.000106119 -3.36874e-06      25.1598 
         850     0.333332 -0.000108497 -7.37615e-06      25.1598 
         850         0.48 -9.71034e-05 -1.30929e-05      25.1598 
         850     0.653331 -8.73362e-05 -2.02229e-05      25.1598 
         850     0.853332 -8.72702e-05 -2.85452e-05      25.1598 
         850         1.08 -9.82075e-05 -3.79102e-05      25.1598 
         850      1.33333 -0.000111827 -4.77926e-05      25.1598 
         850      1.61333 -0.000110011 -5.70821e-05      25.1598 
         850         1.92 -8.63378e-05 -6.48928e-05      25.1598 
         850      2.25333 -5.60276e-05 -7.09628e-05      25.1598 
         850      2.61333 -2.65112e-05 -7.53136e-05      25.1598 
         850            3  3.30222e-06 -7.78433e-05      25.1598 
         900            0  6.93811e-20  3.04099e-27      18.3596 
         900     0.013333  5.97452e-05  1.12372e-09      18.3596 
         900     0.053333  6.37927e-05  1.94249e-08      18.3596 
         900         0.12  6.85078e-05  1.03969e-07      18.3596 
         900     0.213332   7.1834e-05  3.25092e-07      18.3596 
         900     0.333332  7.23365e-05  7.29134e-07      18.3596 
         900         0.48   7.1125e-05  1.30999e-06      18.3596 
         900     0.653331  7.00953e-05  2.03292e-06      18.3596 
         900     0.853332  7.01986e-05  2.87227e-06      18.3596 
         900         1.08  7.16241e-05  3.81367e-06      18.3596 
         900      1.33333  7.34727e-05  4.80543e-06      18.3596 
         900      1.61333  7.35847e-05  5.71609e-06      18.3596 
         900         1.92  7.08759e-05  6.39234e-06      18.3596 
         900      2.25333  6.76635e-05  6.89498e-06      18.3596 
         900      2.61333  6.48917e-05  7.23546e-06      18.3596 
         900            3  6.19945e-05  7.36907e-06      18.3596 
         950            0  1.36739e-19 -8.82744e-28      11.5598 
         950     0.013333  5.69687e-05 -1.50406e-10      11.5598 
         950     0.053333  5.42257e-05 -2.57983e-09      11.5598 
         950         0.12  5.18437e-05 -1.39922e-08      11.5598 
         950     0.213332   5.1112e-05 -4.47864e-08      11.5598 
         950     0.333332  5.12129e-05 -1.02808e-07      11.5598 
         950         0.48  5.14413e-05 -1.88132e-07      11.5598 
         950     0.653331  5.16452e-05 -2.95806e-07      11.5598 
         950     0.853332  5.16952e-05 -4.21138e-07      11.5598 
         950         1.08  5.15836e-05 -5.61876e-07      11.5598 
         950      1.33333  5.14304e-05 -7.11555e-07      11.5598 
         950      1.61333  5.15869e-05 -8.33645e-07      11.5598 
         950         1.92  5.21831e-05 -9.61222e-07      11.5598 
         950      2.25333  5.31085e-05 -1.01023e-06      11.5598 
         950      2.61333  5.43131e-05 -1.06477e-06      11.5598 
         950            3  5.57713e-05 -1.14946e-06      11.5598 
        1000            0           -0           -0      4.75999 
        1000     0.013333  5.74035e-05 -2.63592e-11      4.75999 
        1000     0.053333  5.57024e-05 -3.21008e-10      4.75999 
        1000         0.12  5.44703e-05 -1.04916e-09      4.75999 
        1000     0.213332  5.44811e-05 -1.47737e-09      4.75999 
        1000     0.333332  5.47648e-05 -5.50871e-10      4.75999 
        1000         0.48  5.48393e-05  2.28119e-09      4.75999 
        1000     0.653331  5.48534e-05  4.46163e-09      4.75999 
        1000     0.853332  5.48691e-05  1.28114e-08      4.75999 
        1000         1.08  5.49026e-05  1.57697e-08      4.75999 
        1000      1.33333   5.4957e-05  2.73757e-08      4.75999 
        1000      1.61333   5.5002e-05  2.36093e-08      4.75999 
        1000         1.92  5.49778e-05 -2.62966e-08      4.75999 
        1000      2.25333  5.49591e-05  1.39533e-08      4.75999 
        1000      2.61333  5.52295e-05  1.55572e-08      4.75999 
        1000            3  5.58847e-05 -2.64313e-08      4.75999 
