Variables = x, y, u, v, p

Zone, I=416, F=POINT
         -50            0            0            0     -26.7735 
         -50     0.013333 -1.49941e-05 -1.76399e-08     -26.7735 
         -50     0.053333 -1.60262e-05 -1.26358e-07     -26.7735 
         -50         0.12  -1.3822e-05 -5.13404e-07     -26.7735 
         -50     0.213332 -8.76712e-06 -1.31634e-06     -26.7735 
         -50     0.333332 -5.79315e-06 -2.29464e-06     -26.7734 
         -50         0.48 -6.94226e-06 -2.93227e-06     -26.7734 
         -50     0.653331 -1.03367e-05 -4.52396e-06     -26.7733 
         -50     0.853332 -1.33693e-05 -5.53122e-06     -26.7732 
         -50         1.08 -1.53572e-05 -6.39506e-06      -26.773 
         -50      1.33333 -1.71779e-05 -6.49558e-06     -26.7727 
         -50      1.61333 -1.75822e-05  -6.8963e-06     -26.7724 
         -50         1.92 -1.51363e-05 -7.09337e-06     -26.7719 
         -50      2.25333 -1.59022e-05 -8.42391e-06     -26.7713 
         -50      2.61333 -1.69035e-05 -7.15969e-06     -26.7705 
         -50            3 -1.35315e-05 -8.39677e-07     -26.7696 
         -25            0  -4.4299e-21 -1.86994e-24     -25.7233 
         -25     0.013333 -4.84107e-06 -5.72579e-09     -25.7233 
         -25     0.053333  8.74868e-06 -1.36933e-08     -25.7233 
         -25         0.12  2.33087e-05  6.32081e-08     -25.7233 
         -25     0.213332  3.24652e-05  4.59259e-07     -25.7233 
         -25     0.333332  3.53628e-05  1.36242e-06     -25.7233 
         -25         0.48  3.56761e-05  2.67542e-06     -25.7233 
         -25     0.653331   3.4308e-05  4.27575e-06     -25.7232 
         -25     0.853332  2.88116e-05   5.6099e-06     -25.7232 
         -25         1.08  1.92428e-05  6.64116e-06     -25.7231 
         -25      1.33333  8.99717e-06  7.33567e-06      -25.723 
         -25      1.61333 -1.09726e-06  7.48382e-06     -25.7229 
         -25         1.92 -8.18139e-06  7.46076e-06     -25.7227 
         -25      2.25333 -1.54802e-05   6.4722e-06     -25.7225 
         -25      2.61333  -2.1607e-05  5.65863e-06     -25.7222 
         -25            3 -2.14346e-05  7.54903e-06     -25.7219 
           0            0            0            0     -24.8592 
           0     0.013333 -2.29171e-05  9.23706e-06     -24.8598 
           0     0.053333 -2.30889e-05  6.64788e-06     -24.8612 
           0         0.12 -3.59456e-05  5.40272e-06     -24.8629 
           0     0.213332 -5.16524e-05  5.17598e-06     -24.8647 
           0     0.333332 -6.25611e-05  5.58831e-06     -24.8666 
           0         0.48 -6.61853e-05  6.68405e-06     -24.8684 
           0     0.653331 -6.36552e-05   8.1426e-06     -24.8702 
           0     0.853332 -5.57526e-05  9.91354e-06      -24.872 
           0         1.08 -4.46919e-05  1.18691e-05     -24.8737 
           0      1.33333 -3.43525e-05  1.36599e-05     -24.8754 
           0      1.61333 -2.38847e-05   1.5077e-05      -24.877 
           0         1.92 -1.16186e-05  1.58541e-05     -24.8785 
           0      2.25333  4.95092e-07   1.6139e-05     -24.8799 
           0      2.61333  1.01122e-05  1.58871e-05     -24.8812 
           0            3  1.52183e-05  1.62187e-05     -24.8824 
          20            0  0.000266986 -0.000204975     -24.3386 
          20     0.013333  0.000266439 -0.000205333     -24.3386 
          20     0.053333  0.000266027 -0.000206099     -24.3386 
          20         0.12  0.000269862 -0.000206331     -24.3386 
          20     0.213332  0.000285341 -0.000204464     -24.3385 
          20     0.333332  0.000321261 -0.000198601     -24.3385 
          20         0.48  0.000370868 -0.000187203     -24.3385 
          20     0.653331  0.000398443 -0.000170729     -24.3384 
          20     0.853332  0.000370362 -0.000151336     -24.3384 
          20         1.08  0.000284352 -0.000130723     -24.3383 
          20      1.33333  0.000169646 -0.000109346     -24.3382 
          20      1.61333  4.27868e-05 -8.76711e-05     -24.3381 
          20         1.92 -7.49972e-05 -6.67073e-05      -24.338 
          20      2.25333 -0.000158621 -4.72897e-05     -24.3379 
          20      2.61333 -0.000202616 -3.07543e-05     -24.3378 
          20            3 -0.000218308 -1.67768e-05     -24.3376 
          40            0           -0           -0     -23.8165 
          40     0.013333 -0.000189818 -3.35662e-07     -23.8165 
          40     0.053333 -0.000500732 -5.90895e-06     -23.8165 
          40         0.12 -0.000496414 -3.23079e-05     -23.8165 
          40     0.213332 -8.85506e-05 -0.000102249     -23.8165 
          40     0.333332  0.000362032 -0.000228229     -23.8164 
          40         0.48  0.000814309 -0.000390365     -23.8164 
          40     0.653331   0.00148447 -0.000555676     -23.8164 
          40     0.853332   0.00182776 -0.000739867     -23.8163 
          40         1.08   0.00167131 -0.000942541     -23.8162 
          40      1.33333   0.00133915  -0.00112496     -23.8161 
          40      1.61333  0.000958233  -0.00125759      -23.816 
          40         1.92  0.000569231  -0.00132489     -23.8157 
          40      2.25333  0.000226484  -0.00132379     -23.8155 
          40      2.61333 -2.62647e-05  -0.00126561     -23.8152 
          40            3 -0.000177271  -0.00116995     -23.8148 
          60            0           -0           -0     -23.2898 
          60     0.013333 -0.000225337 -5.60656e-07     -23.2898 
          60     0.053333 -0.000648626 -8.37581e-06     -23.2898 
          60         0.12 -0.000868851 -3.70914e-05     -23.2898 
          60     0.213332 -0.000774829 -9.59565e-05     -23.2898 
          60     0.333332 -0.000575013 -0.000184129     -23.2898 
          60         0.48 -0.000499144 -0.000300051     -23.2898 
          60     0.653331 -0.000704019 -0.000449961     -23.2898 
          60     0.853332  -0.00114807 -0.000634133     -23.2898 
          60         1.08  -0.00144361 -0.000827184     -23.2898 
          60      1.33333   -0.0013321 -0.000993908     -23.2898 
          60      1.61333 -0.000957438  -0.00111345     -23.2897 
          60         1.92 -0.000571684  -0.00116927     -23.2897 
          60      2.25333 -0.000211589  -0.00116008     -23.2897 
          60      2.61333  6.08196e-05  -0.00109966     -23.2896 
          60            3   0.00021839  -0.00100505     -23.2896 
          80            0           -0           -0     -22.7876 
          80     0.013333 -5.85631e-05  2.94889e-07     -22.7876 
          80     0.053333 -0.000260005  4.32778e-06     -22.7876 
          80         0.12 -0.000647396  1.84903e-05     -22.7876 
          80     0.213332  -0.00109492  4.48192e-05     -22.7876 
          80     0.333332  -0.00139102  7.71295e-05     -22.7875 
          80         0.48   -0.0014335  0.000108072     -22.7875 
          80     0.653331  -0.00123269  0.000136447     -22.7875 
          80     0.853332 -0.000904181  0.000159749     -22.7875 
          80         1.08 -0.000689126  0.000167215     -22.7875 
          80      1.33333 -0.000560958  0.000160506     -22.7875 
          80      1.61333  -0.00035967   0.00015087     -22.7875 
          80         1.92 -0.000118495   0.00013877     -22.7875 
          80      2.25333  7.63525e-05  0.000123545     -22.7874 
          80      2.61333  0.000207158  0.000106215     -22.7874 
          80            3  0.000284715  8.94772e-05     -22.7873 
         100            0           -0           -0     -22.2969 
         100     0.013333 -4.37072e-05  5.04487e-07     -22.2969 
         100     0.053333 -0.000253636   7.2314e-06     -22.2969 
         100         0.12 -0.000746915  3.02735e-05     -22.2969 
         100     0.213332  -0.00139166  7.33902e-05     -22.2969 
         100     0.333332  -0.00192166  0.000130303     -22.2969 
         100         0.48  -0.00218911  0.000193673     -22.2969 
         100     0.653331  -0.00212885  0.000264835     -22.2969 
         100     0.853332  -0.00169493   0.00034885     -22.2969 
         100         1.08  -0.00116979  0.000432873     -22.2969 
         100      1.33333 -0.000883459  0.000496527     -22.2968 
         100      1.61333 -0.000618856   0.00053981     -22.2968 
         100         1.92 -0.000247644   0.00056357     -22.2968 
         100      2.25333  6.86017e-05  0.000564339     -22.2967 
         100      2.61333  0.000292804  0.000542675     -22.2967 
         100            3  0.000439921  0.000504263     -22.2966 
         150            0            0            0      -21.095 
         150     0.013333 -0.000195114   6.8217e-07      -21.095 
         150     0.053333 -0.000827717  9.56511e-06      -21.095 
         150         0.12  -0.00187352  3.85873e-05      -21.095 
         150     0.213332  -0.00295365  8.85598e-05      -21.095 
         150     0.333332  -0.00362897  0.000145839      -21.095 
         150         0.48  -0.00380804  0.000197019      -21.095 
         150     0.653331  -0.00363742  0.000241732      -21.095 
         150     0.853332   -0.0031914  0.000289032      -21.095 
         150         1.08  -0.00254881  0.000340459      -21.095 
         150      1.33333  -0.00189464  0.000386817      -21.095 
         150      1.61333  -0.00125627   0.00041953     -21.0949 
         150         1.92 -0.000569898   0.00043604     -21.0949 
         150      2.25333  2.16451e-05   0.00043534     -21.0948 
         150      2.61333  0.000473159   0.00041672     -21.0948 
         150            3  0.000785085  0.000384061     -21.0947 
         200            0           -0           -0     -19.9071 
         200     0.013333  -0.00044769  3.89521e-07     -19.9071 
         200     0.053333  -0.00163353  4.70737e-06     -19.9071 
         200         0.12  -0.00308698  1.39338e-05     -19.9071 
         200     0.213332  -0.00414066  1.55244e-05     -19.9071 
         200     0.333332  -0.00446845 -9.86173e-06     -19.9071 
         200         0.48  -0.00430028 -7.02434e-05     -19.9071 
         200     0.653331   -0.0039927 -0.000156022     -19.9071 
         200     0.853332  -0.00360483  -0.00024734     -19.9071 
         200         1.08  -0.00301943 -0.000327993     -19.9071 
         200      1.33333  -0.00229495 -0.000393616     -19.9071 
         200      1.61333  -0.00155212 -0.000447933      -19.907 
         200         1.92 -0.000782481 -0.000486587      -19.907 
         200      2.25333 -8.96778e-05 -0.000504908     -19.9069 
         200      2.61333  0.000471371 -0.000504056     -19.9069 
         200            3  0.000882933 -0.000484647     -19.9068 
         250            0 -1.87411e-19  6.04421e-27     -18.7217 
         250     0.013333  -0.00024566  -3.3721e-07     -18.7217 
         250     0.053333 -0.000761157 -5.39529e-06     -18.7217 
         250         0.12  -0.00113159 -2.61789e-05     -18.7217 
         250     0.213332  -0.00111519 -7.42855e-05     -18.7217 
         250     0.333332 -0.000843555 -0.000152985     -18.7217 
         250         0.48 -0.000599643 -0.000257166     -18.7217 
         250     0.653331 -0.000558668 -0.000381007     -18.7217 
         250     0.853332 -0.000719337 -0.000518536     -18.7217 
         250         1.08 -0.000864544 -0.000655124     -18.7217 
         250      1.33333 -0.000774504 -0.000771679     -18.7217 
         250      1.61333 -0.000559415 -0.000861585     -18.7217 
         250         1.92  -0.00035836 -0.000921888     -18.7216 
         250      2.25333 -0.000169226 -0.000947241     -18.7216 
         250      2.61333 -1.90101e-07 -0.000936905     -18.7216 
         250            3  0.000132653 -0.000893513     -18.7216 
         300            0           -0           -0     -17.5371 
         300     0.013333   0.00029726  1.11855e-07     -17.5371 
         300     0.053333   0.00102281   2.2729e-06     -17.5371 
         300         0.12   0.00170537  1.40639e-05     -17.5371 
         300     0.213332   0.00192059  4.88637e-05     -17.5371 
         300     0.333332   0.00163041  0.000117516     -17.5371 
         300         0.48   0.00115124  0.000220099     -17.5371 
         300     0.653331  0.000797891  0.000347775     -17.5371 
         300     0.853332  0.000642876  0.000488406     -17.5371 
         300         1.08  0.000545458  0.000628661     -17.5371 
         300      1.33333  0.000386284  0.000757892     -17.5371 
         300      1.61333  0.000207244  0.000871622     -17.5371 
         300         1.92  4.72968e-05  0.000962847     -17.5371 
         300      2.25333 -9.88807e-05   0.00102301     -17.5371 
         300      2.61333 -0.000220855    0.0010478     -17.5371 
         300            3 -0.000305466    0.0010362     -17.5372 
         350            0            0            0     -16.3526 
         350     0.013333 -3.62876e-05 -4.53134e-07     -16.3526 
         350     0.053333  9.28191e-06 -6.68282e-06     -16.3526 
         350         0.12  0.000351142 -2.94203e-05     -16.3526 
         350     0.213332  0.000992862 -7.64433e-05     -16.3526 
         350     0.333332   0.00169294 -0.000146785     -16.3526 
         350         0.48   0.00221282 -0.000233811     -16.3526 
         350     0.653331   0.00246416 -0.000332704     -16.3526 
         350     0.853332   0.00243346 -0.000443597     -16.3526 
         350         1.08   0.00213751 -0.000566831     -16.3526 
         350      1.33333   0.00170899  -0.00069559     -16.3526 
         350      1.61333   0.00130395 -0.000816506     -16.3526 
         350         1.92  0.000898814 -0.000918235     -16.3526 
         350      2.25333  0.000499827 -0.000993131     -16.3526 
         350      2.61333  0.000125221  -0.00103518     -16.3527 
         350            3 -0.000200097  -0.00104166     -16.3527 
         400            0           -0           -0     -15.1685 
         400     0.013333   9.7843e-05  1.40829e-07     -15.1685 
         400     0.053333  0.000326076  2.25259e-06     -15.1685 
         400         0.12  0.000490075  1.10618e-05     -15.1685 
         400     0.213332  0.000461451   3.2218e-05     -15.1685 
         400     0.333332  0.000277702  6.85404e-05     -15.1685 
         400         0.48  8.01681e-05  0.000118468     -15.1685 
         400     0.653331 -2.28395e-05  0.000178352     -15.1685 
         400     0.853332 -1.67105e-05  0.000244517     -15.1685 
         400         1.08  3.55935e-05  0.000312713     -15.1685 
         400      1.33333  6.49983e-05  0.000378603     -15.1685 
         400      1.61333  6.37304e-05  0.000439082     -15.1685 
         400         1.92  5.42184e-05  0.000490543     -15.1685 
         400      2.25333  3.94645e-05   0.00052886     -15.1685 
         400      2.61333  2.22741e-05  0.000550879     -15.1685 
         400            3  6.33529e-06   0.00055491     -15.1685 
         450            0  6.36457e-20  4.53473e-27     -13.9832 
         450     0.013333  0.000173319  2.58592e-07     -13.9832 
         450     0.053333   0.00054323  4.25473e-06     -13.9832 
         450         0.12  0.000725817  2.15491e-05     -13.9832 
         450     0.213332  0.000474763  6.42249e-05     -13.9832 
         450     0.333332 -8.22868e-05  0.000138036     -13.9832 
         450         0.48 -0.000593687  0.000237754     -13.9832 
         450     0.653331 -0.000826311  0.000352594     -13.9832 
         450     0.853332 -0.000796123  0.000472653     -13.9831 
         450         1.08 -0.000679882   0.00058868     -13.9831 
         450      1.33333  -0.00062682  0.000692704     -13.9832 
         450      1.61333 -0.000603843  0.000782183     -13.9832 
         450         1.92 -0.000530158  0.000855362     -13.9832 
         450      2.25333 -0.000427523   0.00090676     -13.9832 
         450      2.61333 -0.000313903  0.000931618     -13.9832 
         450            3 -0.000194756   0.00092738     -13.9832 
         500            0           -0           -0     -12.7949 
         500     0.013333  0.000301281 -7.84025e-07     -12.7949 
         500     0.053333   0.00130866 -1.11437e-05     -12.7949 
         500         0.12   0.00298698 -4.60737e-05     -12.7949 
         500     0.213332   0.00484516 -0.000109368     -12.7949 
         500     0.333332   0.00619188 -0.000186637     -12.7949 
         500         0.48   0.00673649 -0.000258686     -12.7949 
         500     0.653331   0.00667836 -0.000318988     -12.7948 
         500     0.853332   0.00626069 -0.000376593     -12.7948 
         500         1.08   0.00552145 -0.000444664     -12.7948 
         500      1.33333   0.00455045 -0.000523993     -12.7949 
         500      1.61333   0.00359135 -0.000600535     -12.7949 
         500         1.92   0.00266051 -0.000662881     -12.7949 
         500      2.25333   0.00170178 -0.000708044     -12.7949 
         500      2.61333  0.000737635 -0.000732905      -12.795 
         500            3 -0.000154276 -0.000734951     -12.7951 
         550            0           -0           -0     -11.6108 
         550     0.013333 -0.000598221  2.37851e-07     -11.6108 
         550     0.053333  -0.00217995  2.68119e-06     -11.6108 
         550         0.12  -0.00415579  6.26508e-06     -11.6108 
         550     0.213332  -0.00572086 -1.43088e-06     -11.6108 
         550     0.333332  -0.00639394 -3.94378e-05     -11.6108 
         550         0.48  -0.00632746 -0.000118844     -11.6108 
         550     0.653331  -0.00600304 -0.000235827     -11.6108 
         550     0.853332  -0.00571934 -0.000375887     -11.6108 
         550         1.08  -0.00538415 -0.000518961     -11.6108 
         550      1.33333  -0.00475633  -0.00064666     -11.6108 
         550      1.61333  -0.00386714 -0.000753249     -11.6108 
         550         1.92  -0.00293499 -0.000842493     -11.6107 
         550      2.25333  -0.00198321 -0.000911784     -11.6107 
         550      2.61333  -0.00102306 -0.000955921     -11.6106 
         550            3 -0.000113326  -0.00097077     -11.6106 
         600            0            0            0     -10.4184 
         600     0.013333  0.000343281 -3.58915e-08     -10.4184 
         600     0.053333   0.00125639  -7.6396e-08     -10.4184 
         600         0.12    0.0023516  2.66016e-06     -10.4184 
         600     0.213332   0.00318238  1.63362e-05     -10.4184 
         600     0.333332   0.00353188  5.05784e-05     -10.4184 
         600         0.48   0.00352235  0.000109558     -10.4184 
         600     0.653331   0.00341641  0.000190312     -10.4184 
         600     0.853332   0.00336585  0.000285694     -10.4184 
         600         1.08   0.00331148  0.000385501     -10.4184 
         600      1.33333   0.00307322  0.000477709     -10.4184 
         600      1.61333   0.00260157  0.000554879     -10.4184 
         600         1.92   0.00204962  0.000617275     -10.4184 
         600      2.25333   0.00147271  0.000664451     -10.4185 
         600      2.61333  0.000883388  0.000693364     -10.4185 
         600            3  0.000308397  0.000701138     -10.4185 
         650            0            0            0     -9.22793 
         650     0.013333 -0.000134669 -1.92302e-07     -9.22793 
         650     0.053333 -0.000394646 -3.10513e-06     -9.22793 
         650         0.12 -0.000514286 -1.54382e-05     -9.22793 
         650     0.213332  -0.00031058 -4.55019e-05     -9.22793 
         650     0.333332  0.000134159 -9.75066e-05     -9.22793 
         650         0.48  0.000564699 -0.000168301     -9.22793 
         650     0.653331   0.00079284 -0.000250595     -9.22793 
         650     0.853332  0.000802129 -0.000338034     -9.22793 
         650         1.08  0.000689318 -0.000425892     -9.22793 
         650      1.33333    0.0005807 -0.000508958     -9.22793 
         650      1.61333  0.000533889 -0.000582498     -9.22793 
         650         1.92  0.000487695 -0.000644702     -9.22793 
         650      2.25333  0.000413702 -0.000693226     -9.22793 
         650      2.61333  0.000318832 -0.000724954     -9.22793 
         650            3  0.000216005 -0.000736914     -9.22793 
         700            0           -0           -0     -8.03395 
         700     0.013333  0.000577601  2.08081e-07     -8.03395 
         700     0.053333   0.00201461  3.83931e-06     -8.03395 
         700         0.12   0.00350327  2.22299e-05     -8.03395 
         700     0.213332   0.00423252  7.54067e-05     -8.03395 
         700     0.333332   0.00395122  0.000182372     -8.03395 
         700         0.48   0.00307847  0.000348298     -8.03395 
         700     0.653331   0.00223161  0.000562898     -8.03395 
         700     0.853332   0.00173994  0.000809461     -8.03394 
         700         1.08   0.00155068   0.00107146     -8.03395 
         700      1.33333   0.00141574   0.00133337     -8.03395 
         700      1.61333   0.00116834   0.00158232     -8.03395 
         700         1.92  0.000861858   0.00180939     -8.03397 
         700      2.25333  0.000544425   0.00200418     -8.03399 
         700      2.61333  0.000229862   0.00215455     -8.03401 
         700            3 -6.97682e-05   0.00224929     -8.03405 
         750            0           -0           -0     -6.84296 
         750     0.013333 -0.000853544  7.50293e-07     -6.84296 
         750     0.053333  -0.00329038  1.03009e-05     -6.84296 
         750         0.12  -0.00678986  3.99996e-05     -6.84296 
         750     0.213332   -0.0102496  8.55032e-05     -6.84296 
         750     0.333332    -0.012548  0.000121862     -6.84296 
         750         0.48   -0.0133404  0.000121233     -6.84296 
         750     0.653331   -0.0131119  7.35348e-05     -6.84297 
         750     0.853332   -0.0124851 -9.82684e-06     -6.84297 
         750         1.08   -0.0116484 -0.000105395     -6.84297 
         750      1.33333   -0.0104608 -0.000192389     -6.84297 
         750      1.61333  -0.00893364 -0.000264869     -6.84295 
         750         1.92  -0.00728589 -0.000329738     -6.84292 
         750      2.25333  -0.00554575 -0.000388896     -6.84286 
         750      2.61333  -0.00372151 -0.000439398     -6.84278 
         750            3  -0.00187446 -0.000477735     -6.84266 
         800            0 -3.52063e-19  2.60983e-26     -5.64035 
         800     0.013333 -0.000452429 -1.06147e-06     -5.64035 
         800     0.053333  -0.00127398 -1.62956e-05     -5.64035 
         800         0.12  -0.00140248 -7.62126e-05     -5.64035 
         800     0.213332 -0.000220054 -0.000212771     -5.64035 
         800     0.333332   0.00188283 -0.000439029     -5.64035 
         800         0.48   0.00395301 -0.000743212     -5.64035 
         800     0.653331    0.0052945  -0.00110294     -5.64035 
         800     0.853332   0.00573801  -0.00150268     -5.64034 
         800         1.08   0.00539561  -0.00193646     -5.64034 
         800      1.33333   0.00454766  -0.00239445     -5.64034 
         800      1.61333   0.00364349  -0.00285216     -5.64035 
         800         1.92   0.00294909  -0.00327919     -5.64036 
         800      2.25333   0.00230497  -0.00365312     -5.64037 
         800      2.61333   0.00162321  -0.00395349      -5.6404 
         800            3  0.000927793  -0.00416088     -5.64044 
         850            0            0            0     -4.43854 
         850     0.013333  0.000846959  -6.1516e-07     -4.43854 
         850     0.053333    0.0032778 -8.39147e-06     -4.43854 
         850         0.12   0.00672717 -3.21721e-05     -4.43854 
         850     0.213332    0.0101284 -6.70647e-05     -4.43854 
         850     0.333332    0.0124226  -9.0393e-05     -4.43853 
         850         0.48    0.0132705 -7.68867e-05     -4.43853 
         850     0.653331    0.0131105 -1.67479e-05     -4.43853 
         850     0.853332    0.0125499  8.08543e-05     -4.43852 
         850         1.08    0.0118299  0.000195877     -4.43852 
         850      1.33333    0.0108398   0.00030861     -4.43853 
         850      1.61333   0.00949365  0.000408113     -4.43854 
         850         1.92    0.0079304  0.000495311     -4.43857 
         850      2.25333   0.00624508  0.000572585     -4.43861 
         850      2.61333   0.00445988  0.000636536     -4.43869 
         850            3   0.00261883  0.000682933     -4.43879 
         900            0  1.95177e-19 -4.20557e-29     -3.24282 
         900     0.013333  0.000518705  1.00406e-06     -3.24282 
         900     0.053333   0.00156667  1.55521e-05     -3.24282 
         900         0.12      0.00201  7.35738e-05     -3.24282 
         900     0.213332   0.00113694   0.00020765     -3.24282 
         900     0.333332 -0.000725196  0.000432009     -3.24282 
         900         0.48  -0.00260859  0.000735092     -3.24282 
         900     0.653331  -0.00376554   0.00109398     -3.24282 
         900     0.853332  -0.00400269    0.0014927     -3.24282 
         900         1.08   -0.0034799   0.00192376     -3.24282 
         900      1.33333  -0.00259649   0.00237305     -3.24282 
         900      1.61333  -0.00186861   0.00281337     -3.24282 
         900         1.92  -0.00146207   0.00321949     -3.24281 
         900      2.25333  -0.00115714   0.00357482      -3.2428 
         900      2.61333  -0.00082051   0.00386425     -3.24279 
         900            3 -0.000458331   0.00407053     -3.24276 
         950            0 -4.89882e-19 -8.70236e-26     -2.04392 
         950     0.013333 -0.000679738  6.48238e-08     -2.04392 
         950     0.053333  -0.00245421  2.26537e-07     -2.04392 
         950         0.12  -0.00463804 -3.95594e-06     -2.04392 
         950     0.213332  -0.00636951 -2.63908e-05     -2.04392 
         950     0.333332  -0.00715414 -8.47195e-05     -2.04392 
         950         0.48  -0.00715032 -0.000187933     -2.04393 
         950     0.653331  -0.00688278 -0.000331906     -2.04393 
         950     0.853332  -0.00675393 -0.000504746     -2.04393 
         950         1.08  -0.00677645 -0.000690351     -2.04393 
         950      1.33333  -0.00659825 -0.000867166     -2.04393 
         950      1.61333  -0.00591284  -0.00101607     -2.04393 
         950         1.92  -0.00491652  -0.00113708     -2.04392 
         950      2.25333  -0.00388649  -0.00123513     -2.04389 
         950      2.61333  -0.00287425  -0.00131057     -2.04385 
         950            3   -0.0018277  -0.00135823      -2.0438 
        1000            0           -0           -0    -0.840475 
        1000     0.013333  0.000234883 -1.09133e-07    -0.840475 
        1000     0.053333  0.000877061 -1.22462e-06    -0.840475 
        1000         0.12   0.00165372  -2.8295e-06    -0.840475 
        1000     0.213332   0.00219378  1.09987e-06    -0.840475 
        1000     0.333332   0.00227553   2.0086e-05    -0.840474 
        1000         0.48   0.00200763  5.94827e-05    -0.840473 
        1000     0.653331   0.00168747   0.00011609    -0.840471 
        1000     0.853332   0.00151035  0.000180765    -0.840469 
        1000         1.08   0.00142493  0.000242193    -0.840468 
        1000      1.33333   0.00122052   0.00028931    -0.840468 
        1000      1.61333   0.00082158  0.000318307     -0.84047 
        1000         1.92  0.000450877  0.000337026    -0.840476 
        1000      2.25333  0.000190828  0.000353276    -0.840487 
        1000      2.61333 -6.82693e-06  0.000366701    -0.840505 
        1000            3 -0.000196696   0.00037384     -0.84053 
