Variables = x, y, u, v, p

Zone, I=416, F=POINT
         -50            0            0            0      103.869 
         -50     0.013333  6.37645e-05  1.91472e-08      103.869 
         -50     0.053333  6.54758e-05 -2.72885e-08      103.869 
         -50         0.12  7.26414e-05 -2.22238e-07      103.869 
         -50     0.213332  8.21144e-05 -5.51225e-07      103.869 
         -50     0.333332  9.17586e-05 -9.07432e-07      103.869 
         -50         0.48  9.91904e-05 -1.18962e-06      103.869 
         -50     0.653331   0.00010244 -2.32117e-06      103.868 
         -50     0.853332  9.92949e-05 -3.43975e-06      103.868 
         -50         1.08   9.2664e-05 -3.95754e-06      103.867 
         -50      1.33333  8.72384e-05 -5.00752e-06      103.866 
         -50      1.61333  8.33727e-05 -4.79627e-06      103.865 
         -50         1.92  7.67274e-05 -4.67686e-06      103.863 
         -50      2.25333  6.88146e-05 -4.93498e-06      103.861 
         -50      2.61333  6.23521e-05  -5.4011e-06      103.858 
         -50            3  5.86161e-05 -4.82163e-06      103.854 
         -25            0           -0           -0      99.8208 
         -25     0.013333  4.89126e-05  8.56151e-09      99.8208 
         -25     0.053333  5.39022e-05  1.55099e-08      99.8208 
         -25         0.12  5.86016e-05  8.83242e-08      99.8208 
         -25     0.213332  5.73101e-05  4.10224e-07      99.8208 
         -25     0.333332  5.11218e-05  1.15781e-06      99.8207 
         -25         0.48  4.41936e-05  2.31471e-06      99.8206 
         -25     0.653331  3.95881e-05   3.7313e-06      99.8205 
         -25     0.853332  3.73993e-05  5.22273e-06      99.8203 
         -25         1.08  3.70434e-05  6.63864e-06      99.8201 
         -25      1.33333  3.77649e-05  7.91599e-06      99.8197 
         -25      1.61333  3.90043e-05  8.76093e-06      99.8192 
         -25         1.92  3.88641e-05  9.25494e-06      99.8185 
         -25      2.25333  3.65662e-05  8.29909e-06      99.8177 
         -25      2.61333  3.34039e-05  7.29988e-06      99.8166 
         -25            3  3.21368e-05  8.51227e-06      99.8153 
           0            0  1.07305e-19 -3.58037e-20      96.4787 
           0     0.013333  7.48696e-05 -5.96756e-05      96.4823 
           0     0.053333  7.42402e-05 -3.38382e-05      96.4883 
           0         0.12  5.15193e-05 -3.01429e-05      96.4951 
           0     0.213332  2.31866e-05 -2.26415e-05      96.5022 
           0     0.333332  1.35585e-07 -1.61144e-05      96.5095 
           0         0.48 -1.30478e-05 -9.56621e-06      96.5168 
           0     0.653331 -1.61792e-05 -2.92741e-06       96.524 
           0     0.853332 -1.18533e-05  3.75277e-06       96.531 
           0         1.08 -5.44959e-06  1.01287e-05      96.5378 
           0      1.33333  1.22643e-07   1.5751e-05      96.5443 
           0      1.61333    7.884e-06  2.02175e-05      96.5506 
           0         1.92  1.81851e-05  2.32428e-05      96.5565 
           0      2.25333  2.88219e-05  2.48313e-05      96.5621 
           0      2.61333   3.6889e-05  2.48275e-05      96.5674 
           0            3  3.91049e-05   2.3771e-05      96.5723 
          20            0  0.000141201 -7.11953e-05      94.4587 
          20     0.013333  0.000142528 -7.11885e-05      94.4587 
          20     0.053333  0.000147079 -7.10463e-05      94.4587 
          20         0.12  0.000156568 -7.04044e-05      94.4587 
          20     0.213332  0.000173298 -6.86806e-05      94.4587 
          20     0.333332  0.000197837 -6.52646e-05      94.4586 
          20         0.48  0.000223011 -5.98185e-05      94.4585 
          20     0.653331  0.000231826 -5.24422e-05      94.4584 
          20     0.853332  0.000212504 -4.40225e-05      94.4583 
          20         1.08  0.000166957 -3.51692e-05      94.4582 
          20      1.33333  0.000107371 -2.59992e-05       94.458 
          20      1.61333  4.24872e-05  -1.7303e-05      94.4578 
          20         1.92 -1.60874e-05 -9.55411e-06      94.4575 
          20      2.25333 -5.73866e-05 -2.78304e-06      94.4572 
          20      2.61333 -7.75491e-05  3.26518e-06      94.4569 
          20            3 -7.90721e-05  9.08376e-06      94.4564 
          40            0  0.000651762  -0.00138003      92.4745 
          40     0.013333  0.000599148  -0.00137753      92.4744 
          40     0.053333  0.000449288  -0.00136735      92.4744 
          40         0.12  0.000232897  -0.00134139      92.4743 
          40     0.213332  1.74275e-05  -0.00128648      92.4742 
          40     0.333332 -0.000101385  -0.00118748      92.4741 
          40         0.48 -8.05224e-05  -0.00103533      92.4739 
          40     0.653331 -3.57371e-05 -0.000836232      92.4736 
          40     0.853332 -0.000167621  -0.00060952      92.4733 
          40         1.08 -0.000515802  -0.00037481      92.4728 
          40      1.33333 -0.000939723 -0.000146497      92.4723 
          40      1.61333  -0.00130569  6.20809e-05      92.4716 
          40         1.92  -0.00153561  0.000237895      92.4708 
          40      2.25333   -0.0015941    0.0003728      92.4698 
          40      2.61333  -0.00150625   0.00046508      92.4687 
          40            3  -0.00133275   0.00051756      92.4674 
          60            0            0            0      90.4914 
          60     0.013333   0.00179706 -1.52388e-06      90.4914 
          60     0.053333   0.00646562  -1.7506e-05      90.4914 
          60         0.12    0.0120157 -4.45879e-05      90.4914 
          60     0.213332    0.0160448 -1.77222e-05      90.4914 
          60     0.333332    0.0179325  0.000151003      90.4914 
          60         0.48    0.0185621  0.000472346      90.4913 
          60     0.653331    0.0183965  0.000867471      90.4913 
          60     0.853332    0.0177563   0.00131968      90.4912 
          60         1.08    0.0161368   0.00183041      90.4911 
          60      1.33333    0.0124517   0.00229269      90.4908 
          60      1.61333   0.00757478   0.00263261      90.4905 
          60         1.92   0.00275228   0.00282451      90.4899 
          60      2.25333   -0.0012036   0.00286047      90.4893 
          60      2.61333  -0.00381814   0.00277466      90.4885 
          60            3  -0.00501982   0.00260078      90.4876 
          80            0            0            0      88.5292 
          80     0.013333    0.0013073 -1.05802e-06      88.5292 
          80     0.053333   0.00461919  -1.0473e-05      88.5292 
          80         0.12   0.00827127 -1.49207e-05      88.5292 
          80     0.213332    0.0103178  4.56066e-05      88.5292 
          80     0.333332    0.0105991  0.000227128      88.5292 
          80         0.48    0.0107444  0.000522116      88.5292 
          80     0.653331    0.0117181  0.000841293      88.5292 
          80     0.853332    0.0119142   0.00100323      88.5292 
          80         1.08   0.00976745  0.000898501      88.5292 
          80      1.33333   0.00674345  0.000630827       88.529 
          80      1.61333   0.00390368  0.000357574      88.5289 
          80         1.92  0.000834001  0.000109697      88.5286 
          80      2.25333  -0.00141878  -0.00010425      88.5282 
          80      2.61333  -0.00274662 -0.000264218      88.5278 
          80            3  -0.00357794 -0.000380038      88.5274 
         100            0           -0           -0      86.6239 
         100     0.013333  0.000687341  1.59685e-06      86.6239 
         100     0.053333   0.00191053  2.55904e-05      86.6239 
         100         0.12   0.00220349  0.000123589      86.6239 
         100     0.213332  0.000943015  0.000345496      86.6239 
         100     0.333332 -0.000937163  0.000695393      86.6239 
         100         0.48  -0.00194318   0.00114218      86.6239 
         100     0.653331   -0.0010421   0.00165802      86.6239 
         100     0.853332   0.00115989   0.00217087      86.6239 
         100         1.08    0.0017267   0.00250854      86.6238 
         100      1.33333  0.000327559   0.00261129      86.6238 
         100      1.61333 -0.000348107   0.00262135      86.6238 
         100         1.92 -0.000351981   0.00257228      86.6237 
         100      2.25333 -0.000324592   0.00244522      86.6237 
         100      2.61333 -0.000320313   0.00225271      86.6236 
         100            3 -0.000253251    0.0020155      86.6235 
         150            0           -0           -0      81.9769 
         150     0.013333 -0.000406638 -1.49304e-06      81.9769 
         150     0.053333  -0.00115881 -2.25958e-05      81.9769 
         150         0.12  -0.00122192 -0.000102055      81.9769 
         150     0.213332 -0.000359906 -0.000269338      81.9769 
         150     0.333332  0.000730905 -0.000520542      81.9769 
         150         0.48   0.00132142 -0.000833426      81.9769 
         150     0.653331   0.00114199  -0.00119454      81.9769 
         150     0.853332  0.000350436  -0.00158976      81.9769 
         150         1.08 -0.000402116  -0.00197438      81.9769 
         150      1.33333 -0.000641843  -0.00229537      81.9769 
         150      1.61333 -0.000560823   -0.0025297      81.9769 
         150         1.92 -0.000434611  -0.00265812      81.9769 
         150      2.25333  -0.00032464   -0.0026752      81.9768 
         150      2.61333 -0.000248216  -0.00258987      81.9768 
         150            3 -0.000169232  -0.00241919      81.9767 
         200            0           -0           -0      77.3938 
         200     0.013333  0.000867726    1.264e-06      77.3938 
         200     0.053333   0.00262927  2.04468e-05      77.3938 
         200         0.12   0.00373453  0.000100752      77.3938 
         200     0.213332   0.00328675   0.00029057      77.3938 
         200     0.333332   0.00186307  0.000606248      77.3938 
         200         0.48  0.000653194   0.00102532      77.3938 
         200     0.653331  0.000315607   0.00151395      77.3938 
         200     0.853332  0.000694633   0.00203663      77.3938 
         200         1.08   0.00105568   0.00254281      77.3938 
         200      1.33333  0.000920008   0.00298201      77.3938 
         200      1.61333  0.000560774   0.00333078      77.3938 
         200         1.92   0.00027654   0.00356271      77.3938 
         200      2.25333  3.70815e-05   0.00365691      77.3937 
         200      2.61333 -0.000155638   0.00361244      77.3937 
         200            3 -0.000291049   0.00344195      77.3937 
         250            0           -0           -0      72.8288 
         250     0.013333 -0.000654398  1.26245e-06      72.8288 
         250     0.053333  -0.00265098  1.68051e-05      72.8288 
         250         0.12   -0.0054105  6.18008e-05      72.8288 
         250     0.213332  -0.00773702  0.000122456      72.8288 
         250     0.333332  -0.00874229  0.000160576      72.8288 
         250         0.48  -0.00861975  0.000152788      72.8288 
         250     0.653331   -0.0080086  0.000113146      72.8288 
         250     0.853332  -0.00704619  8.06691e-05      72.8288 
         250         1.08  -0.00559348  8.16616e-05      72.8288 
         250      1.33333   -0.0040372   0.00010204      72.8289 
         250      1.61333  -0.00269857  0.000112598      72.8289 
         250         1.92  -0.00133849  0.000112608       72.829 
         250      2.25333 -8.99406e-05  0.000106596      72.8291 
         250      2.61333    0.0009462  9.29302e-05      72.8293 
         250            3   0.00172486   7.4311e-05      72.8294 
         300            0            0            0      68.2738 
         300     0.013333 -0.000936635  7.81027e-07      68.2738 
         300     0.053333  -0.00355114  9.47572e-06      68.2738 
         300         0.12  -0.00681514  2.83911e-05      68.2738 
         300     0.213332  -0.00930937  3.31729e-05      68.2738 
         300     0.333332   -0.0102735 -1.47206e-05      68.2738 
         300         0.48   -0.0101266 -0.000132965      68.2738 
         300     0.653331  -0.00965884  -0.00030483      68.2738 
         300     0.853332  -0.00905821 -0.000490378      68.2738 
         300         1.08  -0.00794856 -0.000648113      68.2738 
         300      1.33333  -0.00630596 -0.000762524      68.2738 
         300      1.61333  -0.00457538 -0.000849189      68.2738 
         300         1.92  -0.00282168 -0.000911778      68.2739 
         300      2.25333  -0.00114097 -0.000941916       68.274 
         300      2.61333  0.000363096 -0.000939262      68.2742 
         300            3   0.00158907 -0.000904402      68.2744 
         350            0           -0           -0      63.7237 
         350     0.013333 -0.000334135  9.92322e-08      63.7237 
         350     0.053333  -0.00125462  5.14133e-07      63.7237 
         350         0.12  -0.00224532 -3.64373e-06      63.7237 
         350     0.213332  -0.00279642 -2.61874e-05      63.7237 
         350     0.333332  -0.00281967  -7.9474e-05      63.7237 
         350         0.48  -0.00265695 -0.000162426      63.7237 
         350     0.653331  -0.00262741 -0.000262513      63.7237 
         350     0.853332  -0.00269106 -0.000361273      63.7237 
         350         1.08  -0.00249624 -0.000435866      63.7237 
         350      1.33333  -0.00191027 -0.000474026      63.7237 
         350      1.61333   -0.0012828 -0.000488247      63.7237 
         350         1.92 -0.000745798 -0.000489061      63.7237 
         350      2.25333 -0.000253531 -0.000474336      63.7238 
         350      2.61333  0.000192079 -0.000444594      63.7238 
         350            3  0.000553101 -0.000401791      63.7239 
         400            0 -1.91734e-19 -8.09426e-28      59.1708 
         400     0.013333 -0.000609376  6.11672e-07      59.1708 
         400     0.053333  -0.00242412  8.21921e-06      59.1708 
         400         0.12  -0.00493872  3.07112e-05      59.1708 
         400     0.213332  -0.00726415  6.16876e-05      59.1708 
         400     0.333332  -0.00862412  7.88585e-05      59.1708 
         400         0.48  -0.00892575  6.04505e-05      59.1708 
         400     0.653331  -0.00862943   2.9517e-07      59.1708 
         400     0.853332  -0.00814171 -9.06686e-05      59.1708 
         400         1.08  -0.00745642 -0.000191143      59.1708 
         400      1.33333  -0.00641409  -0.00028248      59.1708 
         400      1.61333  -0.00511324  -0.00036179      59.1708 
         400         1.92  -0.00369867 -0.000431764      59.1708 
         400      2.25333  -0.00224138 -0.000488558      59.1709 
         400      2.61333 -0.000820162 -0.000528866       59.171 
         400            3  0.000453075 -0.000550196      59.1711 
         450            0            0            0      54.6281 
         450     0.013333   0.00178243 -1.74007e-06      54.6281 
         450     0.053333   0.00675026 -2.33945e-05      54.6281 
         450         0.12    0.0135948  -8.7039e-05      54.6281 
         450     0.213332    0.0197692 -0.000171827      54.6281 
         450     0.333332    0.0230768 -0.000209714      54.6281 
         450         0.48    0.0233558 -0.000139482      54.6281 
         450     0.653331    0.0219947  4.48032e-05      54.6281 
         450     0.853332      0.02012  0.000299948      54.6281 
         450         1.08    0.0178717  0.000573037      54.6281 
         450      1.33333    0.0151565  0.000836141      54.6281 
         450      1.61333    0.0121544   0.00108707       54.628 
         450         1.92   0.00891717   0.00132021      54.6279 
         450      2.25333    0.0055363   0.00151909      54.6278 
         450      2.61333   0.00219226   0.00167017      54.6275 
         450            3 -0.000854617   0.00176371      54.6272 
         500            0            0            0      50.0642 
         500     0.013333  -0.00337755 -1.04189e-06      50.0642 
         500     0.053333   -0.0117508 -2.07247e-05      50.0642 
         500         0.12   -0.0204281 -0.000126657      50.0642 
         500     0.213332   -0.0248851 -0.000439443      50.0642 
         500     0.333332   -0.0241126  -0.00106339      50.0642 
         500         0.48   -0.0207611  -0.00201106      50.0642 
         500     0.653331   -0.0180215  -0.00321151      50.0642 
         500     0.853332   -0.0170542  -0.00456293      50.0642 
         500         1.08   -0.0166969  -0.00594699      50.0642 
         500      1.33333   -0.0151026  -0.00724367      50.0642 
         500      1.61333   -0.0121153  -0.00838669      50.0643 
         500         1.92  -0.00889259  -0.00935226      50.0644 
         500      2.25333  -0.00563995    -0.010085      50.0645 
         500      2.61333  -0.00241459   -0.0105284      50.0648 
         500            3   0.00056776   -0.0106439      50.0651 
         550            0            0            0      45.5162 
         550     0.013333   0.00126018  4.01774e-06      45.5162 
         550     0.053333   0.00324993  6.12614e-05      45.5162 
         550         0.12   0.00270449  0.000282259      45.5162 
         550     0.213332  -0.00167372  0.000769003      45.5162 
         550     0.333332  -0.00781006   0.00153781      45.5162 
         550         0.48    -0.012599   0.00252059      45.5162 
         550     0.653331   -0.0145223   0.00364174      45.5162 
         550     0.853332   -0.0136573   0.00486998      45.5162 
         550         1.08   -0.0108179   0.00618464      45.5162 
         550      1.33333  -0.00767141    0.0075077      45.5162 
         550      1.61333  -0.00569698   0.00872063      45.5162 
         550         1.92   -0.0042751   0.00974761      45.5162 
         550      2.25333  -0.00281288    0.0105394      45.5163 
         550      2.61333  -0.00128384     0.011042      45.5164 
         550            3  0.000140157    0.0112113      45.5166 
         600            0            0            0      40.9739 
         600     0.013333  0.000323243 -3.27789e-06      40.9739 
         600     0.053333   0.00201871 -4.80441e-05      40.9739 
         600         0.12   0.00627298 -0.000209142      40.9739 
         600     0.213332    0.0124592 -0.000533702      40.9739 
         600     0.333332    0.0182329 -0.000998111      40.9739 
         600         0.48    0.0217182  -0.00153641      40.9739 
         600     0.653331    0.0227464  -0.00210481      40.9739 
         600     0.853332    0.0219027  -0.00271028      40.9739 
         600         1.08    0.0194582  -0.00338302      40.9739 
         600      1.33333    0.0159268  -0.00411489      40.9739 
         600      1.61333    0.0124945  -0.00483511      40.9739 
         600         1.92   0.00951345  -0.00546984      40.9738 
         600      2.25333   0.00654489  -0.00598097      40.9736 
         600      2.61333   0.00349592  -0.00633752      40.9734 
         600            3  0.000580885   -0.0065124      40.9732 
         650            0            0            0      36.4117 
         650     0.013333 -0.000378352  2.04375e-06      36.4117 
         650     0.053333  -0.00202272  2.96523e-05      36.4117 
         650         0.12  -0.00537756  0.000127116      36.4117 
         650     0.213332  -0.00977915  0.000318306      36.4117 
         650     0.333332   -0.0136393    0.0005829      36.4117 
         650         0.48   -0.0158629  0.000878083      36.4116 
         650     0.653331    -0.016504   0.00117905      36.4116 
         650     0.853332   -0.0160256   0.00149516      36.4116 
         650         1.08   -0.0145396   0.00185364      36.4116 
         650      1.33333   -0.0121849   0.00226065      36.4116 
         650      1.61333    -0.009671   0.00267903      36.4117 
         650         1.92  -0.00744653    0.0030588      36.4117 
         650      2.25333  -0.00526321   0.00337387      36.4118 
         650      2.61333  -0.00300722   0.00360625       36.412 
         650            3 -0.000809639   0.00374008      36.4121 
         700            0           -0           -0      31.8649 
         700     0.013333 -1.63066e-05 -5.79326e-07      31.8649 
         700     0.053333  9.21818e-06 -8.33669e-06      31.8649 
         700         0.12  0.000369956 -3.54925e-05      31.8649 
         700     0.213332   0.00106414 -8.92244e-05      31.8649 
         700     0.333332   0.00184714 -0.000167463      31.8649 
         700         0.48   0.00252349 -0.000264994      31.8649 
         700     0.653331   0.00305502 -0.000380727      31.8649 
         700     0.853332   0.00338913 -0.000520576       31.865 
         700         1.08   0.00330505 -0.000696665       31.865 
         700      1.33333   0.00266695 -0.000914734       31.865 
         700      1.61333    0.0018379  -0.00115564      31.8649 
         700         1.92   0.00125817  -0.00138647      31.8649 
         700      2.25333  0.000814584  -0.00158996      31.8649 
         700      2.61333  0.000389695  -0.00175554      31.8649 
         700            3   -1.567e-05  -0.00187428      31.8648 
         750            0            0            0      27.3151 
         750     0.013333  0.000356017 -1.54978e-06      27.3151 
         750     0.053333   0.00170073 -2.30086e-05      27.3151 
         750         0.12   0.00456397 -0.000101848      27.3151 
         750     0.213332   0.00851045  -0.00026366      27.3151 
         750     0.333332    0.0121121 -0.000495673      27.3151 
         750         0.48    0.0141284 -0.000756551      27.3151 
         750     0.653331    0.0143919  -0.00101379      27.3151 
         750     0.853332    0.0134133  -0.00126432      27.3151 
         750         1.08    0.0117137  -0.00151757      27.3151 
         750      1.33333   0.00985474  -0.00176426      27.3151 
         750      1.61333   0.00830508  -0.00197979      27.3151 
         750         1.92   0.00686708  -0.00215452      27.3151 
         750      2.25333   0.00527654  -0.00228685       27.315 
         750      2.61333   0.00353867  -0.00237061      27.3149 
         750            3   0.00178314  -0.00239653      27.3148 
         800            0            0            0      22.7549 
         800     0.013333  0.000219099  2.70266e-06      22.7549 
         800     0.053333 -0.000128656  4.05268e-05      22.7549 
         800         0.12  -0.00262427  0.000182518      22.7549 
         800     0.213332  -0.00744747  0.000484818      22.7549 
         800     0.333332   -0.0127722  0.000944207      22.7549 
         800         0.48   -0.0164814   0.00150642      22.7549 
         800     0.653331    -0.017825   0.00212139      22.7549 
         800     0.853332   -0.0171362   0.00278065      22.7549 
         800         1.08   -0.0148729   0.00349887      22.7549 
         800      1.33333   -0.0118238   0.00425796      22.7549 
         800      1.61333  -0.00923933   0.00499065      22.7549 
         800         1.92  -0.00740921    0.0056388       22.755 
         800      2.25333  -0.00563251   0.00618002       22.755 
         800      2.61333  -0.00368213   0.00659117      22.7551 
         800            3  -0.00172004   0.00684374      22.7553 
         850            0            0            0      18.2097 
         850     0.013333 -0.000547413 -2.32041e-06      18.2097 
         850     0.053333  -0.00132336  -3.5255e-05      18.2097 
         850         0.12 -0.000446634 -0.000161845      18.2097 
         850     0.213332   0.00276436 -0.000439691      18.2097 
         850     0.333332   0.00698288 -0.000876685      18.2097 
         850         0.48    0.0102208  -0.00143033      18.2097 
         850     0.653331    0.0115089   -0.0020532      18.2097 
         850     0.853332    0.0109517  -0.00273022      18.2097 
         850         1.08   0.00895547  -0.00346711      18.2097 
         850      1.33333   0.00633011  -0.00424142      18.2097 
         850      1.61333   0.00435264  -0.00498449      18.2097 
         850         1.92   0.00336907  -0.00563687      18.2097 
         850      2.25333   0.00255503   -0.0061803      18.2096 
         850      2.61333   0.00159637  -0.00659521      18.2096 
         850            3  0.000630641  -0.00685508      18.2095 
         900            0  5.08331e-19  4.86165e-26      13.6559 
         900     0.013333   0.00130872  1.57789e-06      13.6559 
         900     0.053333   0.00412972  2.49871e-05      13.6559 
         900         0.12   0.00622875  0.000121573      13.6559 
         900     0.213332   0.00592843  0.000352567      13.6559 
         900     0.333332   0.00349359  0.000750369      13.6559 
         900         0.48  0.000607064   0.00129954      13.6559 
         900     0.653331  -0.00123446   0.00196016      13.6559 
         900     0.853332  -0.00150576   0.00270185      13.6559 
         900         1.08 -0.000449374   0.00350533      13.6559 
         900      1.33333   0.00102182   0.00433209      13.6559 
         900      1.61333    0.0017337   0.00511753      13.6559 
         900         1.92   0.00151659   0.00581597      13.6559 
         900      2.25333   0.00113369   0.00641249      13.6559 
         900      2.61333   0.00085597   0.00688609      13.6559 
         900            3  0.000574524   0.00720724      13.6559 
         950            0            0            0        9.102 
         950     0.013333   -0.0010899 -4.25057e-07        9.102 
         950     0.053333  -0.00384252 -7.80208e-06        9.102 
         950         0.12  -0.00669318 -4.46624e-05        9.102 
         950     0.213332   -0.0081263 -0.000148938      9.10199 
         950     0.333332  -0.00776044 -0.000352687      9.10199 
         950         0.48  -0.00649844 -0.000658578      9.10199 
         950     0.653331  -0.00554249  -0.00104258      9.10198 
         950     0.853332  -0.00547165  -0.00147446      9.10198 
         950         1.08  -0.00603748  -0.00192386      9.10198 
         950      1.33333  -0.00637109  -0.00235082      9.10198 
         950      1.61333  -0.00576791  -0.00271672      9.10198 
         950         1.92  -0.00459362  -0.00301716        9.102 
         950      2.25333  -0.00345135   -0.0032626      9.10203 
         950      2.61333  -0.00243473  -0.00344883      9.10207 
         950            3  -0.00140049   -0.0035614      9.10214 
        1000            0            0            0       4.5577 
        1000     0.013333    0.0016149 -4.45519e-07       4.5577 
        1000     0.053333   0.00587883 -4.89637e-06       4.5577 
        1000         0.12     0.011299 -9.45819e-06      4.55771 
        1000     0.213332    0.0157125  1.66838e-05      4.55771 
        1000     0.333332    0.0175977  0.000123677      4.55771 
        1000         0.48    0.0171133  0.000346024      4.55772 
        1000     0.653331    0.0156392  0.000678683      4.55772 
        1000     0.853332    0.0143874   0.00108505      4.55773 
        1000         1.08     0.013515   0.00151534      4.55774 
        1000      1.33333    0.0123363   0.00191997      4.55773 
        1000      1.61333      0.01043   0.00227237      4.55772 
        1000         1.92    0.0083263   0.00258443      4.55768 
        1000      2.25333    0.0063468   0.00286657      4.55762 
        1000      2.61333   0.00442161   0.00310964      4.55752 
        1000            3   0.00242756   0.00329486      4.55738 
