Variables = x, y, u, v, p

Zone, I=2080, F=POINT
         -50            0            0            0     -218.797 
         -50      0.00048 -9.66574e-05 -1.02127e-08     -218.797 
         -50     0.001922 -0.000341095 -3.91161e-08     -218.797 
         -50     0.004326 -0.000620173 -8.22486e-08     -218.797 
         -50      0.00769 -0.000815149 -1.34624e-07     -218.797 
         -50     0.012017 -0.000867493 -1.93203e-07     -218.797 
         -50     0.017304 -0.000809073 -2.57936e-07     -218.797 
         -50     0.023553 -0.000735016 -3.31138e-07     -218.797 
         -50     0.030763 -0.000727695 -4.14892e-07     -218.797 
         -50     0.038936 -0.000782585  -5.0859e-07     -218.797 
         -50     0.048069 -0.000810166 -6.08745e-07     -218.797 
         -50     0.058163 -0.000756956 -7.12898e-07     -218.797 
         -50     0.069219   -0.0007445 -8.23953e-07     -218.797 
         -50     0.081236 -0.000791771 -9.40595e-07     -218.796 
         -50     0.094215 -0.000764527  -1.0584e-06     -218.796 
         -50     0.108155 -0.000769675 -1.18069e-06     -218.796 
         -50     0.123056 -0.000765319 -1.30513e-06     -218.796 
         -50     0.138918 -0.000763013 -1.43187e-06     -218.796 
         -50     0.155744 -0.000764694 -1.56121e-06     -218.796 
         -50     0.173529 -0.000766524 -1.69358e-06     -218.796 
         -50     0.192276 -0.000765165 -1.82971e-06     -218.796 
         -50     0.211984 -0.000762978  -1.9708e-06     -218.796 
         -50     0.232655   -0.0007653 -2.11877e-06     -218.796 
         -50     0.254285 -0.000763118 -2.27776e-06     -218.796 
         -50     0.276877 -0.000763772 -2.44276e-06     -218.796 
         -50     0.300431 -0.000763626 -2.60834e-06     -218.796 
         -50     0.324946 -0.000763152 -2.77875e-06     -218.796 
         -50     0.350424 -0.000762633 -2.95285e-06     -218.796 
         -50     0.376861 -0.000762179 -3.12661e-06     -218.796 
         -50      0.40426 -0.000761769 -3.29645e-06     -218.796 
         -50     0.432621 -0.000761316  -3.4624e-06     -218.796 
         -50     0.461945 -0.000760738 -3.63022e-06     -218.796 
         -50     0.492228 -0.000760023 -3.81075e-06     -218.796 
         -50     0.523472 -0.000759249 -4.01404e-06     -218.796 
         -50     0.555678 -0.000758526  -4.2352e-06     -218.795 
         -50     0.588845 -0.000757796 -4.42771e-06     -218.795 
         -50     0.622976 -0.000756807 -4.51023e-06     -218.795 
         -50     0.658066 -0.000755897 -4.63658e-06     -218.795 
         -50     0.694117 -0.000754914 -4.81596e-06     -218.795 
         -50      0.73113 -0.000753906 -5.02776e-06     -218.795 
         -50     0.769107 -0.000752918 -5.25631e-06     -218.794 
         -50     0.808042 -0.000751986 -5.49087e-06     -218.794 
         -50     0.847939 -0.000751138 -5.72555e-06     -218.794 
         -50     0.888797 -0.000750394 -5.95878e-06     -218.794 
         -50      0.93062 -0.000749768 -6.19256e-06     -218.793 
         -50       0.9734 -0.000749266 -6.43151e-06     -218.793 
         -50      1.01714 -0.000748888  -6.6819e-06     -218.793 
         -50      1.06185 -0.000748627 -6.95045e-06     -218.793 
         -50      1.10751 -0.000748476 -7.24338e-06     -218.792 
         -50      1.15414 -0.000748424  -7.5657e-06     -218.792 
         -50      1.20173 -0.000748461  -7.9209e-06     -218.791 
         -50      1.25028 -0.000748578  -8.3117e-06     -218.791 
         -50      1.29979  -0.00074877 -8.74173e-06     -218.791 
         -50      1.35026 -0.000749032 -9.21883e-06      -218.79 
         -50       1.4017 -0.000749364 -9.76033e-06      -218.79 
         -50      1.45409 -0.000749766 -1.04012e-05     -218.789 
         -50      1.50745  -0.00075025 -1.11967e-05     -218.788 
         -50      1.56176 -0.000751484  -1.1686e-05     -218.788 
         -50      1.61705  -0.00075253 -1.22379e-05     -218.787 
         -50      1.67329 -0.000753457 -1.28467e-05     -218.787 
         -50      1.73049 -0.000754324 -1.35059e-05     -218.786 
         -50      1.78865 -0.000755177 -1.42086e-05     -218.785 
         -50      1.84778  -0.00075605 -1.49476e-05     -218.784 
         -50      1.90786 -0.000756965 -1.57153e-05     -218.784 
         -50      1.96891 -0.000757932 -1.65046e-05     -218.783 
         -50      2.03092 -0.000758951 -1.73086e-05     -218.782 
         -50      2.09389 -0.000760015 -1.81214e-05     -218.781 
         -50      2.15782 -0.000761108 -1.89377e-05      -218.78 
         -50      2.22272 -0.000762208 -1.97539e-05     -218.779 
         -50      2.28857 -0.000763291  -2.0568e-05     -218.778 
         -50      2.35539  -0.00076433 -2.13797e-05     -218.777 
         -50      2.42317 -0.000765302 -2.21909e-05     -218.776 
         -50      2.49191 -0.000766183 -2.30057e-05     -218.774 
         -50      2.56161 -0.000766957 -2.38306e-05     -218.773 
         -50      2.63226 -0.000767616 -2.46746e-05     -218.772 
         -50      2.70389 -0.000768158 -2.55488e-05     -218.771 
         -50      2.77648 -0.000768594 -2.64662e-05     -218.769 
         -50      2.85002 -0.000768944 -2.74415e-05     -218.768 
         -50      2.92453 -0.000769237 -2.84902e-05     -218.766 
         -50            3  -0.00076951 -2.96278e-05     -218.765 
         -25            0 -7.13497e-19 -3.74161e-23     -210.011 
         -25      0.00048 -7.10169e-05 -3.84478e-09     -210.011 
         -25     0.001922 -0.000250701 -1.49898e-08     -210.011 
         -25     0.004326 -0.000456136 -3.25436e-08     -210.011 
         -25      0.00769 -0.000600281 -5.59286e-08     -210.011 
         -25     0.012017 -0.000640189 -8.58031e-08     -210.011 
         -25     0.017304 -0.000599111 -1.24419e-07     -210.011 
         -25     0.023553 -0.000546633 -1.75379e-07     -210.011 
         -25     0.030763 -0.000542989 -2.42608e-07     -210.011 
         -25     0.038936 -0.000584754 -3.29393e-07     -210.011 
         -25     0.048069 -0.000606242 -4.38184e-07     -210.011 
         -25     0.058163 -0.000568179 -5.72008e-07     -210.011 
         -25     0.069219 -0.000559519 -7.35937e-07     -210.011 
         -25     0.081236 -0.000594099 -9.33353e-07     -210.011 
         -25     0.094215 -0.000573534 -1.16628e-06     -210.011 
         -25     0.108155 -0.000576121 -1.43924e-06     -210.011 
         -25     0.123056 -0.000571174 -1.75409e-06     -210.011 
         -25     0.138918 -0.000567183   -2.113e-06     -210.011 
         -25     0.155744 -0.000565613 -2.51754e-06     -210.011 
         -25     0.173529 -0.000563719  -2.9683e-06     -210.011 
         -25     0.192276 -0.000559135 -3.46528e-06     -210.011 
         -25     0.211984 -0.000553677 -4.00773e-06     -210.011 
         -25     0.232655 -0.000551348 -4.59453e-06     -210.011 
         -25     0.254285 -0.000545639  -5.2244e-06     -210.011 
         -25     0.276877 -0.000542015 -5.89449e-06     -210.011 
         -25     0.300431 -0.000537897 -6.60196e-06     -210.011 
         -25     0.324946 -0.000533705 -7.34534e-06     -210.011 
         -25     0.350424 -0.000529714 -8.12339e-06     -210.011 
         -25     0.376861 -0.000526064 -8.93485e-06     -210.011 
         -25      0.40426 -0.000522789 -9.77882e-06     -210.011 
         -25     0.432621 -0.000519868 -1.06544e-05     -210.011 
         -25     0.461945 -0.000517272 -1.15604e-05     -210.011 
         -25     0.492228 -0.000515019 -1.24952e-05     -210.011 
         -25     0.523472 -0.000513183  -1.3456e-05     -210.011 
         -25     0.555678 -0.000511854 -1.44382e-05     -210.011 
         -25     0.588845  -0.00051099 -1.54341e-05     -210.011 
         -25     0.622976 -0.000510372 -1.64276e-05     -210.011 
         -25     0.658066 -0.000510268 -1.74274e-05     -210.011 
         -25     0.694117 -0.000510534 -1.84438e-05     -210.011 
         -25      0.73113 -0.000511123 -1.94727e-05     -210.011 
         -25     0.769107 -0.000511992 -2.05097e-05     -210.011 
         -25     0.808042 -0.000513103 -2.15504e-05      -210.01 
         -25     0.847939 -0.000514418 -2.25902e-05      -210.01 
         -25     0.888797 -0.000515907 -2.36249e-05      -210.01 
         -25      0.93062 -0.000517544 -2.46503e-05      -210.01 
         -25       0.9734 -0.000519305 -2.56618e-05      -210.01 
         -25      1.01714 -0.000521171 -2.66556e-05      -210.01 
         -25      1.06185 -0.000523127 -2.76277e-05      -210.01 
         -25      1.10751 -0.000525158 -2.85744e-05      -210.01 
         -25      1.15414 -0.000527251 -2.94922e-05      -210.01 
         -25      1.20173 -0.000529392 -3.03774e-05     -210.009 
         -25      1.25028 -0.000531564  -3.1227e-05     -210.009 
         -25      1.29979  -0.00053375 -3.20375e-05     -210.009 
         -25      1.35026 -0.000535926 -3.28061e-05     -210.009 
         -25       1.4017 -0.000538066 -3.35293e-05     -210.009 
         -25      1.45409 -0.000540138 -3.42038e-05     -210.008 
         -25      1.50745 -0.000542116 -3.48226e-05     -210.008 
         -25      1.56176 -0.000544009 -3.52731e-05     -210.008 
         -25      1.61705 -0.000545465 -3.57726e-05     -210.008 
         -25      1.67329  -0.00054657 -3.62779e-05     -210.008 
         -25      1.73049 -0.000547411 -3.67557e-05     -210.007 
         -25      1.78865 -0.000548071 -3.71828e-05     -210.007 
         -25      1.84778 -0.000548632 -3.75453e-05     -210.007 
         -25      1.90786 -0.000549171 -3.78386e-05     -210.006 
         -25      1.96891 -0.000549758 -3.80666e-05     -210.006 
         -25      2.03092 -0.000550457 -3.82404e-05     -210.006 
         -25      2.09389 -0.000551321 -3.83775e-05     -210.005 
         -25      2.15782 -0.000552394 -3.84997e-05     -210.005 
         -25      2.22272 -0.000553707 -3.86323e-05     -210.005 
         -25      2.28857 -0.000555277 -3.88015e-05     -210.004 
         -25      2.35539 -0.000557107 -3.90331e-05     -210.004 
         -25      2.42317 -0.000559186   -3.935e-05     -210.004 
         -25      2.49191 -0.000561487 -3.97706e-05     -210.003 
         -25      2.56161 -0.000563968 -4.03069e-05     -210.003 
         -25      2.63226  -0.00056657 -4.09627e-05     -210.002 
         -25      2.70389 -0.000569225 -4.17323e-05     -210.002 
         -25      2.77648  -0.00057185 -4.25996e-05     -210.001 
         -25      2.85002 -0.000574354  -4.3538e-05     -210.001 
         -25      2.92453 -0.000576644 -4.45106e-05         -210 
         -25            3 -0.000578624 -4.54719e-05     -209.999 
           0            0 -8.81105e-15  5.71457e-15     -202.656 
           0      0.00048 -0.000282648  0.000183264     -202.657 
           0     0.001922 -0.000980508  0.000635055     -202.658 
           0     0.004326  -0.00172514   0.00111436      -202.66 
           0      0.00769  -0.00214277   0.00137547     -202.663 
           0     0.012017  -0.00207575    0.0013127     -202.666 
           0     0.017304  -0.00167562   0.00102332     -202.669 
           0     0.023553  -0.00129189  0.000738582     -202.671 
           0     0.030763  -0.00119638  0.000646243     -202.674 
           0     0.038936  -0.00133007  0.000722026     -202.678 
           0     0.048069  -0.00134121  0.000742328     -202.681 
           0     0.058163  -0.00105553  0.000574928     -202.684 
           0     0.069219 -0.000971857  0.000507665     -202.688 
           0     0.081236  -0.00112461   0.00059813     -202.691 
           0     0.094215 -0.000966704  0.000496822     -202.695 
           0     0.108155 -0.000946823  0.000483578     -202.698 
           0     0.123056  -0.00089659  0.000455094     -202.702 
           0     0.138918  -0.00085722  0.000430369     -202.706 
           0     0.155744 -0.000834075   0.00041318      -202.71 
           0     0.173529 -0.000812071  0.000398073     -202.713 
           0     0.192276 -0.000779701  0.000380063     -202.717 
           0     0.211984  -0.00074774  0.000362535     -202.721 
           0     0.232655 -0.000735298  0.000352341     -202.725 
           0     0.254285 -0.000707302  0.000336321     -202.729 
           0     0.276877 -0.000688286  0.000324677     -202.733 
           0     0.300431 -0.000669213  0.000312892     -202.737 
           0     0.324946 -0.000651506  0.000301771     -202.741 
           0     0.350424 -0.000635203  0.000291254     -202.745 
           0     0.376861  -0.00061998  0.000281256     -202.749 
           0      0.40426 -0.000605971  0.000271721     -202.753 
           0     0.432621 -0.000593054  0.000262625     -202.758 
           0     0.461945 -0.000581192  0.000253913     -202.762 
           0     0.492228 -0.000570333  0.000245558     -202.766 
           0     0.523472 -0.000560428  0.000237534      -202.77 
           0     0.555678 -0.000551436  0.000229816     -202.774 
           0     0.588845 -0.000543303  0.000222371     -202.778 
           0     0.622976 -0.000536001  0.000215181     -202.782 
           0     0.658066 -0.000529484  0.000208233     -202.786 
           0     0.694117 -0.000523716  0.000201505     -202.791 
           0      0.73113  -0.00051865  0.000194982     -202.795 
           0     0.769107 -0.000514236   0.00018865     -202.799 
           0     0.808042 -0.000510415  0.000182516     -202.803 
           0     0.847939 -0.000507147  0.000176529     -202.807 
           0     0.888797 -0.000504352  0.000170725     -202.811 
           0      0.93062 -0.000501973   0.00016508     -202.815 
           0       0.9734 -0.000499934  0.000159589     -202.819 
           0      1.01714 -0.000498183   0.00015424     -202.823 
           0      1.06185 -0.000496676  0.000149041     -202.828 
           0      1.10751 -0.000495382  0.000143993     -202.832 
           0      1.15414 -0.000494281  0.000139089     -202.836 
           0      1.20173 -0.000493367  0.000134317      -202.84 
           0      1.25028 -0.000492649  0.000129676     -202.844 
           0      1.29979 -0.000492131  0.000125181     -202.848 
           0      1.35026 -0.000491817  0.000120824     -202.851 
           0       1.4017 -0.000491702   0.00011659     -202.855 
           0      1.45409 -0.000491764  0.000112484     -202.859 
           0      1.50745 -0.000491973  0.000108512     -202.863 
           0      1.56176 -0.000492291  0.000104681     -202.867 
           0      1.61705 -0.000492673  0.000100985     -202.871 
           0      1.67329 -0.000493079   9.7412e-05     -202.875 
           0      1.73049 -0.000493477  9.39573e-05     -202.878 
           0      1.78865 -0.000493856  9.06344e-05     -202.882 
           0      1.84778 -0.000494216   8.7455e-05     -202.886 
           0      1.90786 -0.000494568  8.43562e-05      -202.89 
           0      1.96891 -0.000494956  8.13974e-05     -202.893 
           0      2.03092 -0.000495397  7.85531e-05     -202.897 
           0      2.09389 -0.000495903  7.57968e-05       -202.9 
           0      2.15782 -0.000496486  7.31245e-05     -202.904 
           0      2.22272 -0.000497151  7.05399e-05     -202.908 
           0      2.28857 -0.000497894  6.80461e-05     -202.911 
           0      2.35539   -0.0004987  6.56392e-05     -202.915 
           0      2.42317 -0.000499539  6.33083e-05     -202.918 
           0      2.49191 -0.000500371   6.1043e-05     -202.921 
           0      2.56161 -0.000501141  5.88503e-05     -202.925 
           0      2.63226 -0.000501791  5.67465e-05     -202.928 
           0      2.70389 -0.000502283  5.47325e-05     -202.931 
           0      2.77648  -0.00050259  5.28282e-05     -202.935 
           0      2.85002 -0.000502677  5.10157e-05     -202.938 
           0      2.92453 -0.000502394  4.93882e-05     -202.941 
           0            3 -0.000501876  4.78768e-05     -202.944 
          20            0 -5.92756e-19 -7.12553e-23     -198.545 
          20      0.00048 -5.90152e-05 -7.17097e-09     -198.545 
          20     0.001922 -0.000208523 -2.61307e-08     -198.545 
          20     0.004326 -0.000380104 -4.97866e-08     -198.545 
          20      0.00769  -0.00050199 -6.82163e-08     -198.545 
          20     0.012017 -0.000538899 -7.06123e-08     -198.545 
          20     0.017304 -0.000510286 -4.64205e-08     -198.545 
          20     0.023553 -0.000473902  1.47685e-08     -198.545 
          20     0.030763 -0.000479755  1.24462e-07     -198.545 
          20     0.038936 -0.000525204  2.96555e-07     -198.545 
          20     0.048069 -0.000556087  5.46657e-07     -198.545 
          20     0.058163 -0.000539993  8.88974e-07     -198.545 
          20     0.069219 -0.000550391  1.33256e-06     -198.545 
          20     0.081236 -0.000598578   1.8873e-06     -198.545 
          20     0.094215 -0.000602982  2.56336e-06     -198.545 
          20     0.108155 -0.000628017  3.36312e-06     -198.545 
          20     0.123056  -0.00064789   4.2894e-06     -198.545 
          20     0.138918  -0.00066915   5.3417e-06     -198.545 
          20     0.155744 -0.000692531  6.51819e-06     -198.545 
          20     0.173529 -0.000715273  7.81484e-06     -198.545 
          20     0.192276  -0.00073494  9.22638e-06     -198.545 
          20     0.211984 -0.000752578  1.07455e-05     -198.545 
          20     0.232655 -0.000771161  1.23644e-05     -198.545 
          20     0.254285 -0.000785135  1.40776e-05     -198.545 
          20     0.276877 -0.000798549  1.58763e-05     -198.545 
          20     0.300431 -0.000809636  1.77451e-05     -198.545 
          20     0.324946 -0.000818711  1.96737e-05     -198.545 
          20     0.350424 -0.000826167  2.16455e-05     -198.545 
          20     0.376861 -0.000832456  2.36352e-05     -198.545 
          20      0.40426 -0.000838014  2.56181e-05     -198.545 
          20     0.432621 -0.000843305  2.75639e-05     -198.545 
          20     0.461945 -0.000848735  2.94404e-05     -198.545 
          20     0.492228 -0.000854601  3.12169e-05     -198.545 
          20     0.523472 -0.000861035  3.28686e-05     -198.545 
          20     0.555678 -0.000867968  3.43796e-05     -198.545 
          20     0.588845 -0.000875099  3.57456e-05     -198.545 
          20     0.622976 -0.000881914  3.69766e-05     -198.544 
          20     0.658066 -0.000887737  3.80951e-05     -198.544 
          20     0.694117 -0.000891869  3.91327e-05     -198.544 
          20      0.73113 -0.000893809  4.01201e-05     -198.544 
          20     0.769107 -0.000893212  4.10858e-05     -198.544 
          20     0.808042 -0.000889818  4.20531e-05     -198.544 
          20     0.847939 -0.000883691    4.303e-05     -198.544 
          20     0.888797 -0.000875025  4.40174e-05     -198.543 
          20      0.93062 -0.000864111  4.50091e-05     -198.543 
          20       0.9734   -0.0008513  4.59926e-05     -198.543 
          20      1.01714 -0.000836953  4.69513e-05     -198.543 
          20      1.06185 -0.000821411  4.78701e-05     -198.543 
          20      1.10751  -0.00080495   4.8731e-05     -198.542 
          20      1.15414 -0.000787782   4.9523e-05     -198.542 
          20      1.20173 -0.000770052  5.02381e-05     -198.542 
          20      1.25028 -0.000751905  5.08596e-05     -198.542 
          20      1.29979  -0.00073341   5.1389e-05     -198.541 
          20      1.35026 -0.000714635  5.18146e-05     -198.541 
          20       1.4017 -0.000695641  5.21308e-05     -198.541 
          20      1.45409 -0.000676472  5.23359e-05      -198.54 
          20      1.50745 -0.000657172   5.2429e-05      -198.54 
          20      1.56176 -0.000637791  5.24085e-05     -198.539 
          20      1.61705 -0.000618393  5.22704e-05     -198.539 
          20      1.67329 -0.000599067  5.20115e-05     -198.539 
          20      1.73049 -0.000579914  5.16368e-05     -198.538 
          20      1.78865 -0.000561038  5.11434e-05     -198.538 
          20      1.84778 -0.000542599  5.05221e-05     -198.537 
          20      1.90786 -0.000524741  4.97794e-05     -198.537 
          20      1.96891 -0.000507652  4.89107e-05     -198.536 
          20      2.03092 -0.000491507  4.79121e-05     -198.536 
          20      2.09389 -0.000476465  4.67806e-05     -198.535 
          20      2.15782 -0.000462683  4.55228e-05     -198.534 
          20      2.22272 -0.000450264  4.41458e-05     -198.534 
          20      2.28857 -0.000439288  4.26394e-05     -198.533 
          20      2.35539 -0.000429819  4.10058e-05     -198.532 
          20      2.42317 -0.000421852  3.92562e-05     -198.532 
          20      2.49191  -0.00041527  3.74157e-05     -198.531 
          20      2.56161 -0.000409931   3.5514e-05      -198.53 
          20      2.63226 -0.000405818  3.35531e-05     -198.529 
          20      2.70389 -0.000402553  3.15837e-05     -198.529 
          20      2.77648 -0.000400058  2.96541e-05     -198.528 
          20      2.85002 -0.000398198  2.77739e-05     -198.527 
          20      2.92453 -0.000396648  2.60232e-05     -198.526 
          20            3 -0.000395216  2.44838e-05     -198.525 
          40            0           -0           -0     -193.902 
          40      0.00048 -5.13346e-05 -8.22353e-10     -193.902 
          40     0.001922 -0.000181049 -2.03692e-09     -193.902 
          40     0.004326  -0.00032881  1.56096e-11     -193.902 
          40      0.00769 -0.000431346  1.10904e-08     -193.902 
          40     0.012017 -0.000457592  3.86771e-08     -193.902 
          40     0.017304 -0.000424798  9.16046e-08     -193.902 
          40     0.023553 -0.000384019  1.79864e-07     -193.902 
          40     0.030763 -0.000379502  3.14395e-07     -193.902 
          40     0.038936 -0.000409069  5.06975e-07     -193.902 
          40     0.048069  -0.00042512  7.69594e-07     -193.902 
          40     0.058163 -0.000399258  1.11383e-06     -193.902 
          40     0.069219 -0.000396518  1.54994e-06     -193.902 
          40     0.081236 -0.000427088  2.08716e-06     -193.902 
          40     0.094215 -0.000419265  2.73338e-06     -193.902 
          40     0.108155 -0.000430076  3.49384e-06     -193.902 
          40     0.123056 -0.000437016  4.37204e-06     -193.902 
          40     0.138918 -0.000446081  5.36922e-06     -193.902 
          40     0.155744 -0.000458094  6.48471e-06     -193.902 
          40     0.173529 -0.000470766  7.71546e-06     -193.902 
          40     0.192276 -0.000482069  9.05735e-06     -193.902 
          40     0.211984 -0.000493023  1.05048e-05     -193.902 
          40     0.232655 -0.000506253  1.20516e-05     -193.902 
          40     0.254285 -0.000516741  1.36914e-05     -193.902 
          40     0.276877  -0.00052823  1.54178e-05     -193.902 
          40     0.300431 -0.000538634  1.72253e-05     -193.902 
          40     0.324946 -0.000548097  1.91097e-05     -193.902 
          40     0.350424 -0.000556679  2.10684e-05     -193.902 
          40     0.376861 -0.000564364  2.30995e-05     -193.902 
          40      0.40426 -0.000571082  2.52035e-05     -193.902 
          40     0.432621 -0.000576735  2.73824e-05     -193.902 
          40     0.461945 -0.000581231  2.96403e-05     -193.902 
          40     0.492228  -0.00058451   3.1982e-05     -193.902 
          40     0.523472  -0.00058656  3.44139e-05     -193.902 
          40     0.555678 -0.000587383  3.69419e-05     -193.902 
          40     0.588845 -0.000586905  3.95699e-05     -193.902 
          40     0.622976  -0.00058504  4.22929e-05     -193.902 
          40     0.658066 -0.000581891  4.51278e-05     -193.902 
          40     0.694117 -0.000577403  4.80762e-05     -193.902 
          40      0.73113 -0.000571801   5.1119e-05     -193.902 
          40     0.769107 -0.000565317   5.4237e-05     -193.902 
          40     0.808042 -0.000558188  5.74108e-05     -193.902 
          40     0.847939 -0.000550637  6.06222e-05     -193.902 
          40     0.888797 -0.000542876  6.38527e-05     -193.902 
          40      0.93062 -0.000535088  6.70843e-05     -193.902 
          40       0.9734  -0.00052743  7.02983e-05     -193.902 
          40      1.01714 -0.000520013  7.34772e-05     -193.902 
          40      1.06185 -0.000512907  7.66029e-05     -193.902 
          40      1.10751 -0.000506134  7.96576e-05     -193.902 
          40      1.15414  -0.00049967   8.2624e-05     -193.902 
          40      1.20173 -0.000493448  8.54851e-05     -193.902 
          40      1.25028 -0.000487374  8.82264e-05     -193.902 
          40      1.29979 -0.000481339   9.0836e-05     -193.902 
          40      1.35026 -0.000475254  9.33076e-05     -193.901 
          40       1.4017 -0.000469085  9.56421e-05     -193.901 
          40      1.45409 -0.000462907  9.78525e-05     -193.901 
          40      1.50745 -0.000456969   9.9967e-05     -193.901 
          40      1.56176 -0.000450909  0.000101837     -193.901 
          40      1.61705 -0.000444926   0.00010348     -193.901 
          40      1.67329 -0.000439059  0.000104906     -193.901 
          40      1.73049 -0.000433344  0.000106127     -193.901 
          40      1.78865 -0.000427815   0.00010715     -193.901 
          40      1.84778 -0.000422505   0.00010798     -193.901 
          40      1.90786 -0.000417445  0.000108621     -193.901 
          40      1.96891 -0.000412662  0.000109075     -193.901 
          40      2.03092  -0.00040818   0.00010934     -193.901 
          40      2.09389 -0.000404022  0.000109415     -193.901 
          40      2.15782 -0.000400206  0.000109297     -193.901 
          40      2.22272 -0.000396748  0.000108983       -193.9 
          40      2.28857  -0.00039366  0.000108471       -193.9 
          40      2.35539 -0.000390951  0.000107759       -193.9 
          40      2.42317 -0.000388626  0.000106845       -193.9 
          40      2.49191 -0.000386685  0.000105733       -193.9 
          40      2.56161 -0.000385127  0.000104427       -193.9 
          40      2.63226 -0.000383945  0.000102934       -193.9 
          40      2.70389 -0.000383128  0.000101266       -193.9 
          40      2.77648  -0.00038266  9.94401e-05       -193.9 
          40      2.85002 -0.000382522   9.7477e-05     -193.899 
          40      2.92453 -0.000382687  9.54027e-05     -193.899 
          40            3 -0.000383124  9.32473e-05     -193.899 
          60            0           -0           -0      -189.56 
          60      0.00048 -4.86705e-05 -4.92245e-10      -189.56 
          60     0.001922 -0.000171395 -1.81018e-09      -189.56 
          60     0.004326 -0.000310328 -3.49268e-09      -189.56 
          60      0.00769 -0.000404796 -4.82397e-09      -189.56 
          60     0.012017 -0.000424964  -4.8565e-09      -189.56 
          60     0.017304 -0.000387299  -2.3453e-09      -189.56 
          60     0.023553  -0.00034066  4.42502e-09      -189.56 
          60     0.030763 -0.000327416  1.78959e-08      -189.56 
          60     0.038936 -0.000345484  4.14863e-08      -189.56 
          60     0.048069 -0.000349309  7.96654e-08      -189.56 
          60     0.058163 -0.000311789  1.37832e-07      -189.56 
          60     0.069219  -0.00029539  2.22088e-07      -189.56 
          60     0.081236 -0.000310084   3.3964e-07      -189.56 
          60     0.094215  -0.00028742  4.98572e-07      -189.56 
          60     0.108155 -0.000282328  7.07082e-07      -189.56 
          60     0.123056 -0.000273552  9.74061e-07      -189.56 
          60     0.138918  -0.00026715  1.30817e-06      -189.56 
          60     0.155744 -0.000264203  1.71774e-06      -189.56 
          60     0.173529 -0.000262791  2.21026e-06      -189.56 
          60     0.192276 -0.000261193  2.79256e-06      -189.56 
          60     0.211984 -0.000260556  3.47022e-06      -189.56 
          60     0.232655 -0.000263502  4.24735e-06      -189.56 
          60     0.254285 -0.000265271  5.12558e-06      -189.56 
          60     0.276877  -0.00026944  6.10751e-06      -189.56 
          60     0.300431 -0.000273949   7.1923e-06      -189.56 
          60     0.324946 -0.000278831  8.37651e-06      -189.56 
          60     0.350424 -0.000284022  9.65661e-06      -189.56 
          60     0.376861 -0.000289382  1.10282e-05      -189.56 
          60      0.40426 -0.000294722  1.24863e-05      -189.56 
          60     0.432621 -0.000299848  1.40246e-05      -189.56 
          60     0.461945 -0.000304602  1.56351e-05      -189.56 
          60     0.492228 -0.000308897  1.73081e-05      -189.56 
          60     0.523472 -0.000312731  1.90333e-05      -189.56 
          60     0.555678 -0.000316158  2.08011e-05      -189.56 
          60     0.588845  -0.00031918  2.26058e-05      -189.56 
          60     0.622976  -0.00032172  2.44464e-05      -189.56 
          60     0.658066 -0.000324033  2.62887e-05      -189.56 
          60     0.694117  -0.00032616  2.81255e-05      -189.56 
          60      0.73113 -0.000328218   2.9958e-05      -189.56 
          60     0.769107  -0.00033029  3.17856e-05      -189.56 
          60     0.808042 -0.000332435  3.36055e-05      -189.56 
          60     0.847939 -0.000334686  3.54142e-05      -189.56 
          60     0.888797 -0.000337049  3.72069e-05      -189.56 
          60      0.93062 -0.000339519   3.8979e-05      -189.56 
          60       0.9734 -0.000342074  4.07256e-05      -189.56 
          60      1.01714 -0.000344691  4.24433e-05      -189.56 
          60      1.06185 -0.000347349  4.41297e-05      -189.56 
          60      1.10751 -0.000350038   4.5784e-05      -189.56 
          60      1.15414 -0.000352766  4.74067e-05      -189.56 
          60      1.20173 -0.000355557  4.89983e-05     -189.559 
          60      1.25028 -0.000358452  5.05587e-05     -189.559 
          60      1.29979 -0.000361501  5.20836e-05     -189.559 