Variables = x, y, u, v, p

Zone, I=416, F=POINT
         -50            0            0            0      78.7444 
         -50     0.013333  0.000158566  5.04542e-08      78.7444 
         -50     0.053333  0.000148184  3.29819e-08      78.7444 
         -50         0.12  0.000151146 -1.61519e-07      78.7443 
         -50     0.213332  0.000158773 -5.40014e-07      78.7443 
         -50     0.333332  0.000166315 -1.10788e-06      78.7442 
         -50         0.48  0.000170993 -2.32704e-06      78.7441 
         -50     0.653331  0.000170311 -3.08639e-06      78.7438 
         -50     0.853332  0.000162445 -3.93962e-06      78.7434 
         -50         1.08  0.000152968 -6.30216e-06      78.7428 
         -50      1.33333  0.000146781 -7.23434e-06      78.7421 
         -50      1.61333  0.000142614 -8.25097e-06       78.741 
         -50         1.92  0.000140687 -8.33904e-06      78.7396 
         -50      2.25333  0.000138391 -8.42953e-06      78.7378 
         -50      2.61333   0.00013185  -1.0518e-05      78.7356 
         -50            3  0.000123763 -1.40644e-05      78.7328 
         -25            0  1.42605e-19  1.17096e-23      75.5834 
         -25     0.013333  0.000115388  8.99192e-09      75.5834 
         -25     0.053333  0.000106471 -1.14668e-07      75.5834 
         -25         0.12  0.000107947 -5.82021e-07      75.5834 
         -25     0.213332  0.000111222 -1.42637e-06      75.5834 
         -25     0.333332  0.000109307 -2.43885e-06      75.5834 
         -25         0.48  0.000101217 -3.41562e-06      75.5833 
         -25     0.653331  9.11492e-05 -4.30311e-06      75.5832 
         -25     0.853332  8.37014e-05  -5.0432e-06      75.5831 
         -25         1.08  8.23096e-05  -5.4176e-06      75.5829 
         -25      1.33333  8.55202e-05 -5.41722e-06      75.5826 
         -25      1.61333  8.92755e-05 -5.22095e-06      75.5822 
         -25         1.92  8.92484e-05 -4.81956e-06      75.5816 
         -25      2.25333   9.0049e-05 -5.12141e-06       75.581 
         -25      2.61333  8.93179e-05 -5.69909e-06      75.5801 
         -25            3  8.48336e-05 -4.79391e-06      75.5791 
           0            0  1.48841e-15 -9.97664e-16      72.9385 
           0     0.013333  0.000321439 -0.000223873      72.9418 
           0     0.053333  0.000227889 -0.000120256      72.9477 
           0         0.12  0.000179201 -8.75129e-05      72.9544 
           0     0.213332   0.00014121 -6.87016e-05      72.9616 
           0     0.333332   0.00011221 -5.52352e-05      72.9692 
           0         0.48   9.1599e-05 -4.36341e-05       72.977 
           0     0.653331  8.00512e-05 -3.32697e-05      72.9848 
           0     0.853332   7.4256e-05  -2.3817e-05      72.9926 
           0         1.08  7.01707e-05 -1.54306e-05      73.0003 
           0      1.33333  6.83738e-05 -8.30848e-06      73.0078 
           0      1.61333  7.11219e-05 -2.58477e-06      73.0152 
           0         1.92  7.65808e-05  1.66208e-06      73.0223 
           0      2.25333  8.41571e-05  4.58565e-06       73.029 
           0      2.61333  8.82782e-05  4.99443e-06      73.0355 
           0            3  8.58527e-05  3.69749e-06      73.0416 
          20            0    1.246e-19  2.21756e-23      71.4598 
          20     0.013333  0.000114325  1.99961e-08      71.4598 
          20     0.053333  0.000158014 -1.73705e-07      71.4598 
          20         0.12  0.000224752 -9.42931e-07      71.4598 
          20     0.213332  0.000283174 -2.40719e-06      71.4598 
          20     0.333332  0.000312018 -4.02699e-06      71.4597 
          20         0.48  0.000321887  -4.4475e-06      71.4596 
          20     0.653331  0.000333036 -2.42071e-06      71.4594 
          20     0.853332  0.000325549   1.0676e-06      71.4591 
          20         1.08  0.000285904  4.29518e-06      71.4588 
          20      1.33333  0.000227798  6.79345e-06      71.4582 
          20      1.61333  0.000164269  8.62852e-06      71.4575 
          20         1.92  0.000105605  9.87979e-06      71.4566 
          20      2.25333  5.95605e-05  1.05524e-05      71.4555 
          20      2.61333  3.06548e-05  1.04019e-05      71.4541 
          20            3  1.15037e-05  7.43806e-06      71.4524 
          40            0           -0           -0      69.7904 
          40     0.013333  0.000109603 -1.13003e-07      69.7904 
          40     0.053333  0.000190348 -1.61914e-06      69.7904 
          40         0.12  0.000334608 -6.40526e-06      69.7904 
          40     0.213332  0.000479507  -1.4273e-05      69.7904 
          40     0.333332  0.000565135 -2.28731e-05      69.7904 
          40         0.48  0.000587949 -3.06936e-05      69.7904 
          40     0.653331  0.000566326 -3.87548e-05      69.7904 
          40     0.853332  0.000505647  -4.8735e-05      69.7904 
          40         1.08   0.00041634 -5.96567e-05      69.7903 
          40      1.33333  0.000312475 -6.92067e-05      69.7902 
          40      1.61333  0.000204787  -7.5436e-05      69.7901 
          40         1.92  9.97718e-05 -7.74796e-05        69.79 
          40      2.25333  1.39241e-05 -7.58637e-05      69.7898 
          40      2.61333 -4.20945e-05 -7.09053e-05      69.7896 
          40            3 -6.62006e-05 -6.28918e-05      69.7894 
          60            0           -0           -0      68.2294 
          60     0.013333  0.000106597 -6.13701e-08      68.2294 
          60     0.053333  0.000175227   -8.202e-07      68.2294 
          60         0.12  0.000275432 -2.89279e-06      68.2294 
          60     0.213332   0.00035677  -5.4704e-06      68.2294 
          60     0.333332  0.000393037 -7.00444e-06      68.2294 
          60         0.48  0.000399236 -7.05939e-06      68.2294 
          60     0.653331  0.000389652  -7.0194e-06      68.2294 
          60     0.853332  0.000345003 -9.62396e-06      68.2294 
          60         1.08  0.000260131 -1.58168e-05      68.2294 
          60      1.33333  0.000180933 -2.31847e-05      68.2293 
          60      1.61333   0.00012012 -2.91844e-05      68.2293 
          60         1.92  6.26814e-05  -3.3474e-05      68.2292 
          60      2.25333  1.65999e-05 -3.58136e-05      68.2291 
          60      2.61333 -1.12252e-05 -3.60653e-05       68.229 
          60            3  -2.1725e-05 -3.54169e-05      68.2288 
          80            0           -0           -0      66.7198 
          80     0.013333  9.63364e-05 -5.27013e-09      66.7198 
          80     0.053333   0.00013383 -3.92945e-08      66.7198 
          80         0.12  0.000179289  1.64084e-07      66.7198 
          80     0.213332  0.000206427  1.33813e-06      66.7198 
          80     0.333332  0.000212473  4.07748e-06      66.7198 
          80         0.48  0.000212275  8.29782e-06      66.7198 
          80     0.653331  0.000214995  1.32881e-05      66.7198 
          80     0.853332  0.000208547  1.76684e-05      66.7198 
          80         1.08  0.000179272  2.02832e-05      66.7198 
          80      1.33333  0.000143751  2.13794e-05      66.7198 
          80      1.61333  0.000114799  2.18031e-05      66.7197 
          80         1.92  8.57334e-05  2.13909e-05      66.7197 
          80      2.25333  5.67559e-05  1.99502e-05      66.7196 
          80      2.61333  3.26268e-05  1.77204e-05      66.7196 
          80            3  1.90065e-05   1.4882e-05      66.7195 
         100            0  9.78097e-20  5.96485e-25      65.2416 
         100     0.013333  8.33204e-05  1.30332e-08      65.2416 
         100     0.053333  8.80965e-05  1.95487e-07      65.2416 
         100         0.12  9.09754e-05  9.36245e-07      65.2416 
         100     0.213332  8.38429e-05  2.59809e-06      65.2416 
         100     0.333332  7.21895e-05  5.19452e-06      65.2416 
         100         0.48  6.44053e-05  8.49071e-06      65.2416 
         100     0.653331  6.48775e-05  1.22774e-05      65.2416 
         100     0.853332  7.04182e-05  1.61741e-05      65.2416 
         100         1.08  7.24276e-05  1.95076e-05      65.2416 
         100      1.33333  7.14682e-05  2.18991e-05      65.2416 
         100      1.61333  7.25607e-05  2.34476e-05      65.2415 
         100         1.92   7.3564e-05  2.39364e-05      65.2415 
         100      2.25333  7.38959e-05  2.33192e-05      65.2415 
         100      2.61333  7.43367e-05  2.17255e-05      65.2414 
         100            3  7.34198e-05  1.86977e-05      65.2414 
         150            0           -0           -0      61.6187 
         150     0.013333  9.71729e-05 -9.44798e-08      61.6187 
         150     0.053333  0.000165659 -1.33369e-06      61.6187 
         150         0.12  0.000292596 -5.40866e-06      61.6187 
         150     0.213332  0.000426663 -1.24859e-05      61.6187 
         150     0.333332  0.000508205 -2.07316e-05      61.6187 
         150         0.48  0.000524346 -2.83976e-05      61.6187 
         150     0.653331  0.000494853 -3.55401e-05      61.6187 
         150     0.853332  0.000431531 -4.33046e-05      61.6187 
         150         1.08  0.000349965 -5.14605e-05      61.6187 
         150      1.33333  0.000273925  -5.8527e-05      61.6187 
         150      1.61333  0.000203334 -6.34505e-05      61.6187 
         150         1.92  0.000132068 -6.58762e-05      61.6186 
         150      2.25333  6.60221e-05 -6.57357e-05      61.6186 
         150      2.61333  1.26412e-05 -6.28912e-05      61.6186 
         150            3 -2.07209e-05 -5.76184e-05      61.6186 
         200            0            0            0       58.041 
         200     0.013333   0.00012718  4.65793e-09       58.041 
         200     0.053333  0.000249281  1.72389e-07       58.041 
         200         0.12   0.00038421  1.41275e-06       58.041 
         200     0.213332  0.000463488  5.55705e-06       58.041 
         200     0.333332  0.000474512  1.41551e-05       58.041 
         200         0.48  0.000454138   2.7342e-05       58.041 
         200     0.653331  0.000439674  4.40559e-05       58.041 
         200     0.853332  0.000432436  6.23708e-05       58.041 
         200         1.08    0.0004027  7.97713e-05       58.041 
         200      1.33333  0.000338222  9.42375e-05       58.041 
         200      1.61333  0.000261884  0.000105413       58.041 
         200         1.92  0.000185021  0.000112992       58.041 
         200      2.25333  0.000111952  0.000115867       58.041 
         200      2.61333  4.78787e-05  0.000114061       58.041 
         200            3 -2.30017e-07  0.000108147       58.041 
         250            0           -0           -0      54.4785 
         250     0.013333  5.00072e-05  1.10273e-09      54.4785 
         250     0.053333 -1.82225e-05 -4.64944e-08      54.4785 
         250         0.12 -8.09905e-05 -6.15244e-07      54.4785 
         250     0.213332 -0.000103196 -2.85023e-06      54.4785 
         250     0.333332 -7.99612e-05 -7.84738e-06      54.4785 
         250         0.48 -3.91952e-05  -1.5659e-05      54.4785 
         250     0.653331 -6.98768e-06 -2.52938e-05      54.4785 
         250     0.853332  1.42517e-05  -3.5394e-05      54.4785 
         250         1.08  3.40584e-05 -4.49909e-05      54.4785 
         250      1.33333   5.1986e-05 -5.38208e-05      54.4785 
         250      1.61333  6.51106e-05 -6.17579e-05      54.4785 
         250         1.92  7.66955e-05 -6.81393e-05      54.4785 
         250      2.25333  8.69577e-05 -7.22241e-05      54.4785 
         250      2.61333  9.54925e-05 -7.36652e-05      54.4785 
         250            3  0.000100705 -7.25575e-05      54.4785 
         300            0            0            0      50.9211 
         300     0.013333   4.4318e-05 -3.20818e-08      50.9211 
         300     0.053333 -3.08723e-05 -5.38236e-07      50.9211 
         300         0.12 -8.65224e-05 -2.75802e-06      50.9211 
         300     0.213332 -9.09544e-05 -8.20889e-06      50.9211 
         300     0.333332 -5.88066e-05 -1.74963e-05      50.9211 
         300         0.48 -2.91915e-05 -2.99667e-05      50.9211 
         300     0.653331 -2.57926e-05 -4.45657e-05      50.9211 
         300     0.853332 -4.41389e-05  -6.0162e-05      50.9211 
         300         1.08 -5.51451e-05 -7.49941e-05      50.9211 
         300      1.33333 -3.77647e-05  -8.7283e-05      50.9211 
         300      1.61333 -8.25956e-06 -9.66941e-05      50.9211 
         300         1.92  1.90017e-05 -0.000103273      50.9211 
         300      2.25333  4.52333e-05  -0.00010633      50.9211 
         300      2.61333  6.90109e-05 -0.000105553      50.9211 
         300            3  8.63476e-05 -0.000101094      50.9211 
         350            0           -0           -0      47.3649 
         350     0.013333  7.79712e-05 -6.17893e-08      47.3649 
         350     0.053333  9.45329e-05 -8.99634e-07      47.3649 
         350         0.12  0.000155397 -3.85806e-06      47.3649 
         350     0.213332  0.000243515 -9.61031e-06      47.3649 
         350     0.333332  0.000317967 -1.74594e-05      47.3649 
         350         0.48  0.000353859   -2.622e-05      47.3649 
         350     0.653331  0.000353477 -3.55262e-05      47.3649 
         350     0.853332  0.000322285 -4.59243e-05      47.3649 
         350         1.08  0.000267736 -5.75068e-05      47.3649 
         350      1.33333  0.000215098 -6.88467e-05      47.3649 
         350      1.61333  0.000177804 -7.82893e-05      47.3649 
         350         1.92  0.000141208 -8.53946e-05      47.3649 
         350      2.25333  0.000102923 -8.97735e-05      47.3649 
         350      2.61333  6.73553e-05 -9.09707e-05      47.3649 
         350            3  3.94177e-05 -8.89295e-05      47.3649 
         400            0           -0           -0      43.8084 
         400     0.013333  9.56033e-05 -9.00563e-09      43.8084 
         400     0.053333  0.000141169 -8.07233e-08      43.8084 
         400         0.12  0.000195305 -6.10344e-09      43.8084 
         400     0.213332  0.000221089  1.07649e-06      43.8084 
         400     0.333332  0.000206564  4.18994e-06      43.8084 
         400         0.48  0.000172248  9.53237e-06      43.8084 
         400     0.653331  0.000143907  1.62471e-05      43.8084 
         400     0.853332  0.000124707  2.29953e-05      43.8084 
         400         1.08  0.000101931  2.87033e-05      43.8084 
         400      1.33333  7.62577e-05  3.33061e-05      43.8084 
         400      1.61333  6.08205e-05  3.74897e-05      43.8084 
         400         1.92  5.16824e-05  4.12516e-05      43.8084 
         400      2.25333  4.36384e-05  4.40683e-05      43.8084 
         400      2.61333  3.64731e-05  4.56141e-05      43.8084 
         400            3  3.23369e-05  4.57795e-05      43.8084 
         450            0            0            0      40.2518 
         450     0.013333  0.000101647 -1.46954e-07      40.2518 
         450     0.053333  0.000205345  -2.1521e-06      40.2518 
         450         0.12  0.000433745 -9.32658e-06      40.2518 
         450     0.213332  0.000735514 -2.35361e-05      40.2518 
         450     0.333332  0.000991136 -4.31632e-05      40.2518 
         450         0.48   0.00111925 -6.46603e-05      40.2518 
         450     0.653331   0.00112647 -8.58079e-05      40.2518 
         450     0.853332   0.00105283 -0.000106813      40.2518 
         450         1.08  0.000926467 -0.000128451      40.2518 
         450      1.33333  0.000778638  -0.00014984      40.2518 
         450      1.61333  0.000636877 -0.000168843      40.2518 
         450         1.92  0.000493737 -0.000183744      40.2518 
         450      2.25333  0.000340889 -0.000193974      40.2517 
         450      2.61333   0.00018567 -0.000198317      40.2517 
         450            3  4.40107e-05 -0.000196115      40.2517 
         500            0           -0           -0      36.6935 
         500     0.013333 -7.65271e-05  9.45257e-08      36.6935 
         500     0.053333 -0.000496392  1.16714e-06      36.6935 
         500         0.12  -0.00102936  3.60734e-06      36.6935 
         500     0.213332  -0.00146505  4.45038e-06      36.6935 
         500     0.333332  -0.00166404  -1.6688e-06      36.6935 
         500         0.48  -0.00165858 -1.81671e-05      36.6935 
         500     0.653331  -0.00157396 -4.40023e-05      36.6935 
         500     0.853332  -0.00148287 -7.47543e-05      36.6935 
         500         1.08  -0.00135639 -0.000104818      36.6935 
         500      1.33333  -0.00115253 -0.000130405      36.6935 
         500      1.61333 -0.000905269 -0.000151597      36.6935 
         500         1.92 -0.000656906 -0.000169652      36.6936 
         500      2.25333 -0.000400281 -0.000183619      36.6936 
         500      2.61333 -0.000138744  -0.00019225      36.6936 
         500            3  0.000104454 -0.000194739      36.6936 
         550            0            0            0       33.136 
         550     0.013333  0.000176072  9.47085e-08       33.136 
         550     0.053333   0.00040014  1.54999e-06       33.136 
         550         0.12  0.000596019  7.81028e-06       33.136 
         550     0.213332  0.000636993  2.32565e-05       33.136 
         550     0.333332  0.000535369  5.02974e-05       33.136 
         550         0.48  0.000400796  8.79079e-05       33.136 
         550     0.653331   0.00032798  0.000133368       33.136 
         550     0.853332  0.000342555  0.000184248       33.136 
         550         1.08  0.000403699   0.00023763       33.136 
         550      1.33333  0.000427995  0.000288814       33.136 
         550      1.61333  0.000378123  0.000333533       33.136 
         550         1.92  0.000305335  0.000370632       33.136 
         550      2.25333  0.000232617  0.000398756       33.136 
         550      2.61333  0.000161135   0.00041587       33.136 
         550            3  9.16953e-05  0.000420254      33.1359 
         600            0           -0           -0       29.577 
         600     0.013333  7.78436e-05 -1.00913e-07       29.577 
         600     0.053333  0.000105899 -1.48098e-06       29.577 
         600         0.12  0.000211106 -6.45367e-06       29.577 
         600     0.213332  0.000376223 -1.64714e-05       29.577 
         600     0.333332  0.000531852 -3.07967e-05       29.577 
         600         0.48  0.000622611 -4.74514e-05       29.577 
         600     0.653331  0.000644386 -6.52686e-05       29.577 
         600     0.853332  0.000612276  -8.4692e-05       29.577 
         600         1.08  0.000531526 -0.000106719       29.577 
         600      1.33333  0.000422195 -0.000130725       29.577 
         600      1.61333  0.000328513 -0.000153924       29.577 
         600         1.92  0.000259664 -0.000173982       29.577 
         600      2.25333  0.000192939 -0.000189809       29.577 
         600      2.61333  0.000122265 -0.000200627       29.577 
         600            3  5.56739e-05  -0.00020559       29.577 
         650            0            0            0      26.0167 
         650     0.013333  1.71579e-05  5.57258e-08      26.0167 
         650     0.053333 -0.000154567  7.45239e-07      26.0167 
         650         0.12 -0.000384039  2.74715e-06      26.0167 
         650     0.213332 -0.000589264   5.3439e-06      26.0167 
         650     0.333332 -0.000697339  6.34017e-06      26.0167 
         650         0.48 -0.000703566   3.8323e-06      26.0167 
         650     0.653331  -0.00065715 -2.23255e-06      26.0167 
         650     0.853332 -0.000599042 -1.02038e-05      26.0167 
         650         1.08 -0.000529126 -1.78532e-05      26.0167 
         650      1.33333 -0.000435029 -2.38451e-05      26.0167 
         650      1.61333 -0.000330624 -2.85181e-05      26.0167 
         650         1.92 -0.000234785 -3.28393e-05      26.0167 
         650      2.25333 -0.000139598 -3.69917e-05      26.0167 
         650      2.61333 -4.15002e-05 -4.03971e-05      26.0167 
         650            3  5.32433e-05 -4.26511e-05      26.0168 
         700            0           -0           -0      22.4562 
         700     0.013333  0.000148976 -6.38562e-08      22.4562 
         700     0.053333  0.000351425 -8.54054e-07      22.4562 
         700         0.12  0.000641483 -3.16253e-06      22.4562 
         700     0.213332  0.000916573   -6.249e-06      22.4562 
         700     0.333332   0.00108668 -7.75208e-06      22.4562 
         700         0.48   0.00113825 -5.55134e-06      22.4562 
         700     0.653331   0.00112287  6.08457e-07      22.4562 
         700     0.853332   0.00108718  9.12406e-06      22.4562 
         700         1.08   0.00102843  1.73658e-05      22.4562 
         700      1.33333  0.000920829  2.31798e-05      22.4562 
         700      1.61333  0.000775666   2.6398e-05      22.4562 
         700         1.92  0.000630289  2.88213e-05      22.4562 
         700      2.25333   0.00048349  3.05254e-05      22.4562 
         700      2.61333  0.000330307  3.16363e-05      22.4562 
         700            3  0.000176594  3.21478e-05      22.4562 
         750            0            0            0      18.8936 
         750     0.013333  6.29322e-05  1.29677e-08      18.8936 
         750     0.053333  2.18861e-05  1.58559e-07      18.8936 
         750         0.12 -2.35429e-05   4.8959e-07      18.8936 
         750     0.213332 -5.70303e-05  6.66499e-07      18.8936 
         750     0.333332 -7.08272e-05  2.05133e-07      18.8936 
         750         0.48 -7.56278e-05 -9.64161e-07      18.8936 
         750     0.653331 -8.63415e-05 -2.40213e-06      18.8936 
         750     0.853332 -0.000105672 -3.43452e-06      18.8936 
         750         1.08 -0.000117869 -3.15216e-06      18.8936 
         750      1.33333 -0.000100499 -5.69641e-07      18.8936 
         750      1.61333 -5.67985e-05   4.3426e-06      18.8936 
         750         1.92 -1.87368e-05   1.0123e-05      18.8936 
         750      2.25333  1.04681e-05  1.59285e-05      18.8936 
         750      2.61333  3.71519e-05   2.1366e-05      18.8936 
         750            3  6.39468e-05  2.62255e-05      18.8936 
         800            0           -0           -0      15.3304 
         800     0.013333   0.00014364  2.90087e-08      15.3304 
         800     0.053333  0.000302448   5.1779e-07      15.3304 
         800         0.12  0.000465214  2.90958e-06      15.3304 
         800     0.213332  0.000530146  9.68277e-06      15.3304 
         800     0.333332   0.00046652  2.31881e-05      15.3304 
         800         0.48  0.000327937  4.40844e-05      15.3304 
         800     0.653331  0.000195126  7.10722e-05      15.3304 
         800     0.853332  0.000113356  0.000102055      15.3304 
         800         1.08    8.119e-05   0.00013513      15.3304 
         800      1.33333   7.1126e-05  0.000168619      15.3304 
         800      1.61333  5.77051e-05  0.000200866      15.3304 
         800         1.92  3.95689e-05  0.000230772      15.3304 
         800      2.25333  2.45814e-05  0.000257231      15.3304 
         800      2.61333  1.36708e-05  0.000278755      15.3304 
         800            3  4.94536e-06  0.000293742      15.3304 
         850            0           -0           -0      11.7657 
         850     0.013333 -2.20888e-05  2.32823e-07      11.7657 
         850     0.053333 -0.000362067  3.42238e-06      11.7657 
         850         0.12  -0.00096804  1.49457e-05      11.7657 
         850     0.213332  -0.00172966  3.81244e-05      11.7657 
         850     0.333332  -0.00239869  7.05458e-05      11.7657 
         850         0.48   -0.0027768  0.000105607      11.7657 
         850     0.653331  -0.00284874   0.00013783      11.7657 
         850     0.853332  -0.00271936  0.000166143      11.7657 
         850         1.08  -0.00248264  0.000192517      11.7657 
         850      1.33333  -0.00219047  0.000218246      11.7657 
         850      1.61333  -0.00188072  0.000242494      11.7657 
         850         1.92  -0.00156715  0.000263517      11.7657 
         850      2.25333  -0.00123188  0.000280174      11.7657 
         850      2.61333 -0.000866441  0.000291461      11.7658 
         850            3 -0.000482747  0.000296295      11.7658 
         900            0           -0           -0      8.20167 
         900     0.013333 -0.000295141 -2.41094e-07      8.20167 
         900     0.053333  -0.00118439 -4.02785e-06      8.20167 
         900         0.12  -0.00202614 -2.10071e-05      8.20167 
         900     0.213332  -0.00231164 -6.54404e-05      8.20167 
         900     0.333332  -0.00194485 -0.000148682      8.20167 
         900         0.48   -0.0012607 -0.000271856      8.20167 
         900     0.653331 -0.000682993 -0.000426803      8.20167 
         900     0.853332 -0.000423633 -0.000602976      8.20167 
         900         1.08 -0.000437891  -0.00079081      8.20167 
         900      1.33333 -0.000522577 -0.000980169      8.20167 
         900      1.61333 -0.000498422  -0.00116074      8.20167 
         900         1.92 -0.000373177  -0.00132641      8.20167 
         900      2.25333 -0.000233883  -0.00147291      8.20168 
         900      2.61333 -0.000107457  -0.00159323      8.20169 
         900            3  1.74899e-05  -0.00167908       8.2017 
         950            0           -0           -0      4.63832 
         950     0.013333  0.000410106 -3.91193e-07      4.63832 
         950     0.053333   0.00140269 -5.50786e-06      4.63832 
         950         0.12   0.00292197 -2.23342e-05      4.63832 
         950     0.213332   0.00453942  -5.1395e-05      4.63832 
         950     0.333332   0.00573606 -8.32672e-05      4.63832 
         950         0.48   0.00628073 -0.000105641      4.63832 
         950     0.653331   0.00632905 -0.000113078      4.63832 
         950     0.853332   0.00614651 -0.000109926      4.63832 
         950         1.08   0.00582096  -0.00010686      4.63832 
         950      1.33333   0.00527501 -0.000113949      4.63832 
         950      1.61333   0.00452191 -0.000133071      4.63832 
         950         1.92   0.00374779 -0.000156341      4.63831 
         950      2.25333    0.0029902 -0.000177552      4.63829 
         950      2.61333   0.00220683 -0.000195153      4.63825 
         950            3   0.00137858 -0.000209069       4.6382 
        1000            0           -0           -0      1.07006 
        1000     0.013333   0.00026055  3.02979e-07      1.07006 
        1000     0.053333  0.000648343  4.75589e-06      1.07006 
        1000         0.12  0.000902709  2.23633e-05      1.07006 
        1000     0.213332  0.000783287  6.24647e-05      1.07006 
        1000     0.333332  0.000357136    0.0001285      1.07006 
        1000         0.48 -0.000105241  0.000216708      1.07006 
        1000     0.653331 -0.000381094  0.000320858      1.07006 
        1000     0.853332 -0.000400159  0.000437414      1.07006 
        1000         1.08 -0.000187099  0.000565818      1.07006 
        1000      1.33333  0.000151394  0.000702722      1.07006 
        1000      1.61333  0.000417691  0.000838221      1.07006 
        1000         1.92  0.000485149  0.000961571      1.07006 
        1000      2.25333  0.000470618   0.00106818      1.07006 
        1000      2.61333  0.000452131   0.00115487      1.07006 
        1000            3  0.000430808   0.00121723      1.07007 
