Variables = x, y, u, v, p

Zone, I=416, F=POINT
         -50            0            0            0     -68.7518 
         -50     0.013333  1.43151e-05 -3.43389e-08     -68.7518 
         -50     0.053333  2.16554e-05 -1.44287e-07     -68.7518 
         -50         0.12  3.71981e-05 -5.37772e-07     -68.7517 
         -50     0.213332  5.55405e-05 -1.29747e-06     -68.7517 
         -50     0.333332  7.11539e-05 -2.14328e-06     -68.7516 
         -50         0.48  8.18066e-05  -3.0639e-06     -68.7515 
         -50     0.653331  8.44395e-05 -4.43335e-06     -68.7513 
         -50     0.853332  7.72837e-05 -5.99059e-06     -68.7509 
         -50         1.08   6.2759e-05 -7.83404e-06     -68.7504 
         -50      1.33333  4.30043e-05 -8.90432e-06     -68.7497 
         -50      1.61333  1.98792e-05 -1.04897e-05     -68.7488 
         -50         1.92  4.90538e-07 -1.02668e-05     -68.7476 
         -50      2.25333 -5.38114e-06 -8.89585e-06     -68.7461 
         -50      2.61333  1.36197e-06 -3.75687e-06     -68.7441 
         -50            3  1.05384e-05  6.34401e-06     -68.7417 
         -25            0  4.28222e-21 -8.77198e-24     -66.0012 
         -25     0.013333  9.50614e-06 -5.76585e-09     -66.0012 
         -25     0.053333  9.96353e-06  5.28984e-08     -66.0012 
         -25         0.12  1.05806e-05  2.62174e-07     -66.0012 
         -25     0.213332  1.03853e-05  6.87238e-07     -66.0012 
         -25     0.333332  1.09897e-05  1.30298e-06     -66.0011 
         -25         0.48  1.41516e-05  2.01928e-06     -66.0011 
         -25     0.653331  1.91137e-05   2.9008e-06      -66.001 
         -25     0.853332  2.38373e-05  3.71789e-06     -66.0009 
         -25         1.08  2.62781e-05  4.48612e-06     -66.0007 
         -25      1.33333  2.65198e-05   5.0756e-06     -66.0004 
         -25      1.61333  2.41408e-05  5.40899e-06     -66.0001 
         -25         1.92  1.75231e-05  4.96604e-06     -65.9996 
         -25      2.25333  1.48237e-05  4.78247e-06      -65.999 
         -25      2.61333  8.60872e-06  7.61061e-07     -65.9983 
         -25            3 -7.59584e-06 -1.01977e-05     -65.9974 
           0            0    5.779e-16 -2.86085e-16     -63.7002 
           0     0.013333  0.000106369 -2.91122e-05     -63.7027 
           0     0.053333  5.29171e-06 -1.53706e-05     -63.7078 
           0         0.12 -2.68548e-05  -2.4765e-06     -63.7137 
           0     0.213332 -3.81493e-05 -1.51848e-06     -63.7199 
           0     0.333332 -3.92412e-05 -1.24101e-06     -63.7265 
           0         0.48  -3.6867e-05 -1.79691e-06     -63.7333 
           0     0.653331 -3.57094e-05 -2.97822e-06       -63.74 
           0     0.853332 -3.42864e-05 -4.52551e-06     -63.7468 
           0         1.08 -2.89429e-05 -6.09215e-06     -63.7535 
           0      1.33333 -1.99687e-05 -7.46181e-06       -63.76 
           0      1.61333 -9.58435e-06 -8.47158e-06     -63.7664 
           0         1.92   2.2148e-06 -8.94354e-06     -63.7726 
           0      2.25333  1.39124e-05 -8.78799e-06     -63.7785 
           0      2.61333  2.51428e-05 -7.37297e-06     -63.7841 
           0            3  3.38651e-05 -5.25615e-06     -63.7893 
          20            0  4.88168e-22 -1.67422e-23     -62.4129 
          20     0.013333 -4.10559e-07 -1.77507e-08     -62.4129 
          20     0.053333 -1.81024e-05 -5.69145e-08     -62.4129 
          20         0.12 -3.08238e-05 -4.69434e-07     -62.4129 
          20     0.213332 -3.49542e-05 -1.68802e-06     -62.4129 
          20     0.333332 -3.84215e-05 -3.54024e-06     -62.4128 
          20         0.48  -4.0914e-05  -5.0247e-06     -62.4127 
          20     0.653331 -3.80638e-05 -5.52672e-06     -62.4126 
          20     0.853332  -3.6182e-05 -5.66785e-06     -62.4123 
          20         1.08 -3.08967e-05  -5.1297e-06      -62.412 
          20      1.33333  -2.0392e-05 -3.48965e-06     -62.4115 
          20      1.61333 -9.01513e-06 -1.12242e-06     -62.4109 
          20         1.92  1.37048e-06  1.54461e-06     -62.4101 
          20      2.25333  1.26011e-05   4.4245e-06     -62.4091 
          20      2.61333  2.16838e-05  6.82524e-06     -62.4079 
          20            3  2.08956e-05  8.11231e-06     -62.4065 
          40            0           -0           -0     -60.9602 
          40     0.013333   1.7301e-05 -1.09334e-07     -60.9602 
          40     0.053333  6.96649e-05 -1.54745e-06     -60.9602 
          40         0.12  0.000183984 -6.49068e-06     -60.9602 
          40     0.213332  0.000320876 -1.55691e-05     -60.9602 
          40     0.333332  0.000416621 -2.69652e-05     -60.9602 
          40         0.48  0.000448909   -3.878e-05     -60.9602 
          40     0.653331   0.00042834 -5.10436e-05     -60.9602 
          40     0.853332  0.000372548  -6.4096e-05     -60.9601 
          40         1.08  0.000303453 -7.62095e-05     -60.9601 
          40      1.33333  0.000224133 -8.56978e-05       -60.96 
          40      1.61333   0.00013464 -9.13693e-05     -60.9599 
          40         1.92  4.46921e-05 -9.25737e-05     -60.9598 
          40      2.25333 -2.92915e-05 -8.90365e-05     -60.9597 
          40      2.61333 -7.51729e-05  -8.1404e-05     -60.9595 
          40            3 -9.41719e-05 -7.23312e-05     -60.9593 
          60            0           -0           -0     -59.6023 
          60     0.013333  4.70722e-06 -8.50019e-08     -59.6023 
          60     0.053333  1.85685e-05 -1.19171e-06     -59.6023 
          60         0.12  7.36373e-05 -4.95981e-06     -59.6023 
          60     0.213332  0.000156426 -1.20891e-05     -59.6023 
          60     0.333332  0.000232153 -2.19351e-05     -59.6023 
          60         0.48   0.00028008 -3.37633e-05     -59.6022 
          60     0.653331  0.000287424 -4.79708e-05     -59.6022 
          60     0.853332  0.000238202 -6.57674e-05     -59.6022 
          60         1.08  0.000152782 -8.61733e-05     -59.6022 
          60      1.33333  8.54947e-05 -0.000105322     -59.6022 
          60      1.61333  3.88888e-05 -0.000120143     -59.6021 
          60         1.92 -5.70973e-06 -0.000129026     -59.6021 
          60      2.25333  -4.2548e-05  -0.00013203      -59.602 
          60      2.61333 -6.59627e-05 -0.000128551     -59.6019 
          60            3 -7.27354e-05 -0.000118614     -59.6018 
          80            0           -0           -0     -58.2892 
          80     0.013333 -1.24149e-05  9.27168e-09     -58.2892 
          80     0.053333 -6.22128e-05  1.18686e-07     -58.2892 
          80         0.12 -0.000122575  3.18138e-07     -58.2892 
          80     0.213332 -0.000168542  1.29918e-07     -58.2892 
          80     0.333332 -0.000186624 -1.25112e-06     -58.2892 
          80         0.48 -0.000183583 -4.31774e-06     -58.2892 
          80     0.653331 -0.000172776 -8.89103e-06     -58.2892 
          80     0.853332 -0.000157698 -1.43258e-05     -58.2892 
          80         1.08   -0.0001358 -2.00743e-05     -58.2892 
          80      1.33333 -0.000104913 -2.53657e-05     -58.2892 
          80      1.61333 -6.90899e-05 -2.95856e-05     -58.2891 
          80         1.92 -3.35938e-05 -3.23955e-05     -58.2891 
          80      2.25333 -1.48561e-06 -3.35268e-05     -58.2891 
          80      2.61333  2.17395e-05 -3.31264e-05      -58.289 
          80            3  3.38977e-05 -3.09355e-05     -58.2889 
         100            0  3.28183e-21 -4.45703e-25     -57.0034 
         100     0.013333  6.15066e-06  4.46753e-08     -57.0034 
         100     0.053333 -5.57848e-06  6.64719e-07     -57.0034 
         100         0.12 -4.50916e-05  2.90521e-06     -57.0034 
         100     0.213332 -0.000107609  7.42522e-06     -57.0034 
         100     0.333332 -0.000167318  1.39119e-05     -57.0034 
         100         0.48 -0.000203887  2.15481e-05     -57.0034 
         100     0.653331 -0.000212459  2.98661e-05     -57.0034 
         100     0.853332 -0.000193796  3.88652e-05     -57.0034 
         100         1.08 -0.000157483  4.80591e-05     -57.0034 
         100      1.33333 -0.000119268  5.63456e-05     -57.0034 
         100      1.61333 -8.13079e-05  6.27565e-05     -57.0033 
         100         1.92 -4.27249e-05  6.66735e-05     -57.0033 
         100      2.25333 -7.77993e-06  6.76629e-05     -57.0033 
         100      2.61333  1.70543e-05  6.56065e-05     -57.0032 
         100            3  2.84339e-05  6.10929e-05     -57.0032 
         150            0           -0           -0     -53.8514 
         150     0.013333   4.5526e-05  5.28898e-08     -53.8514 
         150     0.053333    0.0001298  8.65098e-07     -53.8514 
         150         0.12  0.000185707  4.32962e-06     -53.8514 
         150     0.213332  0.000164847  1.27619e-05     -53.8514 
         150     0.333332  8.68856e-05  2.72902e-05     -53.8514 
         150         0.48  8.06511e-06  4.72273e-05     -53.8514 
         150     0.653331 -3.36134e-05  7.10617e-05     -53.8514 
         150     0.853332 -3.55459e-05  9.71743e-05     -53.8514 
         150         1.08 -2.17102e-05  0.000123549     -53.8514 
         150      1.33333 -1.53021e-05  0.000147721     -53.8514 
         150      1.61333 -1.57305e-05  0.000167647     -53.8514 
         150         1.92 -1.48293e-05  0.000181565     -53.8514 
         150      2.25333 -1.17032e-05  0.000188004     -53.8514 
         150      2.61333 -8.55338e-06  0.000186612     -53.8514 
         150            3 -7.80086e-06  0.000178128     -53.8514 
         200            0            0            0      -50.738 
         200     0.013333  2.11611e-05  6.46514e-08      -50.738 
         200     0.053333  4.44822e-05  9.64396e-07      -50.738 
         200         0.12     3.82e-05  4.28003e-06      -50.738 
         200     0.213332 -5.28183e-06  1.11259e-05      -50.738 
         200     0.333332 -5.68445e-05  2.12658e-05      -50.738 
         200         0.48  -8.7874e-05  3.37998e-05      -50.738 
         200     0.653331 -8.83263e-05   4.8324e-05      -50.738 
         200     0.853332 -5.91757e-05  6.47624e-05      -50.738 
         200         1.08 -2.02112e-05  8.19152e-05      -50.738 
         200      1.33333  7.25704e-07  9.74634e-05      -50.738 
         200      1.61333   7.0667e-06  0.000109841      -50.738 
         200         1.92  1.34674e-05  0.000118362      -50.738 
         200      2.25333  2.03702e-05  0.000122155      -50.738 
         200      2.61333  2.36665e-05  0.000120868      -50.738 
         200            3  2.09208e-05  0.000115017      -50.738 
         250            0           -0           -0     -47.6366 
         250     0.013333 -5.56231e-05 -1.45476e-08     -47.6366 
         250     0.053333 -0.000204151 -3.46206e-07     -47.6366 
         250         0.12 -0.000347863 -2.37483e-06     -47.6366 
         250     0.213332 -0.000403416 -8.72205e-06     -47.6366 
         250     0.333332 -0.000362756 -2.15737e-05     -47.6366 
         250         0.48 -0.000285984 -4.09262e-05     -47.6366 
         250     0.653331 -0.000230289 -6.49143e-05     -47.6366 
         250     0.853332 -0.000203604 -9.09635e-05     -47.6366 
         250         1.08 -0.000177699 -0.000116511     -47.6366 
         250      1.33333 -0.000135563 -0.000139588     -47.6366 
         250      1.61333 -8.80391e-05 -0.000159251     -47.6366 
         250         1.92 -4.20774e-05 -0.000174417     -47.6366 
         250      2.25333  8.17457e-07 -0.000183306     -47.6366 
         250      2.61333  3.67435e-05 -0.000185365     -47.6366 
         250            3  6.12184e-05 -0.000180761     -47.6366 
         300            0            0            0      -44.538 
         300     0.013333 -8.18789e-05   8.5281e-08      -44.538 
         300     0.053333  -0.00032645  1.10728e-06      -44.538 
         300         0.12 -0.000651568  3.87652e-06      -44.538 
         300     0.213332 -0.000932645  6.92974e-06      -44.538 
         300     0.333332  -0.00108047  6.91572e-06      -44.538 
         300         0.48  -0.00110601  1.41841e-06      -44.538 
         300     0.653331  -0.00107475 -9.27084e-06      -44.538 
         300     0.853332  -0.00101829 -2.24934e-05      -44.538 
         300         1.08 -0.000914967 -3.49083e-05      -44.538 
         300      1.33333 -0.000755811 -4.46099e-05      -44.538 
         300      1.61333 -0.000574169 -5.22486e-05      -44.538 
         300         1.92 -0.000385006 -5.83241e-05      -44.538 
         300      2.25333 -0.000191641 -6.22041e-05      -44.538 
         300      2.61333 -1.00059e-05   -6.369e-05      -44.538 
         300            3  0.000137178 -6.26474e-05      -44.538 
         350            0           -0           -0     -41.4383 
         350     0.013333  1.54536e-05  1.01253e-07     -41.4383 
         350     0.053333  1.43016e-05  1.50136e-06     -41.4383 
         350         0.12 -4.52911e-05  6.62342e-06     -41.4383 
         350     0.213332 -0.000159546  1.70905e-05     -41.4383 
         350     0.333332 -0.000268388  3.22514e-05     -41.4383 
         350         0.48 -0.000321532   5.0166e-05     -41.4383 
         350     0.653331 -0.000313202  6.96945e-05     -41.4383 
         350     0.853332 -0.000257685  9.08764e-05     -41.4383 
         350         1.08 -0.000178508  0.000113215     -41.4383 
         350      1.33333 -0.000111868  0.000134615     -41.4383 
         350      1.61333 -7.07675e-05  0.000152817     -41.4383 
         350         1.92 -3.52316e-05  0.000166739     -41.4383 
         350      2.25333    4.284e-07  0.000175439     -41.4383 
         350      2.61333  3.33147e-05  0.000178031     -41.4383 
         350            3  5.89717e-05  0.000174308     -41.4383 
         400            0           -0           -0     -38.3369 
         400     0.013333  4.81102e-05  1.01849e-07     -38.3369 
         400     0.053333   0.00012822  1.57335e-06     -38.3369 
         400         0.12  0.000153263  7.35377e-06     -38.3369 
         400     0.213332  7.98251e-05  2.02535e-05     -38.3369 
         400     0.333332 -4.38041e-05  4.07818e-05     -38.3369 
         400         0.48 -0.000139364  6.72142e-05     -38.3369 
         400     0.653331 -0.000167012   9.7722e-05     -38.3369 
         400     0.853332 -0.000128205  0.000131339     -38.3369 
         400         1.08 -5.75583e-05  0.000166401     -38.3369 
         400      1.33333 -1.05056e-05  0.000199536     -38.3369 
         400      1.61333  -8.8587e-07  0.000227921     -38.3369 
         400         1.92  3.39319e-06  0.000250516     -38.3369 
         400      2.25333  9.74209e-06  0.000265841     -38.3369 
         400      2.61333   1.5496e-05  0.000272522     -38.3369 
         400            3  1.86716e-05  0.000269955     -38.3369 
         450            0            0            0     -35.2339 
         450     0.013333  4.91983e-05  7.98342e-08     -35.2339 
         450     0.053333  0.000134475  1.28404e-06     -35.2339 
         450         0.12  0.000166305  6.31345e-06     -35.2339 
         450     0.213332  9.05673e-05  1.82405e-05     -35.2339 
         450     0.333332 -4.73506e-05  3.80869e-05     -35.2339 
         450         0.48 -0.000155581  6.40461e-05     -35.2339 
         450     0.653331  -0.00018404  9.33692e-05     -35.2339 
         450     0.853332 -0.000144811  0.000123914     -35.2339 
         450         1.08  -8.8874e-05  0.000153432     -35.2339 
         450      1.33333 -6.48485e-05  0.000179324     -35.2339 
         450      1.61333 -6.64383e-05  0.000200436     -35.2339 
         450         1.92 -6.07193e-05  0.000216743     -35.2339 
         450      2.25333 -4.80436e-05  0.000227383     -35.2339 
         450      2.61333 -3.36479e-05  0.000231137     -35.2339 
         450            3 -1.91293e-05  0.000227411     -35.2339 
         500            0           -0           -0     -32.1282 
         500     0.013333  0.000149164  -2.0069e-07     -32.1282 
         500     0.053333  0.000572935 -2.76481e-06     -32.1282 
         500         0.12   0.00119406 -1.08131e-05     -32.1282 
         500     0.213332   0.00179893 -2.35245e-05     -32.1282 
         500     0.333332   0.00217213 -3.51608e-05     -32.1282 
         500         0.48   0.00226983 -3.99172e-05     -32.1282 
         500     0.653331   0.00219953 -3.67928e-05     -32.1282 
         500     0.853332   0.00205535 -2.96739e-05     -32.1282 
         500         1.08   0.00183866 -2.38984e-05     -32.1282 
         500      1.33333   0.00154622 -2.16422e-05     -32.1282 
         500      1.61333   0.00123422 -2.06668e-05     -32.1282 
         500         1.92  0.000926115 -1.86585e-05     -32.1282 
         500      2.25333  0.000603902 -1.58745e-05     -32.1283 
         500      2.61333  0.000274769 -1.25908e-05     -32.1283 
         500            3  -3.0053e-05 -8.97236e-06     -32.1283 
         550            0            0            0     -29.0222 
         550     0.013333 -0.000192084  6.90159e-08     -29.0222 
         550     0.053333 -0.000718882  7.53344e-07     -29.0222 
         550         0.12  -0.00137365  1.54359e-06     -29.0222 
         550     0.213332  -0.00189235 -1.67591e-06     -29.0222 
         550     0.333332  -0.00211828 -1.50688e-05     -29.0222 
         550         0.48  -0.00209991  -4.2258e-05     -29.0222 
         550     0.653331  -0.00199386 -8.21409e-05     -29.0222 
         550     0.853332  -0.00190075 -0.000130258     -29.0222 
         550         1.08  -0.00179617 -0.000180286     -29.0222 
         550      1.33333  -0.00159976 -0.000226047     -29.0222 
         550      1.61333  -0.00131169 -0.000264806     -29.0222 
         550         1.92  -0.00100382 -0.000297508     -29.0222 
         550      2.25333 -0.000684982 -0.000323022     -29.0222 
         550      2.61333 -0.000358472  -0.00033956     -29.0221 
         550            3 -4.69151e-05 -0.000345653     -29.0221 
         600            0           -0           -0     -25.9114 
         600     0.013333  0.000170585 -6.99639e-08     -25.9114 
         600     0.053333  0.000615681 -8.26913e-07     -25.9114 
         600         0.12   0.00118289 -2.24088e-06     -25.9114 
         600     0.213332   0.00164795  -1.2263e-06     -25.9114 
         600     0.333332   0.00186276  7.48061e-06     -25.9114 
         600         0.48   0.00185292  2.74302e-05     -25.9114 
         600     0.653331    0.0017483  5.80581e-05     -25.9114 
         600     0.853332    0.0016427  9.56545e-05     -25.9114 
         600         1.08   0.00153121  0.000135227     -25.9114 
         600      1.33333   0.00136302  0.000172422     -25.9114 
         600      1.61333   0.00113334  0.000205202     -25.9114 
         600         1.92  0.000884138  0.000233597     -25.9114 
         600      2.25333  0.000623568  0.000256917     -25.9114 
         600      2.61333  0.000354723  0.000273432     -25.9114 
         600            3  9.28708e-05  0.000281645     -25.9115 
         650            0            0            0     -22.8002 
         650     0.013333 -0.000139039  1.09262e-07     -22.8002 
         650     0.053333 -0.000545483   1.4487e-06     -22.8002 
         650         0.12   -0.0011048  5.27507e-06     -22.8002 
         650     0.213332  -0.00162724  1.00841e-05     -22.8002 
         650     0.333332  -0.00194887  1.15246e-05     -22.8002 
         650         0.48  -0.00204629  5.65303e-06     -22.8002 
         650     0.653331  -0.00201446 -8.28235e-06     -22.8002 
         650     0.853332  -0.00194379 -2.78064e-05     -22.8002 
         650         1.08  -0.00183735 -4.84094e-05     -22.8002 
         650      1.33333  -0.00164704 -6.58016e-05     -22.8002 
         650      1.61333  -0.00137987  -7.8806e-05     -22.8002 
         650         1.92  -0.00109642 -8.93235e-05     -22.8002 
         650      2.25333  -0.00080154 -9.77899e-05     -22.8002 
         650      2.61333 -0.000492606  -0.00010375     -22.8002 
         650            3 -0.000184552 -0.000106646     -22.8002 
         700            0           -0           -0     -19.6842 
         700     0.013333  -2.9765e-05 -1.10213e-07     -19.6842 
         700     0.053333 -8.59315e-05 -1.68528e-06     -19.6842 
         700         0.12 -6.26442e-05  -7.8436e-06     -19.6842 
         700     0.213332  9.08134e-05 -2.18041e-05     -19.6842 
         700     0.333332  0.000327224 -4.48321e-05     -19.6842 
         700         0.48  0.000549048  -7.5631e-05     -19.6842 
         700     0.653331  0.000688944 -0.000111734     -19.6842 
         700     0.853332  0.000736376 -0.000151257     -19.6842 
         700         1.08  0.000709221 -0.000193337     -19.6842 
         700      1.33333  0.000629338  -0.00023733     -19.6842 
         700      1.61333  0.000524129 -0.000281745     -19.6842 
         700         1.92   0.00042391 -0.000323665     -19.6842 
         700      2.25333  0.000325435 -0.000360334     -19.6842 
         700      2.61333  0.000222062 -0.000389238     -19.6842 
         700            3  0.000116573 -0.000408239     -19.6842 
         750            0            0            0     -16.5656 
         750     0.013333  0.000107065  6.96514e-08     -16.5656 
         750     0.053333   0.00034678  1.18294e-06     -16.5656 
         750         0.12  0.000568112    6.252e-06     -16.5656 
         750     0.213332  0.000633415  1.95332e-05     -16.5656 
         750     0.333332  0.000534408  4.40424e-05     -16.5656 
         750         0.48  0.000381168  7.93603e-05     -16.5656 
         750     0.653331  0.000287149  0.000122462     -16.5656 
         750     0.853332  0.000287901  0.000169969     -16.5656 
         750         1.08   0.00033873  0.000218565     -16.5656 
         750      1.33333  0.000358296  0.000264523     -16.5656 
         750      1.61333  0.000311895  0.000305111     -16.5656 
         750         1.92  0.000243856  0.000340008     -16.5656 
         750      2.25333  0.000178795  0.000368772     -16.5656 
         750      2.61333   0.00011675  0.000389542     -16.5656 
         750            3  5.38601e-05  0.000400319     -16.5656 
         800            0           -0           -0     -13.4446 
         800     0.013333 -0.000193915 -8.28593e-08     -13.4446 
         800     0.053333 -0.000680772 -1.48517e-06     -13.4446 
         800         0.12  -0.00117771 -8.34076e-06     -13.4446 
         800     0.213332  -0.00141148   -2.757e-05     -13.4446 
         800     0.333332  -0.00130625 -6.53227e-05     -13.4446 
         800         0.48  -0.00101296  -0.00012283     -13.4446 
         800     0.653331  -0.00074513 -0.000196387     -13.4446 
         800     0.853332  -0.00061584 -0.000280579     -13.4446 
         800         1.08 -0.000600922 -0.000369886     -13.4446 
         800      1.33333 -0.000589342 -0.000458145     -13.4446 
         800      1.61333 -0.000502314 -0.000539916     -13.4446 
         800         1.92 -0.000377505 -0.000613704     -13.4446 
         800      2.25333 -0.000256487 -0.000677145     -13.4446 
         800      2.61333 -0.000141757  -0.00072741     -13.4446 
         800            3 -2.62191e-05 -0.000760863     -13.4446 
         850            0           -0           -0     -10.3204 
         850     0.013333   0.00015824 -1.61573e-07     -10.3204 
         850     0.053333  0.000609161 -2.25028e-06     -10.3204 
         850         0.12   0.00128327 -9.00004e-06     -10.3204 
         850     0.213332   0.00198868  -2.0344e-05     -10.3204 
         850     0.333332   0.00250889  -3.2212e-05     -10.3204 
         850         0.48   0.00275612 -3.95617e-05     -10.3204 
         850     0.653331    0.0027988 -4.01491e-05     -10.3204 
         850     0.853332    0.0027462 -3.55403e-05     -10.3204 
         850         1.08   0.00263212 -2.99875e-05     -10.3204 
         850      1.33333   0.00241493  -2.8092e-05     -10.3204 
         850      1.61333   0.00208666 -3.17321e-05     -10.3204 
         850         1.92   0.00172451 -3.80133e-05     -10.3204 
         850      2.25333   0.00135516    -4.45e-05     -10.3204 
         850      2.61333  0.000969193 -5.03374e-05     -10.3204 
         850            3   0.00056469 -5.53364e-05     -10.3204 
         900            0           -0           -0     -7.19615 
         900     0.013333  9.21604e-05   7.6959e-08     -7.19615 
         900     0.053333  0.000297898  1.21695e-06     -7.19615 
         900         0.12  0.000496145  5.92291e-06     -7.19615 
         900     0.213332   0.00057985  1.72789e-05     -7.19615 
         900     0.333332  0.000535133  3.72645e-05     -7.19615 
         900         0.48  0.000427897  6.58194e-05     -7.19615 
         900     0.653331  0.000333647  0.000101587     -7.19615 
         900     0.853332  0.000293895  0.000143256     -7.19615 
         900         1.08  0.000314354  0.000189843     -7.19615 
         900      1.33333  0.000366333  0.000239653     -7.19615 
         900      1.61333  0.000396226   0.00028949     -7.19615 
         900         1.92  0.000370883  0.000336047     -7.19616 
         900      2.25333  0.000317085  0.000377057     -7.19616 
         900      2.61333   0.00025504  0.000410858     -7.19616 
         900            3  0.000187806  0.000435553     -7.19616 
         950            0           -0           -0     -4.06888 
         950     0.013333 -3.51692e-06 -5.61192e-09     -4.06888 
         950     0.053333 -2.09218e-05 -1.16728e-07     -4.06888 
         950         0.12   -2.631e-05 -7.12151e-07     -4.06888 
         950     0.213332  -5.0351e-06 -2.43153e-06     -4.06888 
         950     0.333332  3.56758e-05 -5.69883e-06     -4.06888 
         950         0.48  7.00988e-05 -1.02365e-05     -4.06888 
         950     0.653331  7.70706e-05 -1.52203e-05     -4.06888 
         950     0.853332  5.70088e-05 -1.98179e-05     -4.06888 
         950         1.08  2.89373e-05 -2.33269e-05     -4.06888 
         950      1.33333  1.72738e-05 -2.50332e-05     -4.06888 
         950      1.61333  2.96634e-05 -2.45119e-05     -4.06888 
         950         1.92  4.57394e-05 -2.25088e-05     -4.06888 
         950      2.25333  5.30006e-05  -1.9785e-05     -4.06888 
         950      2.61333  5.29164e-05 -1.66469e-05     -4.06889 
         950            3   5.0777e-05 -1.31187e-05     -4.06889 
        1000            0           -0           -0    -0.938749 
        1000     0.013333  9.99956e-05  1.01046e-09    -0.938749 
        1000     0.053333  0.000352376  1.37585e-07    -0.938749 
        1000         0.12  0.000665348  1.40669e-06    -0.938749 
        1000     0.213332   0.00090495  6.36617e-06    -0.938749 
        1000     0.333332  0.000981233  1.82568e-05    -0.938749 
        1000         0.48  0.000910911  3.89005e-05    -0.938749 
        1000     0.653331  0.000787415  6.73569e-05    -0.938749 
        1000     0.853332  0.000691253  0.000100787    -0.938748 
        1000         1.08  0.000631691  0.000135891    -0.938748 
        1000      1.33333  0.000567932  0.000169875    -0.938749 
        1000      1.61333  0.000477824  0.000201471     -0.93875 
        1000         1.92   0.00038327  0.000230832    -0.938753 
        1000      2.25333  0.000293417  0.000258049    -0.938757 
        1000      2.61333  0.000203169  0.000281703    -0.938764 
        1000            3  0.000108171  0.000300062    -0.938772 
