Variables = x, y, u, v, p

Zone, I=416, F=POINT
         -50            0            0            0     -1.98977 
         -50     0.013333  2.69823e-05  4.60951e-09     -1.98977 
         -50     0.053333  2.69718e-05  2.29785e-08     -1.98977 
         -50         0.12  2.80842e-05   5.9319e-08     -1.98977 
         -50     0.213332  2.88871e-05  1.32312e-07     -1.98977 
         -50     0.333332  2.89906e-05  2.85233e-07     -1.98977 
         -50         0.48  2.87104e-05  5.60155e-07     -1.98977 
         -50     0.653331  2.84023e-05  7.11161e-07     -1.98976 
         -50     0.853332  2.78816e-05  9.86986e-07     -1.98975 
         -50         1.08  2.71402e-05  1.28203e-06     -1.98974 
         -50      1.33333   2.6124e-05  1.49033e-06     -1.98972 
         -50      1.61333  2.45143e-05  1.66292e-06     -1.98969 
         -50         1.92  2.33215e-05  1.82761e-06     -1.98966 
         -50      2.25333  2.30469e-05  2.06758e-06     -1.98962 
         -50      2.61333  2.32375e-05  2.18936e-06     -1.98956 
         -50            3  2.34937e-05  2.14868e-06     -1.98949 
         -25            0           -0           -0     -1.91237 
         -25     0.013333  1.91745e-05  2.58365e-09     -1.91237 
         -25     0.053333  1.74046e-05  2.56421e-08     -1.91237 
         -25         0.12  1.56536e-05  9.29932e-08     -1.91237 
         -25     0.213332  1.38724e-05  2.14114e-07     -1.91237 
         -25     0.333332  1.25341e-05  3.72339e-07     -1.91237 
         -25         0.48  1.18347e-05  5.43128e-07     -1.91237 
         -25     0.653331  1.18684e-05  7.41548e-07     -1.91237 
         -25     0.853332  1.26997e-05  9.60649e-07     -1.91236 
         -25         1.08  1.40316e-05  1.18792e-06     -1.91236 
         -25      1.33333   1.5536e-05  1.39735e-06     -1.91235 
         -25      1.61333  1.72374e-05  1.55362e-06     -1.91234 
         -25         1.92  1.86395e-05  1.62555e-06     -1.91233 
         -25      2.25333  2.01245e-05   1.6632e-06     -1.91231 
         -25      2.61333  2.09572e-05  1.48748e-06     -1.91229 
         -25            3  2.03145e-05  9.65583e-07     -1.91226 
           0            0            0            0     -1.84883 
           0     0.013333   5.6854e-05 -3.15766e-05     -1.84883 
           0     0.053333  3.01592e-05 -1.67411e-05     -1.84894 
           0         0.12  1.92653e-05 -1.04511e-05     -1.84906 
           0     0.213332  1.27848e-05 -7.86221e-06     -1.84918 
           0     0.333332  9.03667e-06 -6.14275e-06      -1.8493 
           0         0.48  6.91457e-06 -4.75391e-06     -1.84942 
           0     0.653331  6.13375e-06 -3.62176e-06     -1.84955 
           0     0.853332  6.57217e-06 -2.65298e-06     -1.84966 
           0         1.08  7.88206e-06 -1.81163e-06     -1.84978 
           0      1.33333  9.55882e-06 -1.10187e-06     -1.84988 
           0      1.61333  1.14866e-05 -5.26403e-07     -1.84999 
           0         1.92  1.35802e-05 -8.88084e-08     -1.85008 
           0      2.25333  1.50085e-05  2.11739e-07     -1.85017 
           0      2.61333  1.66479e-05  6.75484e-07     -1.85026 
           0            3  1.91576e-05  1.51377e-06     -1.85034 
          20            0  1.12727e-05  4.58529e-06     -1.80948 
          20     0.013333  9.84565e-06  4.71721e-06     -1.80948 
          20     0.053333  5.53013e-06  5.13187e-06     -1.80948 
          20         0.12 -1.62585e-06  5.89254e-06     -1.80948 
          20     0.213332 -1.10042e-05  7.12286e-06     -1.80948 
          20     0.333332  -2.0748e-05  8.99719e-06     -1.80948 
          20         0.48 -2.69283e-05  1.16511e-05     -1.80948 
          20     0.653331 -2.83128e-05  1.49844e-05     -1.80947 
          20     0.853332 -2.59669e-05  1.86428e-05     -1.80947 
          20         1.08 -2.20716e-05  2.21095e-05     -1.80947 
          20      1.33333 -1.76813e-05  2.49209e-05     -1.80947 
          20      1.61333 -1.22919e-05  2.67674e-05     -1.80946 
          20         1.92 -6.68551e-06  2.74001e-05     -1.80946 
          20      2.25333 -1.07143e-06  2.69291e-05     -1.80946 
          20      2.61333  3.87635e-06  2.54666e-05     -1.80945 
          20            3  6.71485e-06  2.29867e-05     -1.80944 
          40            0 -0.000216546  0.000296259     -1.77156 
          40     0.013333 -0.000232119  0.000298219     -1.77155 
          40     0.053333 -0.000280507  0.000303905     -1.77155 
          40         0.12 -0.000365418  0.000312864     -1.77155 
          40     0.213332 -0.000486594   0.00032484     -1.77154 
          40     0.333332 -0.000625842  0.000340557     -1.77153 
          40         0.48 -0.000734987   0.00036193     -1.77152 
          40     0.653331 -0.000758918  0.000389912     -1.77151 
          40     0.853332 -0.000688968  0.000420866      -1.7715 
          40         1.08 -0.000562228  0.000447031     -1.77149 
          40      1.33333 -0.000410562  0.000461074     -1.77147 
          40      1.61333 -0.000252692  0.000458623     -1.77145 
          40         1.92 -0.000106065  0.000438568     -1.77143 
          40      2.25333   9.4533e-06   0.00040323      -1.7714 
          40      2.61333  8.58193e-05  0.000357744     -1.77136 
          40            3   0.00012368  0.000308034     -1.77132 
          60            0           -0           -0     -1.73297 
          60     0.013333   7.8249e-06  4.73978e-07     -1.73297 
          60     0.053333 -0.000118147  6.80614e-06     -1.73297 
          60         0.12 -0.000488186  2.84273e-05     -1.73297 
          60     0.213332 -0.000986793  6.82923e-05     -1.73297 
          60     0.333332  -0.00137475  0.000120141     -1.73297 
          60         0.48  -0.00152279  0.000179707     -1.73297 
          60     0.653331  -0.00143056  0.000251734     -1.73297 
          60     0.853332   -0.0012558  0.000335753     -1.73297 
          60         1.08  -0.00106825  0.000421246     -1.73297 
          60      1.33333  -0.00077886  0.000498796     -1.73296 
          60      1.61333 -0.000449119  0.000556306     -1.73294 
          60         1.92 -0.000104888  0.000583857     -1.73292 
          60      2.25333  0.000154252  0.000580369     -1.73289 
          60      2.61333  0.000308373  0.000550035     -1.73285 
          60            3  0.000392288   0.00050219     -1.73281 
          80            0  5.86222e-21  6.65988e-26     -1.69553 
          80     0.013333 -2.47463e-05  2.47156e-07     -1.69553 
          80     0.053333 -0.000169983   3.3426e-06     -1.69553 
          80         0.12 -0.000421502  1.27558e-05     -1.69553 
          80     0.213332 -0.000669849    2.743e-05     -1.69553 
          80     0.333332 -0.000817217   4.2691e-05     -1.69553 
          80         0.48 -0.000881171  5.66866e-05     -1.69553 
          80     0.653331 -0.000873095  7.51888e-05     -1.69553 
          80     0.853332 -0.000681844   0.00011056     -1.69553 
          80         1.08  -0.00032211  0.000165405     -1.69553 
          80      1.33333 -6.12023e-05  0.000223668     -1.69552 
          80      1.61333  4.21899e-05  0.000269922     -1.69551 
          80         1.92  0.000138758  0.000299164     -1.69549 
          80      2.25333  0.000199675  0.000310394     -1.69547 
          80      2.61333  0.000227051   0.00030525     -1.69545 
          80            3  0.000234115  0.000288075     -1.69542 
         100            0           -0           -0     -1.65897 
         100     0.013333 -1.37158e-05 -2.20749e-08     -1.65897 
         100     0.053333 -7.25246e-05 -4.43174e-07     -1.65897 
         100         0.12 -0.000111246 -2.60975e-06     -1.65897 
         100     0.213332 -9.77531e-05 -8.37995e-06     -1.65897 
         100     0.333332 -5.40108e-05 -1.84247e-05     -1.65897 
         100         0.48 -2.99318e-05 -3.17876e-05     -1.65897 
         100     0.653331 -4.94313e-05 -4.64524e-05     -1.65897 
         100     0.853332 -5.80948e-05 -5.78088e-05     -1.65897 
         100         1.08  2.74359e-05 -6.03373e-05     -1.65897 
         100      1.33333  0.000113868  -5.7187e-05     -1.65896 
         100      1.61333  0.000107013  -5.5394e-05     -1.65896 
         100         1.92  8.54112e-05 -5.32869e-05     -1.65896 
         100      2.25333  6.73689e-05 -4.94387e-05     -1.65895 
         100      2.61333  5.09153e-05 -4.43044e-05     -1.65895 
         100            3  3.73114e-05 -3.85467e-05     -1.65894 
         150            0  1.11482e-20  1.10388e-26     -1.57016 
         150     0.013333 -1.21159e-05   5.6038e-08     -1.57016 
         150     0.053333 -8.65074e-05  7.48789e-07     -1.57016 
         150         0.12  -0.00019002  2.77192e-06     -1.57016 
         150     0.213332 -0.000276963  5.56566e-06     -1.57016 
         150     0.333332 -0.000313928  7.54207e-06     -1.57016 
         150         0.48  -0.00030903  7.81723e-06     -1.57016 
         150     0.653331 -0.000283045  7.10636e-06     -1.57016 
         150     0.853332 -0.000237849  6.92222e-06     -1.57016 
         150         1.08 -0.000176595  7.64979e-06     -1.57016 
         150      1.33333 -0.000120077  8.25092e-06     -1.57016 
         150      1.61333 -7.31194e-05  7.89281e-06     -1.57015 
         150         1.92 -2.26262e-05   6.9421e-06     -1.57015 
         150      2.25333  2.37573e-05  5.78659e-06     -1.57014 
         150      2.61333  5.96667e-05   4.3721e-06     -1.57014 
         150            3  8.26749e-05  2.84053e-06     -1.57013 
         200            0           -0           -0     -1.48233 
         200     0.013333  2.94813e-05 -3.39614e-08     -1.48233 
         200     0.053333  7.67429e-05 -4.42266e-07     -1.48233 
         200         0.12  0.000137611 -1.54338e-06     -1.48233 
         200     0.213332  0.000177214 -2.72904e-06     -1.48233 
         200     0.333332  0.000175469 -2.76074e-06     -1.48233 
         200         0.48  0.000145913 -1.13615e-06     -1.48233 
         200     0.653331  0.000109721  1.35668e-06     -1.48233 
         200     0.853332  7.11643e-05  3.47909e-06     -1.48233 
         200         1.08  3.32845e-05  4.95431e-06     -1.48233 
         200      1.33333  9.07521e-06  6.55063e-06     -1.48233 
         200      1.61333 -3.71706e-06  8.66155e-06     -1.48233 
         200         1.92 -1.48857e-05  1.08138e-05     -1.48233 
         200      2.25333  -2.3009e-05  1.26844e-05     -1.48234 
         200      2.61333 -2.71602e-05  1.41811e-05     -1.48234 
         200            3 -2.78356e-05   1.5158e-05     -1.48234 
         250            0           -0           -0     -1.39486 
         250     0.013333  0.000105073   2.0188e-08     -1.39486 
         250     0.053333  0.000329945  4.84628e-07     -1.39486 
         250         0.12  0.000557549  3.32527e-06     -1.39486 
         250     0.213332  0.000665824  1.21696e-05     -1.39486 
         250     0.333332  0.000639028  3.00058e-05     -1.39486 
         250         0.48   0.00055726  5.69032e-05     -1.39486 
         250     0.653331  0.000498396   9.0505e-05     -1.39486 
         250     0.853332  0.000472904  0.000127321     -1.39486 
         250         1.08  0.000434847  0.000163273     -1.39486 
         250      1.33333  0.000354636  0.000195054     -1.39486 
         250      1.61333  0.000254846  0.000221546     -1.39487 
         250         1.92  0.000153391  0.000241041     -1.39487 
         250      2.25333  5.72969e-05  0.000251659     -1.39488 
         250      2.61333 -2.62406e-05  0.000252926     -1.39489 
         250            3 -9.10714e-05  0.000245146      -1.3949 
         300            0  2.99351e-20 -4.68897e-28     -1.30763 
         300     0.013333  5.71216e-05 -9.13329e-09     -1.30763 
         300     0.053333   0.00017154 -5.22293e-08     -1.30763 
         300         0.12   0.00030575  2.81056e-07     -1.30763 
         300     0.213332  0.000403437  2.19522e-06     -1.30762 
         300     0.333332  0.000444995  6.91287e-06     -1.30762 
         300         0.48  0.000452442  1.47545e-05     -1.30762 
         300     0.653331  0.000455565  2.51603e-05     -1.30762 
         300     0.853332  0.000459386  3.68177e-05     -1.30762 
         300         1.08  0.000436913  4.75296e-05     -1.30762 
         300      1.33333  0.000370037  5.54349e-05     -1.30763 
         300      1.61333  0.000283284  6.07484e-05     -1.30763 
         300         1.92  0.000193489  6.39146e-05     -1.30763 
         300      2.25333  0.000105837  6.46355e-05     -1.30763 
         300      2.61333  2.52903e-05  6.29677e-05     -1.30764 
         300            3 -4.21296e-05  5.90923e-05     -1.30765 
         350            0            0            0     -1.22054 
         350     0.013333  1.43249e-05  4.28745e-08     -1.22054 
         350     0.053333  5.05462e-06  6.44536e-07     -1.22054 
         350         0.12 -3.77774e-05  2.90892e-06     -1.22054 
         350     0.213332 -0.000115099  7.73302e-06     -1.22054 
         350     0.333332 -0.000198355  1.50573e-05     -1.22054 
         350         0.48  -0.00025756  2.40029e-05     -1.22054 
         350     0.653331 -0.000283326  3.37213e-05     -1.22054 
         350     0.853332 -0.000279459  4.39426e-05     -1.22054 
         350         1.08 -0.000251423  5.46304e-05     -1.22054 
         350      1.33333 -0.000211056  6.52084e-05     -1.22054 
         350      1.61333 -0.000169305  7.46498e-05     -1.22054 
         350         1.92 -0.000122315  8.22025e-05     -1.22053 
         350      2.25333 -7.31488e-05  8.72959e-05     -1.22053 
         350      2.61333 -2.52639e-05  8.94979e-05     -1.22053 
         350            3  1.78659e-05  8.86609e-05     -1.22053 
         400            0            0            0     -1.13301 
         400     0.013333   4.4299e-05 -5.55481e-08     -1.13301 
         400     0.053333  0.000138707 -7.60522e-07     -1.13301 
         400         0.12  0.000279232 -2.95184e-06     -1.13301 
         400     0.213332  0.000416691 -6.40343e-06     -1.13301 
         400     0.333332  0.000503927 -9.71474e-06     -1.13301 
         400         0.48  0.000534983 -1.16851e-05     -1.13301 
         400     0.653331  0.000532534   -1.245e-05     -1.13301 
         400     0.853332  0.000507099 -1.33286e-05     -1.13301 
         400         1.08  0.000450641 -1.56752e-05     -1.13301 
         400      1.33333  0.000370508 -1.94752e-05     -1.13301 
         400      1.61333  0.000289201 -2.34768e-05     -1.13301 
         400         1.92  0.000207024 -2.69463e-05     -1.13301 
         400      2.25333  0.000123996 -2.97406e-05     -1.13302 
         400      2.61333  4.40069e-05 -3.16474e-05     -1.13303 
         400            3 -2.67135e-05 -3.25271e-05     -1.13303 
         450            0  2.39793e-20  1.55753e-28     -1.04573 
         450     0.013333  4.10618e-05 -2.80569e-08     -1.04573 
         450     0.053333   0.00011856 -3.50459e-07     -1.04573 
         450         0.12  0.000216899 -1.11186e-06     -1.04573 
         450     0.213332  0.000288839 -1.51043e-06     -1.04573 
         450     0.333332  0.000306383  -1.3432e-07     -1.04573 
         450         0.48  0.000284996  3.67917e-06     -1.04573 
         450     0.653331  0.000256593  9.15358e-06     -1.04573 
         450     0.853332  0.000229064  1.45865e-05     -1.04573 
         450         1.08  0.000187207  1.84394e-05     -1.04573 
         450      1.33333  0.000133965   2.0701e-05     -1.04573 
         450      1.61333  9.24932e-05  2.26635e-05     -1.04573 
         450         1.92  5.93679e-05  2.47187e-05     -1.04573 
         450      2.25333  2.76098e-05   2.6392e-05     -1.04573 
         450      2.61333 -2.43508e-06  2.74496e-05     -1.04574 
         450            3 -2.75718e-05  2.78054e-05     -1.04574 
         500            0            0            0    -0.958284 
         500     0.013333  3.17446e-06 -9.52431e-08    -0.958284 
         500     0.053333  5.59705e-06  -1.4192e-06    -0.958284 
         500         0.12  7.46301e-05  -6.3272e-06    -0.958284 
         500     0.213332  0.000214427 -1.66102e-05    -0.958284 
         500     0.333332  0.000368087 -3.20407e-05    -0.958284 
         500         0.48  0.000476393 -5.09352e-05    -0.958284 
         500     0.653331  0.000520507 -7.19992e-05    -0.958284 
         500     0.853332  0.000504469 -9.52272e-05    -0.958283 
         500         1.08  0.000436123 -0.000120867    -0.958283 
         500      1.33333  0.000346591 -0.000147469    -0.958284 
         500      1.61333  0.000274558  -0.00017215    -0.958285 
         500         1.92  0.000210753 -0.000193008    -0.958287 
         500      2.25333  0.000144209 -0.000209002     -0.95829 
         500      2.61333  7.59786e-05 -0.000218995    -0.958295 
         500            3  1.24853e-05 -0.000222114    -0.958301 
         550            0           -0           -0    -0.870925 
         550     0.013333  3.52244e-05  1.67207e-08    -0.870925 
         550     0.053333  8.73694e-05  2.79748e-07    -0.870925 
         550         0.12  0.000133773  1.46902e-06    -0.870925 
         550     0.213332  0.000141581  4.62854e-06    -0.870925 
         550     0.333332  0.000106845  1.06377e-05    -0.870925 
         550         0.48  5.43097e-05  1.95848e-05    -0.870925 
         550     0.653331  1.13185e-05  3.07228e-05    -0.870925 
         550     0.853332 -1.33351e-05  4.30378e-05    -0.870925 
         550         1.08 -2.42491e-05   5.5857e-05    -0.870925 
         550      1.33333 -2.39524e-05  6.90234e-05    -0.870925 
         550      1.61333 -1.61154e-05  8.22363e-05    -0.870925 
         550         1.92 -1.01197e-05  9.44994e-05    -0.870926 
         550      2.25333 -6.13569e-06  0.000104787    -0.870926 
         550      2.61333 -2.46597e-06  0.000112337    -0.870927 
         550            3  1.33081e-06   0.00011661    -0.870928 
         600            0            0            0    -0.783359 
         600     0.013333 -5.94345e-05 -8.42684e-08    -0.783359 
         600     0.053333 -0.000217178 -1.37093e-06    -0.783359 
         600         0.12 -0.000326504 -6.88461e-06    -0.783359 
         600     0.213332 -0.000289331 -2.05188e-05    -0.783359 
         600     0.333332 -0.000126914 -4.45044e-05    -0.783359 
         600         0.48   5.2844e-05 -7.78514e-05    -0.783359 
         600     0.653331   0.00015994 -0.000117632    -0.783359 
         600     0.853332  0.000175632 -0.000161054     -0.78336 
         600         1.08   0.00013828 -0.000205627     -0.78336 
         600      1.33333  0.000106223 -0.000248507    -0.783359 
         600      1.61333  0.000102301 -0.000287423    -0.783359 
         600         1.92  9.99665e-05 -0.000321269    -0.783359 
         600      2.25333  9.11581e-05 -0.000348345    -0.783358 
         600      2.61333   7.8138e-05 -0.000366716    -0.783356 
         600            3  6.31557e-05 -0.000374758    -0.783355 
         650            0           -0           -0     -0.69556 
         650     0.013333  0.000135376  1.25491e-07     -0.69556 
         650     0.053333  0.000412252  2.02739e-06     -0.69556 
         650         0.12  0.000637014  1.01141e-05     -0.69556 
         650     0.213332  0.000647053  3.00606e-05    -0.695559 
         650     0.333332  0.000452403  6.53683e-05    -0.695559 
         650         0.48  0.000198057  0.000115212    -0.695559 
         650     0.653331  2.09231e-05  0.000176023    -0.695559 
         650     0.853332 -3.08456e-05  0.000244308    -0.695559 
         650         1.08  1.19333e-05  0.000317013    -0.695559 
         650      1.33333  6.91185e-05  0.000389949    -0.695559 
         650      1.61333  7.68772e-05  0.000458272     -0.69556 
         650         1.92  5.49122e-05  0.000518812    -0.695561 
         650      2.25333  3.14001e-05  0.000568817    -0.695562 
         650      2.61333  1.19375e-05  0.000605189    -0.695565 
         650            3 -6.43955e-06  0.000625046    -0.695568 
         700            0            0            0    -0.608143 
         700     0.013333 -0.000155103 -2.14201e-08    -0.608143 
         700     0.053333 -0.000582601 -5.15715e-07    -0.608143 
         700         0.12  -0.00106812 -3.63646e-06    -0.608143 
         700     0.213332  -0.00139104 -1.39323e-05    -0.608143 
         700     0.333332  -0.00145616 -3.62915e-05    -0.608144 
         700         0.48  -0.00134043  -7.2676e-05    -0.608144 
         700     0.653331  -0.00119041 -0.000121328    -0.608145 
         700     0.853332  -0.00109718 -0.000178573    -0.608145 
         700         1.08  -0.00105373 -0.000240094    -0.608145 
         700      1.33333 -0.000989553 -0.000301152    -0.608144 
         700      1.61333 -0.000857359 -0.000357769    -0.608142 
         700         1.92 -0.000686277 -0.000408142    -0.608138 
         700      2.25333 -0.000503265 -0.000450568    -0.608132 
         700      2.61333 -0.000316035 -0.000482592    -0.608122 
         700            3 -0.000128765 -0.000501801    -0.608108 
         750            0           -0           -0     -0.51926 
         750     0.013333  0.000151267   -1.248e-07     -0.51926 
         750     0.053333  0.000548088 -1.69869e-06     -0.51926 
         750         0.12   0.00111225 -6.49343e-06     -0.51926 
         750     0.213332    0.0016579 -1.35301e-05     -0.51926 
         750     0.333332   0.00200504 -1.84812e-05    -0.519259 
         750         0.48   0.00211008 -1.69133e-05    -0.519259 
         750     0.653331   0.00206228 -7.69903e-06    -0.519258 
         750     0.853332   0.00196062  6.66837e-06    -0.519257 
         750         1.08   0.00182492  2.19042e-05    -0.519257 
         750      1.33333    0.0016259  3.45163e-05    -0.519258 
         750      1.61333   0.00137106  4.38575e-05     -0.51926 
         750         1.92   0.00110518  5.16111e-05    -0.519266 
         750      2.25333  0.000831186  5.83895e-05    -0.519276 
         750      2.61333  0.000547132  6.38459e-05    -0.519291 
         750            3  0.000261452  6.74989e-05    -0.519311 
         800            0  6.58579e-21 -2.94962e-27    -0.432305 
         800     0.013333  -1.3885e-05  1.97447e-07    -0.432305 
         800     0.053333 -0.000144674  2.91101e-06    -0.432305 
         800         0.12 -0.000453292  1.27976e-05    -0.432305 
         800     0.213332 -0.000904485  3.30789e-05    -0.432305 
         800     0.333332  -0.00134318  6.26775e-05    -0.432305 
         800         0.48  -0.00162825  9.74138e-05    -0.432305 
         800     0.653331  -0.00173244  0.000133876    -0.432306 
         800     0.853332  -0.00169989  0.000171773    -0.432306 
         800         1.08  -0.00156035  0.000213017    -0.432307 
         800      1.33333   -0.0013353  0.000258312    -0.432306 
         800      1.61333  -0.00109057  0.000304725    -0.432304 
         800         1.92 -0.000877841  0.000347638      -0.4323 
         800      2.25333 -0.000669242  0.000384347    -0.432293 
         800      2.61333  -0.00044563  0.000413048    -0.432283 
         800            3 -0.000220883  0.000432024    -0.432268 
         850            0            0            0     -0.34401 
         850     0.013333 -0.000122224 -7.21267e-08     -0.34401 
         850     0.053333 -0.000450249 -1.21437e-06    -0.344011 
         850         0.12 -0.000782818 -6.39765e-06    -0.344011 
         850     0.213332 -0.000940839 -2.01559e-05    -0.344011 
         850     0.333332 -0.000875436 -4.63633e-05    -0.344011 
         850         0.48 -0.000680635 -8.58841e-05    -0.344011 
         850     0.653331 -0.000490241 -0.000136579    -0.344011 
         850     0.853332 -0.000380848 -0.000195314    -0.344012 
         850         1.08 -0.000355642 -0.000259325    -0.344012 
         850      1.33333  -0.00036816  -0.00032573    -0.344011 
         850      1.61333 -0.000356749 -0.000390747     -0.34401 
         850         1.92 -0.000300041 -0.000450758    -0.344009 
         850      2.25333 -0.000225825 -0.000503362    -0.344006 
         850      2.61333 -0.000150041 -0.000546095    -0.344002 
         850            3 -7.30826e-05 -0.000576354    -0.343997 
         900            0           -0           -0    -0.255029 
         900     0.013333  0.000123071 -2.26817e-07    -0.255029 
         900     0.053333  0.000485031 -3.29496e-06    -0.255029 
         900         0.12    0.0011102 -1.41277e-05    -0.255029 
         900     0.213332   0.00186218 -3.52007e-05    -0.255029 
         900     0.333332    0.0024927 -6.34087e-05    -0.255029 
         900         0.48   0.00282953 -9.23218e-05    -0.255028 
         900     0.653331   0.00288427 -0.000117533    -0.255027 
         900     0.853332   0.00276334 -0.000139398    -0.255027 
         900         1.08   0.00253724 -0.000161247    -0.255026 
         900      1.33333   0.00223561 -0.000185134    -0.255027 
         900      1.61333   0.00190616 -0.000209696    -0.255029 
         900         1.92   0.00158749 -0.000232053    -0.255035 
         900      2.25333   0.00125974 -0.000250543    -0.255045 
         900      2.61333  0.000910619 -0.000264406     -0.25506 
         900            3  0.000547986 -0.000272791    -0.255081 
         950            0            0            0    -0.167591 
         950     0.013333  0.000219377  2.25422e-07    -0.167591 
         950     0.053333  0.000684182  3.59371e-06    -0.167591 
         950         0.12   0.00105454   1.7671e-05    -0.167591 
         950     0.213332   0.00105046  5.19289e-05    -0.167591 
         950     0.333332  0.000684753  0.000112096    -0.167591 
         950         0.48  0.000210318  0.000196684     -0.16759 
         950     0.653331 -0.000121833  0.000299657     -0.16759 
         950     0.853332 -0.000210956   0.00041553     -0.16759 
         950         1.08 -9.25857e-05  0.000540419     -0.16759 
         950      1.33333  9.57595e-05   0.00066856     -0.16759 
         950      1.61333  0.000191716  0.000791503     -0.16759 
         950         1.92  0.000173366  0.000903099    -0.167591 
         950      2.25333   0.00012915   0.00100078    -0.167591 
         950      2.61333  9.58177e-05   0.00108076    -0.167593 
         950            3  6.52703e-05   0.00113815    -0.167595 
        1000            0           -0           -0   -0.0801837 
        1000     0.013333 -0.000181458  8.81914e-08   -0.0801837 
        1000     0.053333  -0.00071459   1.0851e-06   -0.0801837 
        1000         0.12   -0.0014198  3.35293e-06   -0.0801837 
        1000     0.213332  -0.00204364  4.00946e-06   -0.0801839 
        1000     0.333332  -0.00239104 -2.49455e-06   -0.0801843 
        1000         0.48  -0.00245744 -2.03172e-05    -0.080185 
        1000     0.653331    -0.002387 -4.93627e-05    -0.080186 
        1000     0.853332    -0.002316 -8.59454e-05   -0.0801871 
        1000         1.08  -0.00226098 -0.000124394   -0.0801879 
        1000      1.33333  -0.00212709 -0.000158173   -0.0801878 
        1000      1.61333  -0.00184815 -0.000183086    -0.080186 
        1000         1.92  -0.00150695 -0.000201055   -0.0801814 
        1000      2.25333  -0.00117565 -0.000215286   -0.0801728 
        1000      2.61333 -0.000854738 -0.000226186    -0.080159 
        1000            3 -0.000521296 -0.000232535   -0.0801392 
