Variables = x, y, u, v, p

Zone, I=416, F=POINT
         -50            0  1.38742e-19   1.7141e-23      40.1046 
         -50     0.013333  0.000132065  4.01547e-08      40.1046 
         -50     0.053333  0.000127461  1.95883e-07      40.1046 
         -50         0.12  0.000119458  5.67912e-07      40.1046 
         -50     0.213332  0.000112691  1.18447e-06      40.1046 
         -50     0.333332  0.000107864   1.6746e-06      40.1045 
         -50         0.48  0.000104484  2.10883e-06      40.1045 
         -50     0.653331  0.000104405  3.22636e-06      40.1043 
         -50     0.853332  0.000108754  4.65983e-06      40.1041 
         -50         1.08  0.000116552  6.02432e-06      40.1039 
         -50      1.33333  0.000126811  7.06367e-06      40.1035 
         -50      1.61333  0.000136849  8.46258e-06      40.1029 
         -50         1.92  0.000151691   9.6609e-06      40.1022 
         -50      2.25333  0.000161306  1.15253e-05      40.1013 
         -50      2.61333    0.0001612  1.20759e-05      40.1002 
         -50            3  0.000156052   9.0733e-06      40.0988 
         -25            0           -0           -0      38.4924 
         -25     0.013333  9.90474e-05   7.1375e-10      38.4924 
         -25     0.053333  0.000105208 -1.31269e-07      38.4924 
         -25         0.12  0.000117351 -6.25871e-07      38.4924 
         -25     0.213332  0.000133334 -1.55088e-06      38.4924 
         -25     0.333332  0.000146452 -2.74942e-06      38.4924 
         -25         0.48  0.000152904 -4.10695e-06      38.4924 
         -25     0.653331  0.000151376 -5.78619e-06      38.4923 
         -25     0.853332  0.000141607 -7.63497e-06      38.4922 
         -25         1.08  0.000128219 -9.59347e-06      38.4921 
         -25      1.33333  0.000116816 -1.12001e-05       38.492 
         -25      1.61333  0.000108945 -1.22296e-05      38.4918 
         -25         1.92   0.00010349  -1.2306e-05      38.4915 
         -25      2.25333  9.86646e-05 -1.23526e-05      38.4911 
         -25      2.61333   9.3883e-05  -1.2165e-05      38.4907 
         -25            3  9.17727e-05 -1.03584e-05      38.4902 
           0            0            0            0      37.1658 
           0     0.013333  0.000253053 -0.000168652      37.1674 
           0     0.053333  0.000149547  -9.1077e-05        37.17 
           0         0.12  9.54209e-05 -6.25051e-05       37.173 
           0     0.213332  7.57207e-05  -4.7844e-05      37.1761 
           0     0.333332  7.64199e-05 -3.92062e-05      37.1794 
           0         0.48  8.15312e-05 -3.34849e-05      37.1827 
           0     0.653331  8.48987e-05  -2.9858e-05       37.186 
           0     0.853332  8.63723e-05 -2.75148e-05      37.1892 
           0         1.08  8.73408e-05 -2.60058e-05      37.1923 
           0      1.33333   8.8467e-05 -2.49319e-05      37.1953 
           0      1.61333  8.99969e-05 -2.39938e-05      37.1982 
           0         1.92  8.95103e-05 -2.30462e-05      37.2009 
           0      2.25333   8.9228e-05  -2.1814e-05      37.2034 
           0      2.61333  9.38156e-05 -1.91142e-05      37.2057 
           0            3  0.000101351 -1.50338e-05      37.2078 
          20            0            0            0      36.3535 
          20     0.013333  5.78735e-05  3.89188e-08      36.3535 
          20     0.053333   5.1704e-06  4.28458e-07      36.3535 
          20         0.12 -6.54008e-05  1.44071e-06      36.3535 
          20     0.213332 -0.000123566  2.59265e-06      36.3535 
          20     0.333332 -0.000152988  3.04808e-06      36.3535 
          20         0.48 -0.000158538  2.58715e-06      36.3535 
          20     0.653331 -0.000151437  1.46063e-06      36.3535 
          20     0.853332 -0.000133865 -1.55902e-07      36.3534 
          20         1.08 -9.56519e-05  -1.6317e-06      36.3534 
          20      1.33333 -4.29773e-05 -2.53187e-06      36.3533 
          20      1.61333  1.31806e-05  -3.0796e-06      36.3532 
          20         1.92   6.4537e-05 -3.44832e-06       36.353 
          20      2.25333  0.000103291 -3.26375e-06      36.3528 
          20      2.61333  0.000128728 -2.68684e-06      36.3526 
          20            3  0.000141673 -2.45124e-06      36.3523 
          40            0            0            0      35.5151 
          40     0.013333  7.23535e-05  -3.3308e-09      35.5151 
          40     0.053333  7.72235e-05 -8.36793e-08      35.5151 
          40         0.12  8.53749e-05  -3.8181e-07      35.5151 
          40     0.213332  9.27969e-05 -8.71429e-07      35.5151 
          40     0.333332  9.25751e-05 -1.23001e-06      35.5151 
          40         0.48  8.47016e-05 -1.14991e-06       35.515 
          40     0.653331   7.5106e-05 -5.46465e-07       35.515 
          40     0.853332  7.04589e-05  7.32181e-07       35.515 
          40         1.08  7.38196e-05  2.88883e-06       35.515 
          40      1.33333  7.98254e-05  5.64731e-06       35.515 
          40      1.61333  8.40056e-05  8.48308e-06      35.5149 
          40         1.92  8.66637e-05  1.07132e-05      35.5149 
          40      2.25333  8.38501e-05   1.2685e-05      35.5148 
          40      2.61333  8.03177e-05   1.3881e-05      35.5147 
          40            3  7.96883e-05  1.28634e-05      35.5146 
          60            0           -0           -0      34.7192 
          60     0.013333  8.76219e-05 -3.77897e-08      34.7192 
          60     0.053333  0.000143791 -5.18796e-07      34.7192 
          60         0.12  0.000220106 -1.90913e-06      34.7192 
          60     0.213332  0.000282617 -3.74888e-06      34.7192 
          60     0.333332  0.000306733 -4.80025e-06      34.7192 
          60         0.48  0.000299703 -4.28701e-06      34.7192 
          60     0.653331  0.000278853  -2.6102e-06      34.7192 
          60     0.853332  0.000246465 -8.89877e-07      34.7191 
          60         1.08  0.000204562  4.96633e-07      34.7191 
          60      1.33333  0.000163965  1.92735e-06      34.7191 
          60      1.61333  0.000124128  3.58254e-06      34.7191 
          60         1.92  8.42672e-05   5.2058e-06       34.719 
          60      2.25333  5.63022e-05  6.46661e-06       34.719 
          60      2.61333  4.04744e-05  7.52214e-06      34.7189 
          60            3  3.12635e-05  7.95041e-06      34.7189 
          80            0           -0           -0      33.9478 
          80     0.013333  6.96843e-05 -6.17521e-08      33.9478 
          80     0.053333  9.32407e-05 -9.13427e-07      33.9478 
          80         0.12  0.000156168 -3.95023e-06      33.9478 
          80     0.213332  0.000247061  -9.9536e-06      33.9478 
          80     0.333332   0.00032863 -1.83544e-05      33.9478 
          80         0.48  0.000376052 -2.79779e-05      33.9478 
          80     0.653331  0.000385499 -3.82451e-05      33.9478 
          80     0.853332   0.00035715 -4.93309e-05      33.9478 
          80         1.08  0.000301246 -6.08557e-05      33.9478 
          80      1.33333  0.000242635 -7.13485e-05      33.9477 
          80      1.61333  0.000186076 -7.93009e-05      33.9477 
          80         1.92  0.000122297 -8.38888e-05      33.9477 
          80      2.25333  7.02669e-05 -8.46453e-05      33.9477 
          80      2.61333  3.38985e-05 -8.18545e-05      33.9476 
          80            3  1.03244e-05 -7.65117e-05      33.9476 
         100            0            0            0      33.1917 
         100     0.013333  3.05489e-05 -3.63835e-08      33.1917 
         100     0.053333 -4.75604e-05 -6.17733e-07      33.1917 
         100         0.12 -0.000109745 -3.17268e-06      33.1917 
         100     0.213332 -0.000115641 -9.49849e-06      33.1917 
         100     0.333332 -7.88309e-05 -2.04786e-05      33.1917 
         100         0.48 -4.02019e-05 -3.56272e-05      33.1917 
         100     0.653331 -2.52819e-05 -5.37816e-05      33.1917 
         100     0.853332 -2.84602e-05   -7.335e-05      33.1917 
         100         1.08 -2.48695e-05 -9.22605e-05      33.1917 
         100      1.33333 -4.87827e-06 -0.000108674      33.1917 
         100      1.61333  2.16121e-05 -0.000121555      33.1917 
         100         1.92  4.72981e-05 -0.000129178      33.1917 
         100      2.25333  7.12796e-05 -0.000130979      33.1917 
         100      2.61333  8.99469e-05 -0.000127343      33.1916 
         100            3  0.000101998 -0.000119386      33.1916 
         150            0           -0           -0       31.338 
         150     0.013333  6.38674e-05  7.11207e-09       31.338 
         150     0.053333  6.04104e-05  1.09528e-07       31.338 
         150         0.12  5.03415e-05  5.11761e-07       31.338 
         150     0.213332  3.67774e-05  1.36005e-06       31.338 
         150     0.333332  2.65775e-05  2.53514e-06       31.338 
         150         0.48  2.41565e-05   3.7386e-06       31.338 
         150     0.653331   2.8135e-05  4.74813e-06       31.338 
         150     0.853332  3.37718e-05  5.41914e-06       31.338 
         150         1.08  3.68353e-05   5.5659e-06       31.338 
         150      1.33333  3.89981e-05  5.19439e-06       31.338 
         150      1.61333  4.41286e-05   4.5555e-06       31.338 
         150         1.92  5.07258e-05  3.70245e-06       31.338 
         150      2.25333  5.84935e-05  2.78159e-06       31.338 
         150      2.61333  6.88543e-05  1.90284e-06       31.338 
         150            3  7.97299e-05  8.34655e-07       31.338 
         200            0  1.33988e-19  7.59734e-26       29.507 
         200     0.013333  6.29667e-05  7.15479e-08       29.507 
         200     0.053333   4.0895e-05  1.06305e-06       29.507 
         200         0.12 -3.17673e-05  4.70482e-06       29.507 
         200     0.213332  -0.00014405  1.21673e-05       29.507 
         200     0.333332 -0.000248564  2.29387e-05       29.507 
         200         0.48   -0.0003083   3.5442e-05       29.507 
         200     0.653331 -0.000319561  4.85393e-05       29.507 
         200     0.853332 -0.000293491  6.19597e-05       29.507 
         200         1.08 -0.000243437  7.53565e-05       29.507 
         200      1.33333 -0.000185214   8.7743e-05      29.5069 
         200      1.61333 -0.000123399  9.79141e-05       29.507 
         200         1.92 -5.15933e-05  0.000104802       29.507 
         200      2.25333  1.68248e-05  0.000107771       29.507 
         200      2.61333  7.57474e-05  0.000106573       29.507 
         200            3  0.000120377  0.000101325       29.507 
         250            0           -0           -0      27.6838 
         250     0.013333  0.000113536  4.57102e-08      27.6838 
         250     0.053333  0.000228253  7.47367e-07      27.6838 
         250         0.12  0.000329405  3.76313e-06      27.6838 
         250     0.213332  0.000358814    1.122e-05      27.6838 
         250     0.333332   0.00031922  2.44192e-05      27.6838 
         250         0.48  0.000257149  4.32227e-05      27.6838 
         250     0.653331  0.000216231  6.66996e-05      27.6838 
         250     0.853332  0.000210698  9.36326e-05      27.6838 
         250         1.08  0.000219756  0.000122045      27.6838 
         250      1.33333  0.000208972  0.000149104      27.6838 
         250      1.61333  0.000174645  0.000172553      27.6838 
         250         1.92  0.000136118  0.000190617      27.6838 
         250      2.25333  9.78143e-05  0.000201677      27.6838 
         250      2.61333   6.3258e-05  0.000205153      27.6838 
         250            3   3.5928e-05  0.000201199      27.6838 
         300            0           -0           -0       25.863 
         300     0.013333   3.6076e-05 -4.48077e-08       25.863 
         300     0.053333   -2.153e-05 -7.07777e-07       25.863 
         300         0.12 -5.57882e-05 -3.42122e-06       25.863 
         300     0.213332 -3.19708e-05 -9.81912e-06       25.863 
         300     0.333332  3.47534e-05 -2.06551e-05       25.863 
         300         0.48  0.000102737 -3.54362e-05       25.863 
         300     0.653331  0.000142221 -5.31412e-05       25.863 
         300     0.853332  0.000147061 -7.28623e-05       25.863 
         300         1.08  0.000129919 -9.35732e-05       25.863 
         300      1.33333  0.000111593 -0.000113825       25.863 
         300      1.61333  0.000100628 -0.000132089       25.863 
         300         1.92  8.87806e-05 -0.000146881       25.863 
         300      2.25333  7.60062e-05 -0.000157018       25.863 
         300      2.61333  6.27817e-05 -0.000161682       25.863 
         300            3  5.13456e-05 -0.000160537       25.863 
         350            0           -0           -0      24.0428 
         350     0.013333  3.69996e-05  1.33914e-08      24.0428 
         350     0.053333 -3.27505e-05  1.42271e-07      24.0428 
         350         0.12 -0.000114497  2.64421e-07      24.0428 
         350     0.213332 -0.000167721 -4.22715e-07      24.0428 
         350     0.333332 -0.000176094 -2.96563e-06      24.0428 
         350         0.48 -0.000156568 -7.72763e-06      24.0428 
         350     0.653331 -0.000134057 -1.41407e-05      24.0428 
         350     0.853332 -0.000115922 -2.11155e-05      24.0428 
         350         1.08 -9.18324e-05 -2.75149e-05      24.0428 
         350      1.33333 -5.64386e-05 -3.27187e-05      24.0428 
         350      1.61333 -1.94035e-05 -3.69234e-05      24.0428 
         350         1.92  1.55424e-05 -4.01614e-05      24.0429 
         350      2.25333   4.8247e-05 -4.21624e-05      24.0429 
         350      2.61333  7.78232e-05 -4.27556e-05      24.0429 
         350            3  0.000102637 -4.18462e-05      24.0429 
         400            0           -0           -0      22.2229 
         400     0.013333  5.37924e-05  9.72287e-08      22.2229 
         400     0.053333  9.35425e-07  1.43258e-06      22.2229 
         400         0.12  -0.00012658  6.26429e-06      22.2229 
         400     0.213332 -0.000304498  1.59862e-05      22.2229 
         400     0.333332 -0.000460407  2.97095e-05      22.2229 
         400         0.48 -0.000541013  4.51922e-05      22.2229 
         400     0.653331 -0.000546065  6.09539e-05      22.2229 
         400     0.853332 -0.000498534  7.69556e-05      22.2229 
         400         1.08 -0.000418819   9.3373e-05      22.2229 
         400      1.33333 -0.000330416  0.000109306      22.2229 
         400      1.61333 -0.000247669  0.000123255      22.2229 
         400         1.92 -0.000159914  0.000134166      22.2229 
         400      2.25333 -6.88953e-05  0.000141257      22.2229 
         400      2.61333   1.9734e-05  0.000143892      22.2229 
         400            3  9.90354e-05  0.000141801      22.2229 
         450            0  1.01072e-19 -1.92026e-27      20.4032 
         450     0.013333  0.000160474 -2.35431e-08      20.4032 
         450     0.053333   0.00041313 -1.96631e-07      20.4032 
         450         0.12  0.000712515  1.33956e-07      20.4032 
         450     0.213332  0.000927666  3.49373e-06      20.4032 
         450     0.333332  0.000995564  1.30797e-05      20.4032 
         450         0.48  0.000958901  3.02952e-05      20.4032 
         450     0.653331   0.00090014  5.39895e-05      20.4032 
         450     0.853332  0.000858178  8.14241e-05      20.4032 
         450         1.08  0.000807149  0.000109079      20.4032 
         450      1.33333  0.000708904  0.000133948      20.4032 
         450      1.61333  0.000575717  0.000155204      20.4032 
         450         1.92  0.000436346  0.000172898      20.4032 
         450      2.25333  0.000294303  0.000185904      20.4032 
         450      2.61333  0.000154507  0.000193184      20.4032 
         450            3  2.82136e-05  0.000194137      20.4032 
         500            0            0            0      18.5825 
         500     0.013333 -1.70014e-05 -5.64727e-08      18.5825 
         500     0.053333 -0.000206751 -9.50412e-07      18.5825 
         500         0.12 -0.000382467 -4.96919e-06      18.5825 
         500     0.213332  -0.00043771 -1.53946e-05      18.5825 
         500     0.333332 -0.000364904   -3.459e-05      18.5825 
         500         0.48 -0.000240817 -6.24903e-05      18.5825 
         500     0.653331 -0.000145063 -9.72085e-05      18.5825 
         500     0.853332 -0.000108106 -0.000136529      18.5825 
         500         1.08 -0.000111411 -0.000178179      18.5825 
         500      1.33333 -0.000111102 -0.000219353      18.5825 
         500      1.61333 -8.18334e-05 -0.000257274      18.5825 
         500         1.92 -4.07438e-05 -0.000289935      18.5825 
         500      2.25333  1.55295e-06 -0.000315435      18.5825 
         500      2.61333  4.21876e-05 -0.000331877      18.5825 
         500            3  7.95877e-05 -0.000337883      18.5825 
         550            0           -0           -0      16.7619 
         550     0.013333  0.000139258  5.94814e-08      16.7619 
         550     0.053333  0.000316647  9.76799e-07      16.7619 
         550         0.12  0.000481413   4.9627e-06      16.7619 
         550     0.213332  0.000540109  1.49849e-05      16.7619 
         550     0.333332  0.000486739  3.30156e-05      16.7619 
         550         0.48  0.000388707   5.8893e-05      16.7619 
         550     0.653331  0.000316148  9.10691e-05      16.7619 
         550     0.853332  0.000297955  0.000127875      16.7619 
         550         1.08  0.000318417  0.000167426      16.7619 
         550      1.33333  0.000330339  0.000206877      16.7619 
         550      1.61333  0.000302477  0.000243248      16.7619 
         550         1.92  0.000254834  0.000274809      16.7619 
         550      2.25333  0.000202203  0.000299873      16.7619 
         550      2.61333  0.000147921  0.000316774      16.7619 
         550            3  9.35946e-05  0.000324156      16.7619 
         600            0           -0           -0      14.9408 
         600     0.013333  1.73813e-05 -4.13914e-08      14.9408 
         600     0.053333 -8.90532e-05 -6.79626e-07      14.9408 
         600         0.12 -0.000180851 -3.45179e-06      14.9408 
         600     0.213332 -0.000197214 -1.04062e-05      14.9408 
         600     0.333332 -0.000141371 -2.28292e-05      14.9408 
         600         0.48 -6.54554e-05 -4.03953e-05      14.9408 
         600     0.653331 -1.68255e-05 -6.17254e-05      14.9408 
         600     0.853332 -8.54113e-06 -8.54029e-05      14.9408 
         600         1.08 -2.41618e-05 -0.000110113      14.9408 
         600      1.33333 -3.46827e-05 -0.000134323      14.9408 
         600      1.61333 -2.37546e-05 -0.000156491      14.9408 
         600         1.92 -2.67606e-06 -0.000175754      14.9408 
         600      2.25333  2.00257e-05 -0.000190982      14.9408 
         600      2.61333  4.20578e-05 -0.000201308      14.9408 
         600            3   6.2272e-05 -0.000205967      14.9408 
         650            0            0            0      13.1194 
         650     0.013333  8.56907e-05  9.61387e-08      13.1194 
         650     0.053333  0.000113056  1.46818e-06      13.1194 
         650         0.12  7.22326e-05  6.77212e-06      13.1194 
         650     0.213332 -5.86614e-05   1.8426e-05      13.1194 
         650     0.333332 -0.000220532  3.66407e-05      13.1194 
         650         0.48 -0.000332197  5.94367e-05      13.1194 
         650     0.653331 -0.000358484  8.47199e-05      13.1194 
         650     0.853332 -0.000310532  0.000111657      13.1194 
         650         1.08 -0.000220085  0.000139743      13.1194 
         650      1.33333  -0.00013497  0.000167164      13.1194 
         650      1.61333 -8.67569e-05  0.000191575      13.1194 
         650         1.92 -5.30462e-05  0.000212062      13.1194 
         650      2.25333 -1.60278e-05  0.000227935      13.1194 
         650      2.61333  2.48923e-05  0.000238271      13.1194 
         650            3  6.44532e-05  0.000242066      13.1195 
         700            0            0            0      11.2986 
         700     0.013333  0.000102801 -1.99887e-07      11.2986 
         700     0.053333  0.000265967 -2.94375e-06      11.2986 
         700         0.12  0.000612576  -1.2885e-05      11.2986 
         700     0.213332   0.00108538   -3.297e-05      11.2986 
         700     0.333332   0.00151038 -6.14142e-05      11.2986 
         700         0.48   0.00174763 -9.32862e-05      11.2986 
         700     0.653331   0.00178832 -0.000125007      11.2986 
         700     0.853332   0.00169334 -0.000156599      11.2986 
         700         1.08   0.00150716  -0.00018992      11.2986 
         700      1.33333   0.00127332 -0.000224669      11.2986 
         700      1.61333   0.00105577 -0.000257504      11.2986 
         700         1.92   0.00086183 -0.000285371      11.2986 
         700      2.25333  0.000659103  -0.00030715      11.2986 
         700      2.61333  0.000441361 -0.000321739      11.2986 
         700            3  0.000225692 -0.000327884      11.2986 
         750            0           -0           -0      9.47624 
         750     0.013333  0.000115595  2.49853e-07      9.47624 
         750     0.053333  0.000172009  3.78537e-06      9.47624 
         750         0.12   4.3189e-05  1.73313e-05      9.47624 
         750     0.213332 -0.000336265  4.70527e-05      9.47624 
         750     0.333332 -0.000827038  9.40181e-05      9.47624 
         750         0.48  -0.00122201  0.000154058      9.47624 
         750     0.653331  -0.00141553  0.000222145      9.47624 
         750     0.853332  -0.00141386  0.000296094      9.47624 
         750         1.08  -0.00125846  0.000375838      9.47624 
         750      1.33333   -0.0010202  0.000459364      9.47624 
         750      1.61333 -0.000800538  0.000540847      9.47624 
         750         1.92 -0.000630317  0.000614585      9.47624 
         750      2.25333 -0.000464541  0.000676793      9.47625 
         750      2.61333 -0.000286352  0.000724393      9.47626 
         750            3 -0.000106722   0.00075419      9.47627 
         800            0            0            0      7.65448 
         800     0.013333 -8.43726e-05  -9.9393e-08      7.65448 
         800     0.053333 -0.000439048 -1.63909e-06      7.65448 
         800         0.12 -0.000787581 -8.39279e-06      7.65448 
         800     0.213332 -0.000939855 -2.56162e-05      7.65448 
         800     0.333332 -0.000865185 -5.71122e-05      7.65448 
         800         0.48  -0.00068126 -0.000102965      7.65448 
         800     0.653331 -0.000527797 -0.000160493      7.65448 
         800     0.853332 -0.000474939 -0.000226696      7.65448 
         800         1.08 -0.000511844 -0.000298746      7.65448 
         800      1.33333 -0.000560635 -0.000372382      7.65448 
         800      1.61333 -0.000536518 -0.000442094      7.65448 
         800         1.92 -0.000442583 -0.000504452      7.65448 
         800      2.25333 -0.000330452 -0.000557429      7.65448 
         800      2.61333 -0.000218222 -0.000598658      7.65449 
         800            3 -0.000101829 -0.000625402      7.65449 
         850            0           -0           -0      5.83272 
         850     0.013333  0.000131337 -1.90551e-08      5.83272 
         850     0.053333   0.00031207 -1.99447e-07      5.83272 
         850         0.12  0.000539777 -3.34548e-07      5.83272 
         850     0.213332   0.00072847  8.57175e-07      5.83272 
         850     0.333332  0.000824716  5.19832e-06      5.83272 
         850         0.48  0.000841747  1.36672e-05      5.83272 
         850     0.653331  0.000830786  2.58481e-05      5.83272 
         850     0.853332  0.000828734  4.04337e-05      5.83272 
         850         1.08   0.00083041  5.55573e-05      5.83272 
         850      1.33333  0.000796076  6.88143e-05      5.83272 
         850      1.61333  0.000702215  7.85313e-05      5.83272 
         850         1.92  0.000582229  8.51008e-05      5.83272 
         850      2.25333   0.00046194  8.96721e-05      5.83272 
         850      2.61333  0.000343384  9.22516e-05      5.83271 
         850            3  0.000222129  9.23854e-05       5.8327 
         900            0           -0           -0      4.01004 
         900     0.013333  1.54151e-05 -9.69748e-09      4.01004 
         900     0.053333 -0.000104384 -2.16791e-07      4.01004 
         900         0.12 -0.000228715 -1.46376e-06      4.01004 
         900     0.213332 -0.000283614 -5.48374e-06      4.01004 
         900     0.333332 -0.000244748 -1.40655e-05      4.01004 
         900         0.48 -0.000153067 -2.77008e-05      4.01004 
         900     0.653331 -7.11133e-05 -4.52655e-05      4.01003 
         900     0.853332 -3.09671e-05 -6.48854e-05      4.01003 
         900         1.08  -2.0331e-05 -8.46759e-05      4.01003 
         900      1.33333  -5.0832e-06 -0.000102983      4.01003 
         900      1.61333  2.95252e-05 -0.000119003      4.01003 
         900         1.92  6.17443e-05 -0.000133159      4.01004 
         900      2.25333  8.31521e-05 -0.000145503      4.01004 
         900      2.61333  9.81061e-05 -0.000155465      4.01004 
         900            3  0.000111322 -0.000162206      4.01004 
         950            0           -0           -0      2.18795 
         950     0.013333  0.000136121 -1.06616e-07      2.18795 
         950     0.053333  0.000361242 -1.52931e-06      2.18795 
         950         0.12  0.000725619  -6.4245e-06      2.18795 
         950     0.213332   0.00114285 -1.55642e-05      2.18795 
         950     0.333332   0.00147984 -2.70321e-05      2.18795 
         950         0.48   0.00165478 -3.75561e-05      2.18795 
         950     0.653331   0.00168462 -4.50644e-05      2.18795 
         950     0.853332   0.00163248 -4.99035e-05      2.18795 
         950         1.08   0.00153385 -5.41267e-05      2.18795 
         950      1.33333   0.00138818 -5.96889e-05      2.18795 
         950      1.61333   0.00120607 -6.66919e-05      2.18795 
         950         1.92   0.00102009 -7.35467e-05      2.18795 
         950      2.25333  0.000829913 -7.91073e-05      2.18794 
         950      2.61333  0.000629401 -8.30509e-05      2.18794 
         950            3  0.000419597   -8.525e-05      2.18792 
        1000            0  1.00006e-19  2.25142e-24     0.365017 
        1000     0.013333   0.00015623  4.94218e-08     0.365017 
        1000     0.053333   0.00038894  7.67375e-07     0.365017 
        1000         0.12   0.00064975  4.08224e-06     0.365017 
        1000     0.213332  0.000823525  1.31202e-05     0.365017 
        1000     0.333332  0.000860355  3.07485e-05     0.365017 
        1000         0.48  0.000795095  5.79445e-05     0.365018 
        1000     0.653331  0.000702226  9.37581e-05     0.365018 
        1000     0.853332  0.000640661  0.000136498     0.365018 
        1000         1.08  0.000627543  0.000184344     0.365018 
        1000      1.33333  0.000631984  0.000234818     0.365018 
        1000      1.61333  0.000599095  0.000284709     0.365017 
        1000         1.92  0.000512861  0.000331556     0.365015 
        1000      2.25333  0.000404521  0.000374051     0.365011 
        1000      2.61333  0.000291921  0.000410858     0.365006 
        1000            3  0.000175598  0.000440291     0.364999 
