Variables = x, y, u, v, p

Zone, I=416, F=POINT
         -50            0            0            0     -200.168 
         -50     0.013333  4.07414e-05 -1.97202e-08     -200.168 
         -50     0.053333  4.75223e-05 -7.14867e-08     -200.168 
         -50         0.12  5.24486e-05   -3.745e-07     -200.168 
         -50     0.213332  6.10399e-05 -1.15812e-06     -200.168 
         -50     0.333332  7.00702e-05 -2.43487e-06     -200.168 
         -50         0.48  7.57686e-05 -3.80505e-06     -200.168 
         -50     0.653331  7.70546e-05 -4.92357e-06     -200.168 
         -50     0.853332  7.44157e-05 -5.60373e-06     -200.167 
         -50         1.08  6.81451e-05  -7.0408e-06     -200.167 
         -50      1.33333  5.72481e-05 -7.63184e-06     -200.166 
         -50      1.61333  4.44076e-05 -8.15556e-06     -200.165 
         -50         1.92  3.92501e-05 -7.05897e-06     -200.164 
         -50      2.25333  3.60901e-05 -6.76549e-06     -200.162 
         -50      2.61333  3.27006e-05 -7.31455e-06      -200.16 
         -50            3  3.35489e-05 -5.52269e-06     -200.157 
         -25            0           -0           -0     -194.889 
         -25     0.013333  4.18969e-05  -5.0664e-09     -194.889 
         -25     0.053333  6.43482e-05  1.46597e-08     -194.889 
         -25         0.12  8.25418e-05  1.75108e-07     -194.889 
         -25     0.213332   9.3514e-05  7.38074e-07     -194.889 
         -25     0.333332  9.79048e-05  1.90359e-06     -194.889 
         -25         0.48  0.000100313  3.66647e-06     -194.889 
         -25     0.653331  0.000102231  5.91246e-06     -194.889 
         -25     0.853332  9.93215e-05  8.17548e-06     -194.889 
         -25         1.08  8.84233e-05  1.00757e-05     -194.889 
         -25      1.33333  7.27473e-05  1.14337e-05     -194.889 
         -25      1.61333  5.47245e-05  1.20579e-05     -194.889 
         -25         1.92   3.7228e-05  1.25331e-05     -194.888 
         -25      2.25333  2.54169e-05  1.15035e-05     -194.888 
         -25      2.61333  1.88139e-05   9.8991e-06     -194.887 
         -25            3   1.6455e-05  1.08345e-05     -194.886 
           0            0            0            0     -189.941 
           0     0.013333  0.000215116  -8.1362e-05     -189.946 
           0     0.053333  9.47109e-05 -4.85045e-05     -189.954 
           0         0.12  6.06958e-05  -2.3298e-05     -189.963 
           0     0.213332  5.11043e-05 -1.85248e-05     -189.972 
           0     0.333332  5.12095e-05 -1.59541e-05     -189.982 
           0         0.48  5.29594e-05 -1.44133e-05     -189.991 
           0     0.653331  5.31018e-05 -1.37199e-05     -190.001 
           0     0.853332  5.12949e-05 -1.35646e-05     -190.009 
           0         1.08  4.88038e-05 -1.37114e-05     -190.018 
           0      1.33333  4.54515e-05 -1.39895e-05     -190.026 
           0      1.61333  4.17706e-05  -1.4113e-05     -190.034 
           0         1.92  3.90258e-05 -1.37814e-05     -190.041 
           0      2.25333  3.74225e-05 -1.35653e-05     -190.048 
           0      2.61333  3.58683e-05 -1.25081e-05     -190.055 
           0            3  3.65499e-05 -9.49578e-06     -190.061 
          20            0 -0.000330742  0.000128706     -186.537 
          20     0.013333 -0.000316455  0.000128214     -186.537 
          20     0.053333 -0.000275228  0.000126191     -186.537 
          20         0.12 -0.000213763  0.000121003     -186.537 
          20     0.213332 -0.000148998  0.000110341     -186.537 
          20     0.333332  -0.00011348  9.08661e-05     -186.537 
          20         0.48 -9.46369e-05  6.14757e-05     -186.537 
          20     0.653331 -7.06491e-05  2.44633e-05     -186.537 
          20     0.853332 -2.52941e-05 -1.57928e-05     -186.537 
          20         1.08  4.51789e-05 -5.51387e-05     -186.537 
          20      1.33333  0.000127753 -9.07827e-05     -186.537 
          20      1.61333  0.000203857 -0.000120468     -186.537 
          20         1.92  0.000258455 -0.000141952     -186.536 
          20      2.25333  0.000283136 -0.000154342     -186.536 
          20      2.61333  0.000279098 -0.000159522     -186.536 
          20            3   0.00024907 -0.000158024     -186.536 
          40            0           -0           -0     -183.049 
          40     0.013333  -0.00020785    1.683e-07     -183.049 
          40     0.053333 -0.000807274  1.64129e-06     -183.049 
          40         0.12  -0.00157103 -6.70753e-06     -183.049 
          40     0.213332  -0.00246316 -7.10163e-05     -183.049 
          40     0.333332  -0.00301048 -0.000221656     -183.049 
          40         0.48  -0.00244882 -0.000371898     -183.048 
          40     0.653331  -0.00181916 -0.000530648     -183.047 
          40     0.853332  -0.00158243 -0.000732458     -183.046 
          40         1.08  -0.00134174 -0.000936713     -183.045 
          40      1.33333 -0.000938307  -0.00110302     -183.043 
          40      1.61333 -0.000465203  -0.00121094      -183.04 
          40         1.92 -1.15316e-05  -0.00125078     -183.037 
          40      2.25333  0.000342124  -0.00122479     -183.034 
          40      2.61333  0.000554002  -0.00114736      -183.03 
          40            3  0.000634042  -0.00103973     -183.027 
          60            0           -0           -0     -179.347 
          60     0.013333 -9.49159e-05  1.39011e-07     -179.347 
          60     0.053333 -0.000439636  1.78088e-06     -179.347 
          60         0.12 -0.000899786  6.10854e-06     -179.347 
          60     0.213332  -0.00130567  1.07802e-05     -179.347 
          60     0.333332   -0.0015636  1.08054e-05     -179.347 
          60         0.48  -0.00170418  2.84708e-06     -179.347 
          60     0.653331   -0.0017777 -1.12802e-05     -179.347 
          60     0.853332  -0.00175758 -2.42736e-05     -179.347 
          60         1.08   -0.0015901 -3.12436e-05     -179.347 
          60      1.33333  -0.00124907 -3.06365e-05     -179.347 
          60      1.61333 -0.000786569 -2.39176e-05     -179.347 
          60         1.92  -0.00031194 -1.35075e-05     -179.347 
          60      2.25333  9.61933e-05 -2.29879e-07     -179.347 
          60      2.61333  0.000380514  1.21851e-05     -179.347 
          60            3  0.000521593  2.35658e-05     -179.347 
          80            0           -0           -0     -175.723 
          80     0.013333  7.56409e-05  1.69458e-07     -175.723 
          80     0.053333  0.000147412  2.58218e-06     -175.723 
          80         0.12   0.00011491  1.18297e-05     -175.723 
          80     0.213332  -5.1382e-05  3.18673e-05     -175.723 
          80     0.333332 -0.000263714  6.28388e-05     -175.723 
          80         0.48 -0.000414984  0.000101917     -175.723 
          80     0.653331 -0.000441767  0.000147129     -175.723 
          80     0.853332 -0.000322328    0.0001981     -175.723 
          80         1.08  -0.00013854   0.00025085     -175.723 
          80      1.33333 -2.43206e-05   0.00029731     -175.723 
          80      1.61333  2.09522e-05  0.000332136     -175.723 
          80         1.92  5.60935e-05  0.000352718     -175.723 
          80      2.25333   8.4057e-05  0.000356825     -175.723 
          80      2.61333  0.000102816  0.000345836     -175.723 
          80            3  0.000114223  0.000323136     -175.723 
         100            0           -0           -0     -172.107 
         100     0.013333  0.000187329  6.51294e-08     -172.107 
         100     0.053333  0.000557837  1.37115e-06     -172.107 
         100         0.12  0.000883542  8.59465e-06     -172.107 
         100     0.213332  0.000967132  2.96001e-05     -172.107 
         100     0.333332   0.00083161  6.97642e-05     -172.107 
         100         0.48  0.000653947  0.000127659     -172.107 
         100     0.653331  0.000555284   0.00019686     -172.107 
         100     0.853332  0.000503457   0.00026832     -172.107 
         100         1.08  0.000403929  0.000333675     -172.107 
         100      1.33333  0.000257052  0.000387601     -172.107 
         100      1.61333  0.000126103  0.000428294     -172.107 
         100         1.92  2.01426e-05  0.000452698     -172.107 
         100      2.25333 -6.70964e-05  0.000456997     -172.107 
         100      2.61333 -0.000128707  0.000442668     -172.107 
         100            3 -0.000156216  0.000413038     -172.107 
         150            0           -0           -0     -163.066 
         150     0.013333 -0.000179929 -1.25788e-08     -163.066 
         150     0.053333 -0.000685412 -7.14972e-07     -163.066 
         150         0.12  -0.00118432 -6.48383e-06     -163.066 
         150     0.213332  -0.00137937 -2.65705e-05     -163.066 
         150     0.333332  -0.00124425 -6.88743e-05     -163.066 
         150         0.48  -0.00098854 -0.000133449     -163.066 
         150     0.653331 -0.000799585 -0.000213764     -163.066 
         150     0.853332 -0.000687712 -0.000299976     -163.066 
         150         1.08 -0.000546784 -0.000381901     -163.066 
         150      1.33333 -0.000351065 -0.000452366     -163.066 
         150      1.61333 -0.000167741 -0.000509258     -163.066 
         150         1.92 -2.38739e-06 -0.000548359     -163.066 
         150      2.25333  0.000147852 -0.000564081     -163.066 
         150      2.61333  0.000264915  -0.00055688     -163.066 
         150            3  0.000328672 -0.000529673     -163.066 
         200            0            0            0     -154.004 
         200     0.013333  -0.00011738 -4.51138e-07     -154.004 
         200     0.053333 -0.000369499 -6.90677e-06     -154.004 
         200         0.12 -0.000392466 -3.17335e-05     -154.004 
         200     0.213332 -7.81343e-05 -8.53795e-05     -154.004 
         200     0.333332  0.000343533 -0.000167709     -154.004 
         200         0.48  0.000602524 -0.000270763     -154.004 
         200     0.653331   0.00060138 -0.000388054     -154.004 
         200     0.853332  0.000391284 -0.000515106     -154.004 
         200         1.08  0.000158211 -0.000640963     -154.004 
         200      1.33333   6.4719e-05 -0.000750314     -154.004 
         200      1.61333  4.32282e-05 -0.000834952     -154.004 
         200         1.92  1.37059e-05 -0.000890448     -154.004 
         200      2.25333 -1.62437e-05 -0.000910511     -154.004 
         200      2.61333 -3.51784e-05 -0.000894011     -154.004 
         200            3 -4.26657e-05  -0.00084546     -154.004 
         250            0            0            0     -144.919 
         250     0.013333 -9.49691e-05 -2.25138e-09     -144.919 
         250     0.053333   -0.0004129 -1.39284e-07     -144.919 
         250         0.12 -0.000798813 -1.39643e-06     -144.919 
         250     0.213332    -0.001086 -6.54733e-06     -144.919 
         250     0.333332  -0.00117985 -1.97489e-05     -144.919 
         250         0.48  -0.00111091  -4.4474e-05     -144.919 
         250     0.653331 -0.000988509 -8.18501e-05     -144.919 
         250     0.853332 -0.000901419 -0.000130619     -144.919 
         250         1.08  -0.00084958 -0.000187269     -144.919 
         250      1.33333 -0.000760214 -0.000245487     -144.919 
         250      1.61333 -0.000596727 -0.000298838     -144.919 
         250         1.92 -0.000397429 -0.000343316     -144.919 
         250      2.25333 -0.000189631 -0.000375177     -144.919 
         250      2.61333  2.00679e-06  -0.00039233     -144.919 
         250            3   0.00015274 -0.000394332     -144.919 
         300            0            0            0     -135.814 
         300     0.013333   0.00016496  7.43799e-07     -135.814 
         300     0.053333  0.000312011  1.12674e-05     -135.814 
         300         0.12 -1.24119e-05  5.12128e-05     -135.814 
         300     0.213332 -0.000879129  0.000136561     -135.814 
         300     0.333332  -0.00184246  0.000265878     -135.814 
         300         0.48  -0.00243021  0.000424276     -135.814 
         300     0.653331  -0.00250664  0.000599161     -135.814 
         300     0.853332  -0.00217822  0.000785033     -135.814 
         300         1.08  -0.00168038  0.000972706     -135.814 
         300      1.33333   -0.0012647    0.0011457     -135.814 
         300      1.61333 -0.000946451   0.00129071     -135.814 
         300         1.92 -0.000610564   0.00139946     -135.814 
         300      2.25333 -0.000259032   0.00146233     -135.814 
         300      2.61333  6.69921e-05   0.00147276     -135.814 
         300            3  0.000326681   0.00143131     -135.814 
         350            0            0            0     -126.695 
         350     0.013333  0.000543564  6.36245e-07     -126.695 
         350     0.053333   0.00167354  1.02843e-05     -126.695 
         350         0.12   0.00248999  5.09864e-05     -126.695 
         350     0.213332   0.00237919  0.000149237     -126.695 
         350     0.333332   0.00153755  0.000317718     -126.695 
         350         0.48  0.000634733  0.000548239     -126.695 
         350     0.653331  0.000159566   0.00082363     -126.695 
         350     0.853332  0.000186249   0.00112808     -126.695 
         350         1.08  0.000438213   0.00144181     -126.695 
         350      1.33333  0.000525375   0.00173717     -126.695 
         350      1.61333  0.000391962   0.00199256     -126.695 
         350         1.92  0.000240518   0.00219631     -126.695 
         350      2.25333   0.00010483    0.0023321     -126.695 
         350      2.61333 -1.83571e-05   0.00238787     -126.695 
         350            3  -0.00011774   0.00236003     -126.695 
         400            0  6.97086e-20  7.00088e-26     -117.557 
         400     0.013333  0.000168103 -5.76663e-07     -117.557 
         400     0.053333  0.000692073 -8.29068e-06     -117.557 
         400         0.12   0.00167999  -3.5102e-05     -117.557 
         400     0.213332   0.00292273 -8.68553e-05     -117.557 
         400     0.333332   0.00400431  -0.00015771     -117.557 
         400         0.48   0.00466761 -0.000236479     -117.557 
         400     0.653331   0.00493092 -0.000316705     -117.557 
         400     0.853332   0.00487049 -0.000401018     -117.557 
         400         1.08   0.00446055 -0.000496981     -117.557 
         400      1.33333   0.00374957 -0.000605253     -117.557 
         400      1.61333   0.00295882 -0.000713407     -117.557 
         400         1.92   0.00217405 -0.000807626     -117.557 
         400      2.25333   0.00135756   -0.0008809     -117.557 
         400      2.61333  0.000544637 -0.000926809     -117.557 
         400            3 -0.000170732 -0.000941645     -117.557 
         450            0           -0           -0     -108.405 
         450     0.013333  0.000123057  7.68568e-07     -108.405 
         450     0.053333  0.000136923  1.16462e-05     -108.405 
         450         0.12 -0.000444889  5.32188e-05     -108.405 
         450     0.213332   -0.0017239  0.000143657     -108.405 
         450     0.333332  -0.00321761  0.000284331     -108.405 
         450         0.48  -0.00432755  0.000460509     -108.405 
         450     0.653331   -0.0048072  0.000656098     -108.405 
         450     0.853332  -0.00472336  0.000863487     -108.405 
         450         1.08  -0.00425159   0.00107836     -108.405 
         450      1.33333  -0.00361865   0.00129056     -108.405 
         450      1.61333  -0.00297373   0.00148608     -108.405 
         450         1.92  -0.00229706   0.00165271     -108.405 
         450      2.25333  -0.00156027   0.00177824     -108.405 
         450      2.61333 -0.000799411   0.00185168     -108.405 
         450            3 -9.45653e-05    0.0018663     -108.405 
         500            0           -0           -0     -99.2369 
         500     0.013333   3.0494e-05 -7.41912e-07     -99.2369 
         500     0.053333  0.000251496 -1.09444e-05     -99.2369 
         500         0.12   0.00100906 -4.81699e-05     -99.2369 
         500     0.213332    0.0022575 -0.000124889     -99.2369 
         500     0.333332   0.00353233 -0.000238368     -99.2369 
         500         0.48   0.00440171 -0.000375495     -99.2369 
         500     0.653331   0.00475902 -0.000526045     -99.2369 
         500     0.853332   0.00467263 -0.000689269     -99.2369 
         500         1.08   0.00419375 -0.000868743     -99.2369 
         500      1.33333   0.00345536  -0.00106011     -99.2369 
         500      1.61333   0.00271144   -0.0012467     -99.2369 
         500         1.92   0.00203982   -0.0014111      -99.237 
         500      2.25333   0.00135419  -0.00154227      -99.237 
         500      2.61333  0.000650545  -0.00163033      -99.237 
         500            3  9.78314e-07  -0.00166781     -99.2371 
         550            0            0            0       -90.07 
         550     0.013333 -0.000206953  3.62216e-07       -90.07 
         550     0.053333 -0.000896189  4.95896e-06       -90.07 
         550         0.12  -0.00190617  1.91954e-05       -90.07 
         550     0.213332  -0.00286223  4.11579e-05       -90.07 
         550     0.333332  -0.00340255   6.0435e-05       -90.07 
         550         0.48  -0.00348054  6.75085e-05       -90.07 
         550     0.653331  -0.00330518  6.23542e-05       -90.07 
         550     0.853332     -0.00303  5.37867e-05       -90.07 
         550         1.08  -0.00262902  5.25511e-05       -90.07 
         550      1.33333   -0.0020972  6.19155e-05       -90.07 
         550      1.61333  -0.00157397  7.52468e-05       -90.07 
         550         1.92  -0.00111662  8.60215e-05       -90.07 
         550      2.25333  -0.00066424  9.36648e-05     -90.0699 
         550      2.61333 -0.000206315  9.82891e-05     -90.0699 
         550            3   0.00021533  9.96087e-05     -90.0699 
         600            0           -0           -0     -80.8924 
         600     0.013333  0.000373305  2.74591e-08     -80.8924 
         600     0.053333   0.00126267  8.65538e-07     -80.8924 
         600         0.12   0.00227944  6.84176e-06     -80.8924 
         600     0.213332   0.00298852  2.72016e-05     -80.8924 
         600     0.333332   0.00321755  7.11674e-05     -80.8924 
         600         0.48   0.00312887  0.000141612     -80.8924 
         600     0.653331   0.00299806  0.000234979     -80.8924 
         600     0.853332   0.00297614  0.000344533     -80.8924 
         600         1.08    0.0029853  0.000459676     -80.8924 
         600      1.33333   0.00280279  0.000566388     -80.8924 
         600      1.61333   0.00237236   0.00065614     -80.8925 
         600         1.92   0.00187719   0.00073028     -80.8925 
         600      2.25333   0.00136609  0.000788132     -80.8925 
         600      2.61333  0.000839383  0.000825526     -80.8925 
         600            3  0.000320674   0.00083846     -80.8926 
         650            0  1.08483e-19  6.25959e-26     -71.7054 
         650     0.013333  0.000263072  -4.2776e-08     -71.7054 
         650     0.053333  0.000877758 -2.62295e-07     -71.7054 
         650         0.12   0.00157391  1.44454e-06     -71.7054 
         650     0.213332   0.00199532  1.25002e-05     -71.7054 
         650     0.333332     0.001965   4.2767e-05     -71.7054 
         650         0.48   0.00162457  9.67658e-05     -71.7054 
         650     0.653331   0.00125246  0.000169875     -71.7054 
         650     0.853332  0.000986466  0.000251804     -71.7054 
         650         1.08  0.000765492  0.000332237     -71.7054 
         650      1.33333  0.000524939  0.000406754     -71.7054 
         650      1.61333   0.00032935  0.000477863     -71.7054 
         650         1.92  0.000199502  0.000546392     -71.7054 
         650      2.25333  8.13577e-05   0.00060747     -71.7054 
         650      2.61333   -3.983e-05  0.000655765     -71.7055 
         650            3 -0.000147988  0.000687282     -71.7055 
         700            0 -1.83806e-19  4.04633e-26     -62.5051 
         700     0.013333 -0.000546024 -1.15095e-07     -62.5051 
         700     0.053333  -0.00197367 -2.52207e-06     -62.5051 
         700         0.12    -0.003521 -1.66643e-05     -62.5051 
         700     0.213332   -0.0043995 -6.11249e-05     -62.5051 
         700     0.333332  -0.00435103 -0.000153926     -62.5051 
         700         0.48  -0.00376889 -0.000299325     -62.5051 
         700     0.653331  -0.00323166 -0.000486693     -62.5051 
         700     0.853332  -0.00301477 -0.000699113     -62.5051 
         700         1.08  -0.00296956 -0.000917418     -62.5051 
         700      1.33333  -0.00274978  -0.00112214     -62.5051 
         700      1.61333  -0.00225689   -0.0013025     -62.5051 
         700         1.92  -0.00171952  -0.00145971      -62.505 
         700      2.25333  -0.00119907  -0.00159027      -62.505 
         700      2.61333 -0.000678339  -0.00168565      -62.505 
         700            3  -0.00016173  -0.00173696      -62.505 
         750            0           -0           -0     -53.2887 
         750     0.013333  0.000626711   1.1162e-07     -53.2887 
         750     0.053333   0.00214546  2.41937e-06     -53.2887 
         750         0.12   0.00382529    1.587e-05     -53.2887 
         750     0.213332    0.0048749  5.80058e-05     -53.2887 
         750     0.333332   0.00499883  0.000146087     -53.2887 
         750         0.48   0.00453517  0.000285121     -53.2887 
         750     0.653331   0.00403784  0.000466858     -53.2887 
         750     0.853332   0.00382163   0.00067752     -53.2887 
         750         1.08   0.00381118  0.000900588     -53.2887 
         750      1.33333   0.00365871   0.00111568     -53.2887 
         750      1.61333   0.00315671   0.00130643     -53.2887 
         750         1.92   0.00251265   0.00147089     -53.2887 
         750      2.25333   0.00186425   0.00160826     -53.2888 
         750      2.61333     0.001216   0.00171119     -53.2888 
         750            3  0.000558188   0.00177045     -53.2889 
         800            0            0            0     -44.0691 
         800     0.013333 -0.000287798   1.2052e-07     -44.0691 
         800     0.053333  -0.00113414  1.41462e-06     -44.0691 
         800         0.12   -0.0022348  3.80247e-06     -44.0691 
         800     0.213332  -0.00317946  2.10275e-06     -44.0691 
         800     0.333332   -0.0036915 -1.22441e-05     -44.0691 
         800         0.48  -0.00379859 -4.48602e-05     -44.0691 
         800     0.653331  -0.00372542 -9.50892e-05     -44.0691 
         800     0.853332  -0.00365644 -0.000157643     -44.0691 
         800         1.08  -0.00359183 -0.000224041     -44.0691 
         800      1.33333  -0.00337186 -0.000283482     -44.0691 
         800      1.61333  -0.00290506 -0.000328167     -44.0691 
         800         1.92  -0.00234285 -0.000360831     -44.0691 
         800      2.25333  -0.00177833  -0.00038499     -44.0691 
         800      2.61333  -0.00120756 -0.000400777      -44.069 
         800            3 -0.000619493  -0.00040634      -44.069 
         850            0            0            0     -34.8414 
         850     0.013333  5.10688e-05 -8.46837e-08     -34.8414 
         850     0.053333  0.000143607 -1.20685e-06     -34.8414 
         850         0.12  0.000302765  -5.0445e-06     -34.8414 
         850     0.213332  0.000496534  -1.2312e-05     -34.8414 
         850     0.333332  0.000661408 -2.21034e-05     -34.8414 
         850         0.48  0.000761053 -3.29453e-05     -34.8414 
         850     0.653331   0.00080499 -4.41286e-05     -34.8414 
         850     0.853332  0.000816246 -5.61158e-05     -34.8414 
         850         1.08  0.000793649 -7.03679e-05     -34.8414 
         850      1.33333  0.000711975 -8.86695e-05     -34.8414 
         850      1.61333  0.000573526  -0.00011126     -34.8414 
         850         1.92   0.00043859 -0.000135184     -34.8414 
         850      2.25333  0.000323501 -0.000157558     -34.8414 
         850      2.61333  0.000215726 -0.000176768     -34.8414 
         850            3  0.000106135 -0.000191955     -34.8414 
         900            0            0            0     -25.6059 
         900     0.013333  2.94462e-05  3.84639e-09     -25.6059 
         900     0.053333  4.28348e-05  5.33689e-08     -25.6059 
         900         0.12  5.17545e-05  2.25683e-07     -25.6059 
         900     0.213332    5.866e-05  5.66577e-07     -25.6059 
         900     0.333332  6.42906e-05  1.07216e-06     -25.6059 
         900         0.48   6.8592e-05  1.73677e-06     -25.6059 
         900     0.653331  7.08166e-05  2.58186e-06     -25.6059 
         900     0.853332  7.09782e-05  3.65668e-06     -25.6059 
         900         1.08  7.04723e-05  5.00526e-06     -25.6059 
         900      1.33333  7.18918e-05  6.74152e-06     -25.6059 
         900      1.61333   7.5608e-05  8.84006e-06     -25.6059 
         900         1.92   7.6023e-05  1.09839e-05     -25.6059 
         900      2.25333  7.15846e-05  1.27934e-05     -25.6059 
         900      2.61333  6.45112e-05  1.42332e-05     -25.6059 
         900            3  5.69861e-05  1.52804e-05     -25.6059 
         950            0  2.29259e-20  9.80958e-26     -16.3486 
         950     0.013333  2.82126e-05  1.57249e-10     -16.3486 
         950     0.053333  4.04186e-05  2.75073e-09     -16.3486 
         950         0.12  4.85671e-05  2.81364e-08     -16.3486 
         950     0.213332  5.41529e-05  1.27419e-07     -16.3486 
         950     0.333332  5.65638e-05  3.59593e-07     -16.3486 
         950         0.48  5.65429e-05  7.51961e-07     -16.3486 
         950     0.653331  5.56279e-05  1.29192e-06     -16.3486 
         950     0.853332  5.51992e-05   1.9417e-06     -16.3486 
         950         1.08  5.55306e-05  2.66396e-06     -16.3486 
         950      1.33333  5.55196e-05  3.38649e-06     -16.3486 
         950      1.61333  5.35939e-05  4.05005e-06     -16.3486 
         950         1.92  5.00028e-05  4.49319e-06     -16.3486 
         950      2.25333   4.6219e-05   4.9917e-06     -16.3486 
         950      2.61333  4.25195e-05  5.33592e-06     -16.3486 
         950            3  3.85226e-05  5.38038e-06     -16.3487 
        1000            0            0            0     -7.06663 
        1000     0.013333  2.52313e-05  5.91102e-10     -7.06663 
        1000     0.053333  3.08553e-05  6.89416e-09     -7.06663 
        1000         0.12  3.07094e-05  2.81217e-08     -7.06663 
        1000     0.213332  2.94661e-05  6.88934e-08     -7.06663 
        1000     0.333332  2.84309e-05   1.2589e-07     -7.06663 
        1000         0.48  2.79181e-05  1.92555e-07     -7.06663 
        1000     0.653331  2.76632e-05  2.65406e-07     -7.06663 
        1000     0.853332  2.75412e-05  3.46365e-07     -7.06663 
        1000         1.08  2.75756e-05  4.39456e-07     -7.06663 
        1000      1.33333  2.79175e-05  5.54343e-07     -7.06663 
        1000      1.61333  2.86298e-05  7.00488e-07     -7.06664 
        1000         1.92  2.94319e-05  8.57751e-07     -7.06664 
        1000      2.25333  3.00365e-05  1.02483e-06     -7.06664 
        1000      2.61333  3.04548e-05  1.17398e-06     -7.06665 
        1000            3  3.08888e-05  1.28111e-06     -7.06666 
