Variables = x, y, u, v, p

Zone, I=416, F=POINT
         -50            0            0            0     -137.331 
         -50     0.013333 -0.000115693 -1.11195e-08     -137.331 
         -50     0.053333 -0.000107694  9.47904e-08     -137.331 
         -50         0.12 -0.000116194  4.49705e-07     -137.331 
         -50     0.213332 -0.000125407  8.41098e-07     -137.331 
         -50     0.333332 -0.000130461  5.97707e-07     -137.331 
         -50         0.48  -0.00013121  1.59782e-06     -137.331 
         -50     0.653331 -0.000128493  1.92355e-06     -137.331 
         -50     0.853332 -0.000122328  1.62717e-06     -137.331 
         -50         1.08 -0.000115601   2.0686e-06      -137.33 
         -50      1.33333 -0.000108908  1.54002e-06      -137.33 
         -50      1.61333 -0.000102009  1.45137e-06     -137.329 
         -50         1.92 -9.63341e-05  4.14803e-07     -137.328 
         -50      2.25333 -0.000100063 -5.57944e-07     -137.327 
         -50      2.61333 -0.000103075  1.13656e-06     -137.325 
         -50            3 -9.72882e-05  5.06785e-06     -137.324 
         -25            0           -0           -0     -133.631 
         -25     0.013333 -9.37994e-05 -1.60552e-08     -133.631 
         -25     0.053333 -7.26507e-05 -1.39156e-07     -133.631 
         -25         0.12 -5.84463e-05 -4.89645e-07     -133.631 
         -25     0.213332 -4.76462e-05 -9.92384e-07     -133.631 
         -25     0.333332  -4.3128e-05  -1.4196e-06     -133.631 
         -25         0.48 -4.26609e-05 -1.79294e-06     -133.631 
         -25     0.653331 -4.48712e-05 -1.90268e-06     -133.631 
         -25     0.853332 -5.00484e-05 -2.00648e-06     -133.631 
         -25         1.08 -5.71596e-05 -2.31111e-06      -133.63 
         -25      1.33333 -6.49974e-05 -2.44459e-06      -133.63 
         -25      1.61333 -7.25498e-05 -2.37814e-06      -133.63 
         -25         1.92 -7.60581e-05 -1.91421e-06      -133.63 
         -25      2.25333 -7.44785e-05 -1.23221e-06      -133.63 
         -25      2.61333 -7.40495e-05 -1.25943e-06     -133.629 
         -25            3  -7.9919e-05 -3.48276e-06     -133.629 
           0            0            0            0     -130.161 
           0     0.013333 -0.000180335  0.000150082     -130.165 
           0     0.053333 -0.000134439  6.60821e-05      -130.17 
           0         0.12 -0.000121657  4.69764e-05     -130.177 
           0     0.213332 -0.000126323  3.56393e-05     -130.184 
           0     0.333332 -0.000137147  3.08327e-05      -130.19 
           0         0.48 -0.000143254  2.82121e-05     -130.197 
           0     0.653331 -0.000142917  2.74124e-05     -130.204 
           0     0.853332 -0.000135779  2.77572e-05      -130.21 
           0         1.08 -0.000125286  2.86615e-05     -130.216 
           0      1.33333 -0.000112922  2.94356e-05     -130.221 
           0      1.61333 -9.92518e-05  2.97279e-05     -130.227 
           0         1.92 -8.65783e-05  2.91515e-05     -130.232 
           0      2.25333 -7.54638e-05  2.76383e-05     -130.237 
           0      2.61333 -7.01029e-05  2.51422e-05     -130.242 
           0            3 -6.93464e-05  2.39012e-05     -130.246 
          20            0 -4.41435e-05  1.58358e-05     -127.777 
          20     0.013333 -4.22866e-05  1.58692e-05     -127.777 
          20     0.053333 -3.67722e-05  1.59171e-05     -127.777 
          20         0.12 -2.80619e-05  1.58148e-05     -127.777 
          20     0.213332 -1.78793e-05  1.53624e-05     -127.777 
          20     0.333332 -1.04391e-05  1.42657e-05     -127.777 
          20         0.48 -6.52287e-06  1.24322e-05     -127.777 
          20     0.653331 -5.84855e-06  1.00047e-05     -127.777 
          20     0.853332 -8.10582e-06  7.35716e-06     -127.777 
          20         1.08 -1.30173e-05  4.71751e-06     -127.777 
          20      1.33333 -2.03637e-05  2.08723e-06     -127.777 
          20      1.61333 -2.99017e-05 -2.98662e-07     -127.777 
          20         1.92 -3.99105e-05  -2.4322e-06     -127.777 
          20      2.25333 -4.71932e-05 -3.89788e-06     -127.776 
          20      2.61333 -4.86222e-05 -4.06555e-06     -127.776 
          20            3 -4.74891e-05  -3.1274e-06     -127.776 
          40            0           -0           -0     -125.334 
          40     0.013333 -0.000122912 -9.53623e-08     -125.334 
          40     0.053333 -0.000170561 -5.09901e-07     -125.334 
          40         0.12 -0.000245825 -3.18846e-06     -125.334 
          40     0.213332 -0.000350709 -1.39873e-05     -125.334 
          40     0.333332 -0.000431105 -3.72734e-05     -125.334 
          40         0.48 -0.000375972 -6.22313e-05     -125.334 
          40     0.653331 -0.000304505 -8.79446e-05     -125.333 
          40     0.853332 -0.000279447 -0.000118355     -125.332 
          40         1.08 -0.000260268 -0.000149172     -125.331 
          40      1.33333 -0.000221382  -0.00017496      -125.33 
          40      1.61333 -0.000169489 -0.000192333     -125.328 
          40         1.92 -0.000115194 -0.000199578     -125.326 
          40      2.25333 -6.91627e-05 -0.000196886     -125.324 
          40      2.61333 -4.14102e-05  -0.00018674     -125.321 
          40            3 -2.79286e-05 -0.000170678     -125.319 
          60            0           -0           -0     -122.745 
          60     0.013333 -9.81615e-05  2.14179e-07     -122.745 
          60     0.053333 -0.000160752  3.11977e-06     -122.745 
          60         0.12 -0.000349353  1.31523e-05     -122.745 
          60     0.213332 -0.000593356    3.161e-05     -122.745 
          60     0.333332 -0.000772269  5.48234e-05     -122.745 
          60         0.48 -0.000831267   7.9564e-05     -122.745 
          60     0.653331 -0.000766692  0.000107605     -122.745 
          60     0.853332 -0.000622565  0.000140367     -122.745 
          60         1.08 -0.000498514   0.00017264     -122.745 
          60      1.33333 -0.000392037  0.000199698     -122.745 
          60      1.61333 -0.000268735  0.000218729     -122.745 
          60         1.92 -0.000139938  0.000226942     -122.745 
          60      2.25333 -2.74164e-05  0.000224077     -122.745 
          60      2.61333  5.19191e-05  0.000211449     -122.745 
          60            3  9.16983e-05  0.000191981     -122.745 
          80            0           -0           -0     -120.213 
          80     0.013333  -0.00015944  8.92354e-08     -120.213 
          80     0.053333 -0.000336594  1.00006e-06     -120.213 
          80         0.12 -0.000547239  2.40638e-06     -120.213 
          80     0.213332 -0.000659835  6.40035e-07     -120.213 
          80     0.333332 -0.000646677 -8.38066e-06     -120.213 
          80         0.48 -0.000594395 -2.45874e-05     -120.213 
          80     0.653331 -0.000558231 -4.22444e-05     -120.213 
          80     0.853332 -0.000447842 -5.06344e-05     -120.213 
          80         1.08 -0.000221996 -4.53697e-05     -120.213 
          80      1.33333 -5.90131e-05 -3.58246e-05     -120.213 
          80      1.61333  1.22856e-07  -2.9353e-05     -120.213 
          80         1.92  3.99052e-05 -2.44563e-05     -120.213 
          80      2.25333  6.62935e-05 -1.99771e-05     -120.213 
          80      2.61333  7.68028e-05 -1.64187e-05     -120.213 
          80            3  7.43965e-05 -1.34739e-05     -120.213 
         100            0           -0           -0      -117.69 
         100     0.013333 -0.000128785 -5.63319e-08      -117.69 
         100     0.053333 -0.000207824 -9.16296e-07      -117.69 
         100         0.12 -0.000282858 -4.45981e-06      -117.69 
         100     0.213332 -0.000315173 -1.24408e-05      -117.69 
         100     0.333332 -0.000328785 -2.49769e-05      -117.69 
         100         0.48 -0.000361855 -4.12439e-05      -117.69 
         100     0.653331 -0.000428131 -6.02898e-05      -117.69 
         100     0.853332 -0.000467424 -7.81756e-05      -117.69 
         100         1.08   -0.0003784 -8.82269e-05      -117.69 
         100      1.33333 -0.000248975 -9.14553e-05      -117.69 
         100      1.61333 -0.000193733 -9.36659e-05      -117.69 
         100         1.92 -0.000141212 -9.31094e-05      -117.69 
         100      2.25333 -8.38207e-05 -8.79891e-05      -117.69 
         100      2.61333 -3.80666e-05 -7.95402e-05      -117.69 
         100            3 -1.35885e-05 -6.90767e-05      -117.69 
         150            0           -0           -0     -111.394 
         150     0.013333  -0.00020296  6.90518e-08     -111.394 
         150     0.053333 -0.000488581  7.12581e-07     -111.394 
         150         0.12   -0.0008217  1.17502e-06     -111.394 
         150     0.213332  -0.00102223 -2.74786e-06     -111.394 
         150     0.333332  -0.00103574  -1.6021e-05     -111.394 
         150         0.48 -0.000949931 -3.97725e-05     -111.394 
         150     0.653331 -0.000860388 -7.06345e-05     -111.394 
         150     0.853332  -0.00076671 -0.000102641     -111.394 
         150         1.08 -0.000625314 -0.000131047     -111.394 
         150      1.33333 -0.000458915 -0.000154559     -111.394 
         150      1.61333 -0.000305929 -0.000173826     -111.394 
         150         1.92 -0.000155516  -0.00018723     -111.394 
         150      2.25333 -1.83564e-05  -0.00019245     -111.394 
         150      2.61333  8.54992e-05 -0.000190258     -111.394 
         150            3  0.000141704 -0.000181776     -111.394 
         200            0            0            0     -105.105 
         200     0.013333 -0.000285776  2.14177e-07     -105.105 
         200     0.053333 -0.000832472  2.84943e-06     -105.105 
         200         0.12  -0.00159306   1.0446e-05     -105.105 
         200     0.213332  -0.00227594  2.03139e-05     -105.105 
         200     0.333332  -0.00265849  2.45038e-05     -105.105 
         200         0.48  -0.00274474  1.60875e-05     -105.105 
         200     0.653331  -0.00267725 -5.85617e-06     -105.105 
         200     0.853332  -0.00253035 -3.59986e-05     -105.105 
         200         1.08  -0.00226213  -6.7117e-05     -105.105 
         200      1.33333  -0.00185901 -9.42587e-05     -105.105 
         200      1.61333  -0.00138613 -0.000117359     -105.105 
         200         1.92 -0.000881383 -0.000136194     -105.105 
         200      2.25333 -0.000381163 -0.000148491     -105.105 
         200      2.61333  5.80034e-05 -0.000154413     -105.105 
         200            3  0.000378721 -0.000153869     -105.105 
         250            0            0            0     -98.8181 
         250     0.013333 -0.000127969  6.16427e-07     -98.8181 
         250     0.053333 -0.000368306  8.91748e-06     -98.8181 
         250         0.12 -0.000992899  3.79202e-05     -98.8181 
         250     0.213332  -0.00184121  9.37312e-05     -98.8181 
         250     0.333332  -0.00254563  0.000169539     -98.8181 
         250         0.48  -0.00289751  0.000254645     -98.8181 
         250     0.653331  -0.00291133  0.000346006     -98.8181 
         250     0.853332   -0.0026274  0.000447862     -98.8181 
         250         1.08  -0.00212952  0.000558869     -98.8181 
         250      1.33333   -0.0016218  0.000666603     -98.8181 
         250      1.61333  -0.00118465   0.00075765     -98.8181 
         250         1.92 -0.000739897  0.000825206     -98.8181 
         250      2.25333 -0.000296123  0.000863782      -98.818 
         250      2.61333  9.63532e-05  0.000869262      -98.818 
         250            3  0.000388387  0.000843354     -98.8179 
         300            0            0            0     -92.5331 
         300     0.013333 -0.000308512 -3.03879e-07     -92.5331 
         300     0.053333 -0.000749918 -5.09313e-06     -92.5331 
         300         0.12 -0.000977791 -2.61939e-05     -92.5331 
         300     0.213332 -0.000700677 -7.85339e-05     -92.5332 
         300     0.333332 -9.44796e-05 -0.000168429     -92.5332 
         300         0.48  0.000428009 -0.000288451     -92.5332 
         300     0.653331  0.000629072 -0.000425194     -92.5332 
         300     0.853332   0.00057184 -0.000565748     -92.5332 
         300         1.08  0.000486857 -0.000696954     -92.5332 
         300      1.33333  0.000485608 -0.000809563     -92.5332 
         300      1.61333  0.000465083 -0.000902401     -92.5331 
         300         1.92  0.000390115 -0.000972089     -92.5331 
         300      2.25333  0.000286898  -0.00101077     -92.5331 
         300      2.61333  0.000173911  -0.00101441     -92.5331 
         300            3  6.40107e-05 -0.000983424     -92.5331 
         350            0            0            0     -86.2522 
         350     0.013333 -0.000586466 -2.81585e-07     -86.2522 
         350     0.053333  -0.00175142 -5.09363e-06     -86.2522 
         350         0.12  -0.00284979 -2.83671e-05     -86.2522 
         350     0.213332  -0.00324852 -9.10632e-05     -86.2522 
         350     0.333332  -0.00295832 -0.000206883     -86.2522 
         350         0.48  -0.00247643 -0.000372459     -86.2522 
         350     0.653331  -0.00223022 -0.000573708     -86.2522 
         350     0.853332  -0.00226596 -0.000793542     -86.2522 
         350         1.08  -0.00228417  -0.00101029     -86.2522 
         350      1.33333  -0.00200239  -0.00120208     -86.2522 
         350      1.61333  -0.00153093  -0.00136026     -86.2522 
         350         1.92   -0.0010609  -0.00148244     -86.2522 
         350      2.25333 -0.000594219  -0.00155801     -86.2522 
         350      2.61333 -0.000146811     -0.00158     -86.2521 
         350            3  0.000228032  -0.00154707     -86.2521 
         400            0 -2.98385e-19  5.88828e-28     -79.9733 
         400     0.013333  -0.00058841  2.33601e-07     -79.9733 
         400     0.053333  -0.00190198  2.56733e-06     -79.9733 
         400         0.12  -0.00350941  5.50748e-06     -79.9733 
         400     0.213332  -0.00469574 -3.72953e-06     -79.9733 
         400     0.333332  -0.00509929 -4.31236e-05     -79.9733 
         400         0.48  -0.00493623 -0.000121037     -79.9733 
         400     0.653331  -0.00463905 -0.000230885     -79.9733 
         400     0.853332  -0.00438541 -0.000356147     -79.9733 
         400         1.08  -0.00400871 -0.000476615     -79.9733 
         400      1.33333  -0.00335934 -0.000578363     -79.9733 
         400      1.61333  -0.00258947 -0.000661912     -79.9733 
         400         1.92  -0.00182828 -0.000730619     -79.9733 
         400      2.25333  -0.00105495  -0.00077851     -79.9732 
         400      2.61333 -0.000300132 -0.000801431     -79.9732 
         400            3  0.000352111 -0.000797581     -79.9731 
         450            0           -0           -0      -73.695 
         450     0.013333 -7.05647e-05  5.13377e-07      -73.695 
         450     0.053333 -0.000148437  7.55979e-06      -73.695 
         450         0.12 -0.000563457    3.305e-05      -73.695 
         450     0.213332   -0.0012536  8.45036e-05      -73.695 
         450     0.333332  -0.00189422  0.000158107      -73.695 
         450         0.48  -0.00222999  0.000243924      -73.695 
         450     0.653331  -0.00224229  0.000336517      -73.695 
         450     0.853332  -0.00199835  0.000437803      -73.695 
         450         1.08  -0.00156596  0.000549267      -73.695 
         450      1.33333  -0.00111499  0.000662679      -73.695 
         450      1.61333  -0.00080293   0.00076405      -73.695 
         450         1.92 -0.000554843  0.000845713      -73.695 
         450      2.25333 -0.000303866  0.000903615      -73.695 
         450      2.61333 -5.66539e-05  0.000933118      -73.695 
         450            3  0.000152092  0.000931327     -73.6949 
         500            0           -0           -0     -67.4183 
         500     0.013333  0.000292383  8.21027e-08     -67.4183 
         500     0.053333   0.00124549   1.8319e-06     -67.4183 
         500         0.12   0.00223182   1.2175e-05     -67.4183 
         500     0.213332   0.00273988  4.44674e-05     -67.4183 
         500     0.333332   0.00263866  0.000110965     -67.4183 
         500         0.48   0.00222415  0.000213703     -67.4183 
         500     0.653331    0.0018677  0.000344744     -67.4183 
         500     0.853332   0.00171237  0.000492246     -67.4183 
         500         1.08   0.00163335  0.000642629     -67.4183 
         500      1.33333   0.00142706  0.000782364     -67.4183 
         500      1.61333   0.00108563  0.000904451     -67.4183 
         500         1.92  0.000739833   0.00100766     -67.4183 
         500      2.25333  0.000400643   0.00108647     -67.4184 
         500      2.61333  6.77353e-05   0.00113427     -67.4184 
         500            3 -0.000233777   0.00114643     -67.4184 
         550            0            0            0     -61.1461 
         550     0.013333 -0.000578498 -2.85255e-07     -61.1461 
         550     0.053333  -0.00173618 -4.89674e-06     -61.1461 
         550         0.12  -0.00285847 -2.62328e-05     -61.1461 
         550     0.213332  -0.00328113 -8.32404e-05     -61.1461 
         550     0.333332  -0.00289843 -0.000191028     -61.1461 
         550         0.48  -0.00213718 -0.000351005     -61.1461 
         550     0.653331  -0.00149601 -0.000552677     -61.1461 
         550     0.853332  -0.00119292 -0.000782417     -61.1461 
         550         1.08  -0.00114626  -0.00102678     -61.1461 
         550      1.33333  -0.00111997  -0.00127055     -61.1461 
         550      1.61333 -0.000958857  -0.00149832     -61.1461 
         550         1.92 -0.000718995  -0.00169891     -61.1461 
         550      2.25333 -0.000466182  -0.00186156     -61.1461 
         550      2.61333 -0.000219252  -0.00197415     -61.1461 
         550            3  1.38554e-05  -0.00202695      -61.146 
         600            0           -0           -0     -54.8723 
         600     0.013333  0.000625834  1.97331e-07     -54.8723 
         600     0.053333   0.00241536  3.87899e-06     -54.8723 
         600         0.12   0.00432906   2.3602e-05     -54.8723 
         600     0.213332   0.00543346  8.22357e-05     -54.8723 
         600     0.333332    0.0054396  0.000201006     -54.8723 
         600         0.48   0.00480882  0.000384931     -54.8723 
         600     0.653331   0.00419565  0.000622486     -54.8723 
         600     0.853332    0.0039152  0.000895292     -54.8723 
         600         1.08   0.00382579   0.00118211     -54.8723 
         600      1.33333   0.00357026   0.00146029     -54.8723 
         600      1.61333    0.0030162    0.0017135     -54.8723 
         600         1.92   0.00234329   0.00193503     -54.8723 
         600      2.25333   0.00163361   0.00211557     -54.8723 
         600      2.61333  0.000905591   0.00224206     -54.8724 
         600            3  0.000192213   0.00230322     -54.8724 
         650            0 -2.46117e-19 -3.19138e-27     -48.6035 
         650     0.013333 -0.000423667 -4.90345e-07     -48.6035 
         650     0.053333  -0.00112358 -7.80442e-06     -48.6035 
         650         0.12  -0.00157484 -3.80033e-05     -48.6035 
         650     0.213332  -0.00136514 -0.000109375     -48.6035 
         650     0.333332 -0.000687317 -0.000229099     -48.6035 
         650         0.48 -7.14996e-05 -0.000388654     -48.6035 
         650     0.653331  0.000122219 -0.000574073     -48.6035 
         650     0.853332 -0.000132009 -0.000775712     -48.6035 
         650         1.08 -0.000608465 -0.000983966     -48.6035 
         650      1.33333 -0.000922925   -0.0011812     -48.6035 
         650      1.61333 -0.000877897  -0.00135044     -48.6035 
         650         1.92 -0.000704684  -0.00148837     -48.6035 
         650      2.25333 -0.000545578  -0.00159314     -48.6035 
         650      2.61333 -0.000405887  -0.00165831     -48.6035 
         650            3 -0.000261143  -0.00167662     -48.6035 
         700            0 -9.55749e-20 -8.36812e-27     -42.3363 
         700     0.013333 -5.14458e-05  1.05284e-06     -42.3363 
         700     0.053333 -0.000270745  1.57651e-05     -42.3363 
         700         0.12  -0.00135833  7.08278e-05     -42.3363 
         700     0.213332  -0.00332984  0.000187529     -42.3363 
         700     0.333332   -0.0054534  0.000363897     -42.3363 
         700         0.48   -0.0069224   0.00057848     -42.3363 
         700     0.653331  -0.00747236  0.000811718     -42.3363 
         700     0.853332  -0.00724364   0.00105969     -42.3363 
         700         1.08  -0.00642205   0.00132663     -42.3363 
         700      1.33333   -0.0053096   0.00160432     -42.3363 
         700      1.61333  -0.00432436   0.00186819     -42.3363 
         700         1.92  -0.00352075   0.00209858     -42.3363 
         700      2.25333  -0.00268688   0.00228667     -42.3363 
         700      2.61333  -0.00176593   0.00242223     -42.3362 
         700            3 -0.000836758   0.00249385     -42.3362 
         750            0           -0           -0      -36.067 
         750     0.013333 -0.000339599 -4.73911e-07      -36.067 
         750     0.053333  -0.00085828 -7.12291e-06      -36.067 
         750         0.12  -0.00121771  -3.2264e-05      -36.067 
         750     0.213332  -0.00115665 -8.68227e-05      -36.067 
         750     0.333332 -0.000782322 -0.000173384      -36.067 
         750         0.48 -0.000347642 -0.000287867      -36.067 
         750     0.653331 -2.43265e-05  -0.00042711      -36.067 
         750     0.853332  7.75346e-05 -0.000593377      -36.067 
         750         1.08 -0.000151988 -0.000790888      -36.067 
         750      1.33333 -0.000630646  -0.00101364      -36.067 
         750      1.61333 -0.000982044  -0.00123881      -36.067 
         750         1.92  -0.00100513  -0.00144329      -36.067 
         750      2.25333  -0.00090566  -0.00161855      -36.067 
         750      2.61333 -0.000794765  -0.00175665      -36.067 
         750            3 -0.000661721  -0.00184869      -36.067 
         800            0            0            0     -29.8013 
         800     0.013333 -0.000678076  -3.2926e-07     -29.8013 
         800     0.053333  -0.00206559 -5.78004e-06     -29.8013 
         800         0.12  -0.00335894 -3.18291e-05     -29.8013 
         800     0.213332  -0.00368027 -0.000103659     -29.8013 
         800     0.333332  -0.00287463 -0.000242703     -29.8013 
         800         0.48  -0.00156966 -0.000451056     -29.8013 
         800     0.653331 -0.000540504  -0.00071157     -29.8013 
         800     0.853332 -0.000109055  -0.00100064     -29.8013 
         800         1.08 -6.97061e-05  -0.00129586     -29.8013 
         800      1.33333 -1.89743e-05  -0.00157828     -29.8013 
         800      1.61333  0.000173931  -0.00183861     -29.8013 
         800         1.92  0.000321354  -0.00207749     -29.8013 
         800      2.25333  0.000396891  -0.00228713     -29.8013 
         800      2.61333  0.000435641  -0.00245453     -29.8012 
         800            3  0.000453693  -0.00256594     -29.8012 
         850            0            0            0     -23.5321 
         850     0.013333   0.00123119 -3.97849e-07     -23.5321 
         850     0.053333   0.00478152 -4.36542e-06     -23.5321 
         850         0.12   0.00924557 -8.79959e-06     -23.5321 
         850     0.213332     0.012839   1.2086e-05     -23.5321 
         850     0.333332    0.0143691  9.95464e-05     -23.5321 
         850         0.48    0.0140471  0.000280683     -23.5321 
         850     0.653331        0.013  0.000549643     -23.5321 
         850     0.853332    0.0121116  0.000875293     -23.5321 
         850         1.08    0.0113941   0.00121606     -23.5321 
         850      1.33333    0.0103151   0.00153397     -23.5321 
         850      1.61333   0.00869498   0.00181198     -23.5321 
         850         1.92   0.00697303   0.00205865     -23.5322 
         850      2.25333   0.00527437   0.00227629     -23.5322 
         850      2.61333   0.00353613   0.00245313     -23.5323 
         850            3    0.0017442   0.00257385     -23.5325 
         900            0            0            0     -17.2779 
         900     0.013333 -0.000743861  1.51406e-06     -17.2779 
         900     0.053333    -0.002914  2.18455e-05     -17.2779 
         900         0.12  -0.00671237  9.27308e-05     -17.2779 
         900     0.213332   -0.0112711  0.000228517     -17.2779 
         900     0.333332    -0.015058  0.000408013     -17.2779 
         900         0.48   -0.0170894  0.000592159     -17.2779 
         900     0.653331   -0.0175266  0.000757805     -17.2779 
         900     0.853332     -0.01701  0.000912782     -17.2779 
         900         1.08   -0.0157961   0.00108539     -17.2779 
         900      1.33333   -0.0138337   0.00129637     -17.2779 
         900      1.61333   -0.0114648   0.00153428     -17.2779 
         900         1.92  -0.00931977   0.00176296     -17.2779 
         900      2.25333  -0.00729217   0.00196074     -17.2778 
         900      2.61333  -0.00517276   0.00211886     -17.2777 
         900            3  -0.00294805   0.00223052     -17.2776 
         950            0 -3.63235e-19  2.34053e-25     -11.0125 
         950     0.013333 -0.000733728 -1.03786e-06     -11.0125 
         950     0.053333  -0.00207843 -1.61188e-05     -11.0125 
         950         0.12  -0.00290002 -7.64316e-05     -11.0125 
         950     0.213332  -0.00236601 -0.000216036     -11.0125 
         950     0.333332 -0.000756893 -0.000449789     -11.0125 
         950         0.48  0.000950562 -0.000765917     -11.0125 
         950     0.653331   0.00198502  -0.00114179     -11.0125 
         950     0.853332   0.00212047  -0.00156331     -11.0125 
         950         1.08    0.0014636  -0.00202532     -11.0125 
         950      1.33333  0.000414658  -0.00251314     -11.0125 
         950      1.61333 -0.000362936  -0.00299225     -11.0125 
         950         1.92  -0.00053597  -0.00342686     -11.0125 
         950      2.25333 -0.000502001  -0.00380497     -11.0126 
         950      2.61333 -0.000493942    -0.004112     -11.0126 
         950            3 -0.000494023  -0.00432955     -11.0126 
        1000            0            0            0     -4.75339 
        1000     0.013333  0.000549406  7.30935e-08     -4.75339 
        1000     0.053333   0.00219074  1.83398e-06     -4.75339 
        1000         0.12   0.00405188  1.32725e-05     -4.75339 
        1000     0.213332    0.0052898  5.14545e-05     -4.75339 
        1000     0.333332   0.00553202  0.000134495     -4.75339 
        1000         0.48    0.0050869  0.000268873     -4.75339 
        1000     0.653331   0.00455321  0.000446903     -4.75338 
        1000     0.853332   0.00432356  0.000654527     -4.75338 
        1000         1.08    0.0043845  0.000875837     -4.75338 
        1000      1.33333   0.00436896   0.00109041     -4.75338 
        1000      1.61333   0.00392054    0.0012782     -4.75338 
        1000         1.92   0.00316057   0.00143513     -4.75339 
        1000      2.25333   0.00239782   0.00156728     -4.75341 
        1000      2.61333   0.00168712   0.00167313     -4.75344 
        1000            3  0.000954349   0.00174499     -4.75348 
