Variables = x, y, u, v, p

Zone, I=400, F=POINT
        1000            0  7.68408e-15  1.58318e-19            0 
        1000     0.000471  0.000125485  2.58545e-09  -8.2243e-19 
        1000     0.001884  0.000501953   1.0346e-08 -8.33872e-19 
        1000     0.004239   0.00112945   2.3319e-08 -1.96124e-19 
        1000     0.007537   0.00200831  4.16493e-08           -0 
        1000     0.011776   0.00313811  6.56669e-08 -4.95271e-19 
        1000     0.016958   0.00451951   9.6038e-08            0 
        1000     0.023081   0.00615213   1.3382e-07 -9.23779e-19 
        1000      0.03015   0.00803749  1.80604e-07 -7.20988e-19 
        1000     0.038157    0.0101737  2.38413e-07            0 
        1000     0.047107    0.0125623  3.09866e-07            0 
        1000     0.056999    0.0152032  3.98006e-07 -6.29123e-19 
        1000     0.067837     0.018098  5.06326e-07 -1.13278e-19 
        1000     0.079614    0.0212449  6.38548e-07  -5.1564e-19 
        1000     0.092332    0.0246449  7.98768e-07 -9.66085e-20 
        1000     0.105992    0.0282986  9.91356e-07 -1.59724e-19 
        1000       0.1206    0.0322081  1.22105e-06 -6.67606e-20 
        1000     0.136145    0.0363707  1.49262e-06 -6.78432e-19 
        1000     0.152631     0.040788   1.8114e-06 -7.26428e-19 
        1000     0.170067    0.0454628  2.18325e-06 -6.20428e-19 
        1000     0.188438    0.0503917  2.61389e-06 -6.70119e-20 
        1000     0.207751    0.0555769   3.1099e-06 -6.73845e-19 
        1000     0.228006    0.0610189  3.67808e-06  -1.5096e-19 
        1000     0.249212    0.0667207   4.3259e-06           -0 
        1000     0.271351    0.0726779  5.06032e-06            0 
        1000     0.294433    0.0788937  5.88945e-06           -0 
        1000     0.318456    0.0853681  6.82134e-06            0 
        1000     0.343432    0.0921048  7.86493e-06 -3.62863e-19 
        1000     0.369339    0.0990982    9.028e-06 -2.20909e-19 
        1000     0.396189     0.106352    1.032e-05           -0 
        1000     0.423981     0.113866  1.17501e-05 -1.75171e-19 
        1000     0.452726     0.121644  1.33284e-05 -1.32639e-19 
        1000     0.482403     0.129681  1.50637e-05           -0 
        1000     0.513021     0.137978  1.69663e-05           -0 
        1000     0.544594     0.146541  1.90476e-05 -1.42201e-19 
        1000     0.577096     0.155361  2.13164e-05           -0 
        1000     0.610541     0.164443  2.37839e-05 -5.46347e-20 
        1000     0.644927     0.173785   2.6462e-05            0 
        1000      0.68027     0.183392   2.9362e-05 -6.21029e-19 
        1000     0.716541     0.193255  3.24934e-05 -2.30138e-19 
        1000     0.753754     0.203377   3.5869e-05 -7.05359e-19 
        1000     0.791909     0.213757  3.95001e-05            0 
        1000     0.831022     0.224398     4.34e-05  -2.7883e-20 
        1000     0.871061      0.23529  4.75771e-05           -0 
        1000     0.912043     0.246436  5.20452e-05           -0 
        1000     0.953966     0.257832  5.68162e-05 -8.82004e-20 
        1000     0.996849     0.269482  6.19043e-05            0 
        1000      1.04066     0.281373  6.73166e-05 -7.38008e-19 
        1000      1.08541     0.293506  7.30665e-05           -0 
        1000      1.13112     0.305883  7.91674e-05           -0 
        1000      1.17775     0.318489  8.56259e-05 -5.07142e-19 
        1000      1.22533     0.331323  9.24564e-05            0 
        1000      1.27384     0.344382  9.96719e-05 -1.79302e-19 
        1000      1.32333     0.357663  0.000107287            0 
        1000      1.37373     0.371149   0.00011529 -3.24141e-19 
        1000      1.42507     0.384839  0.000123687 -3.47396e-19 
        1000      1.47736     0.398724  0.000132512           -0 
        1000      1.53061       0.4128  0.000141779 -2.31484e-19 
        1000      1.58478     0.427047  0.000151483 -1.88519e-19 
        1000      1.63989      0.44146  0.000161624            0 
        1000      1.69595     0.456027  0.000172198 -8.72298e-20 
        1000      1.75297      0.47074  0.000183209           -0 
        1000      1.81091     0.485577  0.000194652           -0 
        1000      1.86979     0.500527  0.000206536           -0 
        1000      1.92964     0.515582  0.000218872            0 
        1000       1.9904     0.530713  0.000231652 -2.24096e-19 
        1000      2.05211     0.545909  0.000244878 -4.88839e-19 
        1000      2.11476     0.561152  0.000258539  -3.4682e-19 
        1000      2.17838     0.576429  0.000272623           -0 
        1000      2.24291     0.591707  0.000287098           -0 
        1000      2.30839     0.606971  0.000301945           -0 
        1000       2.3748       0.6222  0.000317149 -3.57212e-19 
        1000      2.44219     0.637377  0.000332707 -3.00895e-19 
        1000      2.51049     0.652467   0.00034861 -1.66682e-19 
        1000      2.57974     0.667451  0.000364864           -0 
        1000      2.64993     0.682306  0.000381439           -0 
        1000      2.72108     0.697012  0.000398217 -4.03779e-19 
        1000      2.79315     0.711533  0.000415103 -5.47846e-19 
        1000      2.86617     0.725849  0.000432232 -4.92871e-19 
        1000      2.94012     0.739935  0.000449529 -4.53875e-19 
        1000      3.01505     0.753772  0.000466962 -4.27006e-19 
        1000      3.09089     0.767323  0.000484471 -4.09004e-19 
        1000      3.16767     0.780571  0.000502014 -3.97116e-19 
        1000      3.24542     0.793497  0.000519544 -3.89108e-19 
        1000      3.32409     0.806069  0.000536999 -3.83235e-19 
        1000       3.4037     0.818271  0.000554338 -3.78174e-19 
        1000      3.48425     0.830082  0.000571518 -3.72996e-19 
        1000      3.56577      0.84149  0.000588502 -3.67105e-19 
        1000       3.6482     0.852469  0.000605238  -3.6019e-19 
        1000      3.73158     0.863009   0.00062169 -3.52158e-19 
        1000       3.8159     0.873097  0.000637818 -3.43082e-19 
        1000      3.90119     0.882726  0.000653585 -3.33143e-19 
        1000       3.9874     0.891882  0.000668934 -3.22598e-19 
        1000      4.07454     0.900562  0.000683829 -3.11711e-19 
        1000      4.16263     0.908763   0.00069823 -3.00743e-19 
        1000      4.25169     0.916489   0.00071211 -2.89926e-19 
        1000      4.34166     0.923734  0.000725434 -2.79489e-19 
        1000      4.43258     0.930506  0.000738192 -2.69661e-19 
        1000      4.52447     0.936815  0.000750385 -2.60742e-19 
        1000      4.61726     0.942664  0.000761999 -2.53208e-19 
        1000        4.711     0.948068   0.00077302 -2.47825e-19 
        1000      4.80569      0.95304  0.000783384 -2.45851e-19 
        1000      4.90135     0.957597  0.000792936 -2.49271e-19 
        1000      4.99791     0.961752  0.000802576  -1.9035e-19 
        1000      5.09542     0.965526  0.000811242 -2.27584e-19 
        1000      5.19387     0.968937  0.000819074 -2.51259e-19 
        1000       5.2933     0.972008  0.000826355 -2.69006e-19 
        1000      5.39364     0.974757  0.000833192 -2.85907e-19 
        1000      5.49491     0.977207  0.000839601 -3.04917e-19 
        1000      5.59713     0.979379  0.000845554 -3.27248e-19 
        1000      5.70033     0.981296  0.000851023 -3.52796e-19 
        1000      5.80443     0.982978   0.00085599 -3.80512e-19 
        1000      5.90948     0.984446  0.000860475 -4.08861e-19 
        1000      6.01551     0.985721  0.000864521 -4.36174e-19 
        1000      6.12244     0.986822  0.000868187 -4.60956e-19 
        1000      6.23031     0.987766  0.000871541  -4.8225e-19 
        1000      6.33912     0.988573  0.000874644 -4.99827e-19 
        1000      6.44892     0.989257  0.000877542 -5.14359e-19 
        1000      6.55962     0.989835  0.000880254  -5.2746e-19 
        1000      6.67126     0.990318  0.000882782 -5.41666e-19 
        1000      6.78384     0.990722  0.000885114 -5.60219e-19 
        1000      6.89741     0.991056  0.000887242 -5.86737e-19 
        1000      7.01187     0.991331  0.000889171 -6.24638e-19 
        1000      7.12728     0.991555  0.000890946 -6.76456e-19 
        1000      7.24363     0.991737  0.000892642  -7.4282e-19 
        1000      7.36097     0.991884  0.000894349 -8.21244e-19 
        1000       7.4792     0.992001    0.0008961 -9.04435e-19 
        1000      7.59838     0.992094  0.000897739 -9.78592e-19 
        1000      7.71854     0.992169  0.000898322            0 
        1000       7.8396     0.992227  0.000899486           -0 
        1000      7.96161     0.992272  0.000901121           -0 
        1000      8.08455     0.992307    0.0009028            0 
        1000      8.20849     0.992333  0.000904343            0 
        1000      8.33332     0.992354  0.000905722            0 
        1000      8.45909     0.992369  0.000906993            0 
        1000       8.5858     0.992381  0.000908235           -0 
        1000      8.71351     0.992389  0.000909519           -0 
        1000       8.8421     0.992396  0.000910887           -0 
        1000      8.97164     0.992401  0.000912348           -0 
        1000      9.10212     0.992404  0.000913881            0 
        1000       9.2336     0.992407  0.000915444            0 
        1000      9.36596     0.992408  0.000916991            0 
        1000      9.49927      0.99241  0.000918485            0 
        1000      9.63352     0.992411  0.000919906           -0 
        1000      9.76877     0.992412  0.000921265           -0 
        1000       9.9049     0.992413  0.000922595           -0 
        1000       10.042     0.992414  0.000923949           -0 
        1000      10.1801     0.992414  0.000925384            0 
        1000       10.319     0.992414  0.000926935            0 
        1000      10.4589     0.992414    0.0009286            0 
        1000      10.5998     0.992414  0.000930312           -0 
        1000      10.7416     0.992414  0.000931941           -0 
        1000      10.8843     0.992414    0.0009333           -0 
        1000       11.028     0.992416  0.000934208            0 
        1000      11.1726     0.992418  0.000935279            0 
        1000      11.3182     0.992417  0.000937161           -0 
        1000      11.4647     0.992417   0.00093919           -0 
        1000      11.6122     0.992416  0.000941074            0 
        1000      11.7605     0.992416   0.00094275            0 
        1000      11.9099     0.992417  0.000944273            0 
        1000      12.0602     0.992417   0.00094573            0 
        1000      12.2114     0.992418    0.0009472           -0 
        1000      12.3636     0.992419  0.000948732           -0 
        1000      12.5167     0.992419  0.000950332           -0 
        1000      12.6707     0.992419  0.000951981           -0 
        1000      12.8257     0.992419  0.000953645            0 
        1000      12.9817     0.992419  0.000955295            0 
        1000      13.1386     0.992419  0.000956916            0 
        1000      13.2964      0.99242   0.00095852            0 
        1000      13.4551      0.99242  0.000960141            0 
        1000      13.6149     0.992421  0.000961827           -0 
        1000      13.7755     0.992421  0.000963613           -0 
        1000      13.9371     0.992422  0.000965507           -0 
        1000      14.0996     0.992422  0.000967466           -0 
        1000      14.2631     0.992422  0.000969388            0 
        1000      14.4275     0.992422  0.000971134            0 
        1000      14.5928     0.992422  0.000972602            0 
        1000      14.7592     0.992421  0.000973869           -0 
        1000      14.9264     0.992422  0.000975443           -0 
        1000      15.0946     0.992425  0.000978652           -0 
        1000      15.2637      0.99243  0.000986237            0 
        1000      15.4338     0.992423  0.000977478            0 
        1000      15.6048     0.992422  0.000977282           -0 
        1000      15.7767     0.992423  0.000981351           -0 
        1000      15.9496     0.992425  0.000986018           -0 
        1000      16.1235     0.992426  0.000989683            0 
        1000      16.2982     0.992426  0.000992003            0 
        1000      16.4739     0.992426  0.000993305            0 
        1000      16.6506     0.992426  0.000994158            0 
        1000      16.8282     0.992426  0.000995098           -0 
        1000      17.0068     0.992427  0.000996479           -0 
        1000      17.1862     0.992428  0.000998426           -0 
        1000      17.3667     0.992428   0.00100085           -0 
        1000      17.5481     0.992429   0.00100353            0 
        1000      17.7304     0.992429   0.00100616            0 
        1000      17.9136     0.992428   0.00100852            0 
        1000      18.0979     0.992428   0.00101045            0 
        1000       18.283     0.992427   0.00101196            0 
        1000      18.4691     0.992427   0.00101323           -0 
        1000      18.6561     0.992427    0.0010145           -0 
        1000      18.8441     0.992429   0.00101609           -0 
        1000       19.033     0.992432   0.00101817           -0 
        1000      19.2228     0.992435   0.00102078            0 
        1000      19.4136     0.992437   0.00102366            0 
        1000      19.6054     0.992437   0.00102632            0 
        1000       19.798     0.992434   0.00102821            0 
        1000      19.9917     0.992427   0.00102915           -0 
        1000      20.1862      0.99242   0.00103007           -0 
        1000      20.3818     0.992421   0.00103432            0 
        1000      20.5782     0.992446    0.0010495            0 
        1000      20.7756     0.992438   0.00103329 -1.58291e-20 
        1000       20.974     0.992434   0.00102831 -9.64884e-21 
        1000      21.1732     0.992434    0.0010306 -5.73467e-21 
        1000      21.3734     0.992435   0.00103647 -3.43115e-21 
        1000      21.5745     0.992437   0.00104331 -2.22331e-21 
        1000      21.7767     0.992438   0.00104945  -1.7163e-21 
        1000      21.9797     0.992438   0.00105405 -1.61907e-21 
        1000      22.1837     0.992437   0.00105688 -1.72695e-21 
        1000      22.3886     0.992436   0.00105816 -1.90686e-21 
        1000      22.5945     0.992435   0.00105841 -2.08217e-21 
        1000      22.8013     0.992434   0.00105826 -2.21845e-21 
        1000      23.0091     0.992433   0.00105834 -2.31109e-21 
        1000      23.2177     0.992433   0.00105914 -2.37346e-21 
        1000      23.4274     0.992435   0.00106096 -2.42697e-21 
        1000       23.638     0.992437   0.00106386 -2.49268e-21 
        1000      23.8495     0.992439   0.00106766 -2.58492e-21 
        1000       24.062     0.992441   0.00107198 -2.70693e-21 
        1000      24.2754     0.992443   0.00107629 -2.84869e-21 
        1000      24.4897     0.992444   0.00108005 -2.98775e-21 
        1000       24.705     0.992444   0.00108279 -3.09245e-21 
        1000      24.9213     0.992443   0.00108427 -3.12841e-21 
        1000      25.1385     0.992441   0.00108455 -3.06829e-21 
        1000      25.3566     0.992438   0.00108408 -2.90534e-21 
        1000      25.5756     0.992436   0.00108368 -2.67067e-21 
        1000      25.7957     0.992434   0.00108444 -2.45473e-21 
        1000      26.0166     0.992435   0.00108749 -2.43387e-21 
        1000      26.2385     0.992438   0.00109347 -2.90066e-21 
        1000      26.4613     0.992443    0.0011019 -4.30056e-21 
        1000      26.6851     0.992449   0.00111008 -7.27514e-21 
        1000      26.9098     0.992449   0.00111162 -1.27046e-20 
        1000      27.1354     0.992434   0.00109454 -2.17686e-20 
        1000      27.3621     0.992443   0.00109831            0 
        1000      27.5896     0.992455   0.00111073           -0 
        1000      27.8181     0.992456   0.00111395           -0 
        1000      28.0475     0.992451   0.00111337           -0 
        1000      28.2779     0.992444   0.00111223           -0 
        1000      28.5092      0.99244   0.00111219            0 
        1000      28.7414     0.992437   0.00111385            0 
        1000      28.9746     0.992438    0.0011171            0 
        1000      29.2088      0.99244   0.00112147            0 
        1000      29.4439     0.992443   0.00112634           -0 
        1000      29.6799     0.992447   0.00113113           -0 
        1000      29.9168      0.99245   0.00113537           -0 
        1000      30.1548     0.992452   0.00113879           -0 
        1000      30.3936     0.992453    0.0011413           -0 
        1000      30.6334     0.992452   0.00114302           -0 
        1000      30.8742     0.992451   0.00114418            0 
        1000      31.1158     0.992448    0.0011451            0 
        1000      31.3584     0.992446   0.00114614            0 
        1000       31.602     0.992444   0.00114761            0 
        1000      31.8465     0.992443   0.00114973            0 
        1000      32.0919     0.992444   0.00115259           -0 
        1000      32.3383     0.992447   0.00115614           -0 
        1000      32.5856      0.99245   0.00116021           -0 
        1000       32.834     0.992455   0.00116447           -0 
        1000      33.0831     0.992459   0.00116855           -0 
        1000      33.3333     0.992461   0.00117207           -0 
        1000      33.5843     0.992461   0.00117474            0 
        1000      33.8364     0.992457   0.00117644            0 
        1000      34.0894     0.992449   0.00117728            0 
        1000      34.3433     0.992438   0.00117772            0 
        1000      34.5981     0.992427   0.00117855           -0 
        1000       34.854     0.992423   0.00118088           -0 
        1000      35.1107     0.992436     0.001186           -0 
        1000      35.3684     0.992481   0.00119518            0 
        1000      35.6271     0.992504   0.00120594            0 
        1000      35.8867     0.992473    0.0012084            0 
        1000      36.1472     0.992455   0.00120637           -0 
        1000      36.4086     0.992446   0.00120299           -0 
        1000      36.6711     0.992443    0.0012002           -0 
        1000      36.9344     0.992444   0.00119902            0 
        1000      37.1987     0.992446   0.00119981            0 
        1000      37.4639      0.99245   0.00120246            0 
        1000      37.7301     0.992453   0.00120659            0 
        1000      37.9972     0.992455   0.00121168            0 
        1000      38.2652     0.992457   0.00121717           -0 
        1000      38.5342     0.992459   0.00122256           -0 
        1000      38.8042      0.99246   0.00122746           -0 
        1000      39.0751      0.99246   0.00123161           -0 
        1000      39.3469     0.992461   0.00123488           -0 
        1000      39.6197     0.992461   0.00123731           -0 
        1000      39.8934     0.992462   0.00123904            0 
        1000       40.168     0.992462   0.00124031            0 
        1000      40.4436     0.992463   0.00124142            0 
        1000      40.7202     0.992463   0.00124268            0 
        1000      40.9977     0.992463   0.00124437            0 
        1000      41.2761     0.992462   0.00124674            0 
        1000      41.5554      0.99246   0.00124991           -0 
        1000      41.8358     0.992458    0.0012539           -0 
        1000       42.117     0.992456   0.00125862           -0 
        1000      42.3992     0.992453   0.00126382           -0 
        1000      42.6823     0.992451   0.00126918           -0 
        1000      42.9664     0.992451    0.0012743           -0 
        1000      43.2514     0.992452   0.00127874            0 
        1000      43.5373     0.992457   0.00128214            0 
        1000      43.8243     0.992465    0.0012843            0 
        1000      44.1121     0.992477   0.00128527            0 
        1000      44.4009      0.99249    0.0012855            0 
        1000      44.6906     0.992502   0.00128601           -0 
        1000      44.9813     0.992506   0.00128852           -0 
        1000      45.2729     0.992493   0.00129566           -0 
        1000      45.5654     0.992448   0.00131112            0 
        1000      45.8589      0.99235   0.00133991            0 
        1000      46.1534     0.992401   0.00129702   -3.881e-18 
        1000      46.4488     0.992443   0.00128481 -2.91805e-18 
        1000      46.7451     0.992473   0.00128919 -2.17615e-18 
        1000      47.0423     0.992491   0.00130034 -1.60923e-18 
        1000      47.3406     0.992498   0.00131229 -1.17839e-18 
        1000      47.6397     0.992496   0.00132189 -8.51888e-19 
        1000      47.9398     0.992489   0.00132795 -6.03395e-19 
        1000      48.2409      0.99248   0.00133062 -4.12047e-19 
        1000      48.5428     0.992469   0.00133073 -2.61868e-19 
        1000      48.8457     0.992461   0.00132947   -1.407e-19 
        1000      49.1496     0.992454   0.00132804 -3.99174e-20 
        1000      49.4545     0.992451   0.00132744  4.62658e-20 
        1000      49.7602     0.992451   0.00132837  1.21223e-19 
        1000      50.0668     0.992453   0.00133116  1.86639e-19 
        1000      50.3744     0.992457   0.00133579  2.42864e-19 
        1000      50.6831     0.992462   0.00134196  2.89417e-19 
        1000      50.9926     0.992467   0.00134911  3.25333e-19 
        1000       51.303     0.992471   0.00135658  3.49651e-19 
        1000      51.6144     0.992474   0.00136369  3.61655e-19 
        1000      51.9268     0.992475    0.0013698  3.61174e-19 
        1000        52.24     0.992474   0.00137447  3.48809e-19 
        1000      52.5542     0.992471   0.00137744  3.26092e-19 
        1000      52.8694     0.992468   0.00137874  2.95589e-19 
        1000      53.1856     0.992464   0.00137863  2.60921e-19 
        1000      53.5026     0.992461   0.00137762  2.26787e-19 
        1000      53.8205      0.99246   0.00137639  1.98771e-19 
        1000      54.1396     0.992461   0.00137569  1.83203e-19 
        1000      54.4594     0.992465   0.00137624   1.8689e-19 
        1000      54.7802     0.992471   0.00137861  2.16719e-19 
        1000      55.1019     0.992479   0.00138307  2.79225e-19 
        1000      55.4247     0.992488   0.00138953  3.80076e-19 
        1000      55.7483     0.992494   0.00139739  5.23236e-19 
        1000      56.0729     0.992496   0.00140561  7.10432e-19 
        1000      56.3984     0.992492   0.00141278   9.4012e-19 
        1000       56.725     0.992479   0.00141729  1.20662e-18 
        1000      57.0523     0.992458   0.00141777  1.49855e-18 
        1000      57.3807     0.992433   0.00141371  1.79818e-18 
        1000      57.7099     0.992411   0.00140631  2.07961e-18 
        1000      58.0403     0.992408   0.00139971  2.30741e-18 
        1000      58.3714      0.99245   0.00140265  2.43452e-18 
        1000      58.7035     0.992578   0.00143054  2.40102e-18 
        1000      59.0367     0.992441   0.00144502            0 
        1000      59.3707     0.992358   0.00144718            0 
        1000      59.7056     0.992414   0.00145386           -0 
        1000      60.0414      0.99251   0.00146149           -0 
        1000      60.3784     0.992592   0.00146802           -0 
        1000      60.7161     0.992634   0.00147253           -0 
        1000      61.0548     0.992629   0.00147486            0 
        1000      61.3944     0.992585   0.00147537            0 
        1000      61.7351     0.992516   0.00147467            0 
        1000      62.0767     0.992439   0.00147348            0 
        1000      62.4191     0.992368    0.0014725            0 
        1000      62.7625     0.992315   0.00147228            0 
        1000       63.107      0.99229   0.00147323           -0 
        1000      63.4523     0.992294   0.00147557           -0 
        1000      63.7985     0.992327   0.00147929           -0 
        1000      64.1458     0.992382   0.00148425           -0 
        1000      64.4939     0.992452   0.00149015           -0 
        1000       64.843     0.992526   0.00149658           -0 
        1000      65.1929     0.992595   0.00150311           -0 
        1000       65.544     0.992648    0.0015093           -0 
        1000      65.8959     0.992679   0.00151477            0 
        1000      66.2487     0.992682    0.0015192            0 
        1000      66.6025     0.992657   0.00152244            0 
        1000      66.9573     0.992606   0.00152445            0 
        1000       67.313     0.992534   0.00152535            0 
        1000      67.6695     0.992452   0.00152541            0 
        1000      68.0271     0.992369   0.00152502            0 
        1000      68.3857     0.992299   0.00152467           -0 
        1000      68.7451     0.992252   0.00152486           -0 
        1000      69.1055     0.992239   0.00152613           -0 
        1000      69.4669     0.992263   0.00152891           -0 
        1000      69.8291     0.992326   0.00153347           -0 
        1000      70.1923      0.99242    0.0015399           -0 
        1000      70.5564     0.992533   0.00154803           -0 
        1000      70.9217     0.992645   0.00155738            0 
        1000      71.2877     0.992733   0.00156719            0 
        1000      71.6546     0.992771   0.00157643            0 
        1000      72.0225     0.992742   0.00158389            0 
        1000      72.3915     0.992639   0.00158838            0 
        1000      72.7613     0.992482   0.00158892            0 
        1000       73.132     0.992335   0.00158514           -0 
        1000      73.5036     0.992323   0.00157773           -0 
        1000      73.8764     0.992661    0.0015691           -0 
        1000      74.2499     0.993684   0.00156417           -0 
        1000      74.6244     0.995893    0.0015714            0 
        1000           75            1   0.00160405            0 
