Variables = x, y, u, v, p

Zone, I=400, F=POINT
         250            0  2.10131e-18   3.8531e-29  -0.00650169 
         250     0.000471  0.000200984  4.32747e-11  -0.00650169 
         250     0.001884  0.000803943  6.92346e-10  -0.00650169 
         250     0.004239    0.0018089   3.5049e-09  -0.00650169 
         250     0.007537   0.00321633  1.10799e-08  -0.00650168 
         250     0.011776   0.00502542  2.70469e-08  -0.00650168 
         250     0.016958   0.00723711  5.60857e-08  -0.00650168 
         250     0.023081   0.00985062  1.03894e-07  -0.00650168 
         250      0.03015    0.0128682  1.77267e-07  -0.00650168 
         250     0.038157    0.0162865  2.83903e-07  -0.00650167 
         250     0.047107    0.0201079  4.32672e-07  -0.00650167 
         250     0.056999     0.024332  6.33409e-07  -0.00650166 
         250     0.067837    0.0289607  8.97099e-07  -0.00650166 
         250     0.079614    0.0339912  1.23549e-06  -0.00650166 
         250     0.092332    0.0394245  1.66155e-06  -0.00650165 
         250     0.105992    0.0452612  2.18928e-06  -0.00650165 
         250       0.1206     0.051504  2.83392e-06  -0.00650164 
         250     0.136145    0.0581483  3.61101e-06  -0.00650163 
         250     0.152631     0.065196  4.53773e-06  -0.00650163 
         250     0.170067     0.072651  5.63265e-06  -0.00650162 
         250     0.188438     0.080507  6.91386e-06  -0.00650161 
         250     0.207751    0.0887669  8.40181e-06  -0.00650161 
         250     0.228006    0.0974306  1.01175e-05   -0.0065016 
         250     0.249212     0.106502  1.20836e-05  -0.00650159 
         250     0.271351     0.115973  1.43216e-05  -0.00650158 
         250     0.294433     0.125847   1.6856e-05  -0.00650157 
         250     0.318456     0.136123  1.97114e-05  -0.00650156 
         250     0.343432     0.146805  2.29149e-05  -0.00650155 
         250     0.369339     0.157883  2.64901e-05  -0.00650154 
         250     0.396189      0.16936  3.04656e-05  -0.00650153 
         250     0.423981     0.181234  3.48692e-05  -0.00650152 
         250     0.452726     0.193509  3.97315e-05  -0.00650151 
         250     0.482403     0.206172   4.5078e-05   -0.0065015 
         250     0.513021     0.219225  5.09398e-05  -0.00650149 
         250     0.544594      0.23267  5.73496e-05  -0.00650148 
         250     0.577096     0.246491  6.43328e-05  -0.00650146 
         250     0.610541     0.260689  7.19228e-05  -0.00650145 
         250     0.644927     0.275259  8.01488e-05  -0.00650144 
         250      0.68027     0.290201  8.90458e-05  -0.00650142 
         250     0.716541     0.305493  9.86364e-05  -0.00650141 
         250     0.753754     0.321135  0.000108953  -0.00650139 
         250     0.791909     0.337116  0.000120025  -0.00650138 
         250     0.831022     0.353432  0.000131884  -0.00650136 
         250     0.871061     0.370058  0.000144546  -0.00650135 
         250     0.912043     0.386985  0.000158041  -0.00650133 
         250     0.953966     0.404199   0.00017239  -0.00650131 
         250     0.996849      0.42169   0.00018762  -0.00650129 
         250      1.04066     0.439425  0.000203735  -0.00650128 
         250      1.08541      0.45739  0.000220755  -0.00650126 
         250      1.13112     0.475569  0.000238696  -0.00650124 
         250      1.17775     0.493925  0.000257552  -0.00650122 
         250      1.22533     0.512436  0.000277328  -0.00650119 
         250      1.27384     0.531075   0.00029802  -0.00650117 
         250      1.32333     0.549817  0.000319624  -0.00650115 
         250      1.37373     0.568616  0.000342115  -0.00650113 
         250      1.42507     0.587442  0.000365474   -0.0065011 
         250      1.47736     0.606259  0.000389668  -0.00650108 
         250      1.53061     0.625035  0.000414669  -0.00650105 
         250      1.58478     0.643715  0.000440413  -0.00650102 
         250      1.63989     0.662264  0.000466857  -0.00650099 
         250      1.69595     0.680638  0.000493941  -0.00650096 
         250      1.75297     0.698798  0.000521606  -0.00650093 
         250      1.81091     0.716687  0.000549752   -0.0065009 
         250      1.86979     0.734264  0.000578302  -0.00650087 
         250      1.92964     0.751492  0.000607175  -0.00650083 
         250       1.9904      0.76831  0.000636246  -0.00650079 
         250      2.05211     0.784682   0.00066542  -0.00650075 
         250      2.11476     0.800565  0.000694584  -0.00650071 
         250      2.17838     0.815925  0.000723637  -0.00650067 
         250      2.24291     0.830711  0.000752438  -0.00650062 
         250      2.30839     0.844895   0.00078088  -0.00650058 
         250       2.3748     0.858445  0.000808844  -0.00650053 
         250      2.44219      0.87134  0.000836222  -0.00650047 
         250      2.51049     0.883546  0.000862876  -0.00650041 
         250      2.57974     0.895053  0.000888705  -0.00650035 
         250      2.64993     0.905847  0.000913602  -0.00650029 
         250      2.72108     0.915925   0.00093749  -0.00650025 
         250      2.79315      0.92528  0.000960298  -0.00650019 
         250      2.86617     0.933919   0.00098195  -0.00650011 
         250      2.94012     0.941853   0.00100239  -0.00650003 
         250      3.01505       0.9491   0.00102158  -0.00649997 
         250      3.09089     0.955674   0.00103944  -0.00649991 
         250      3.16767     0.961604   0.00105597  -0.00649986 
         250      3.24542      0.96692   0.00107118   -0.0064998 
         250      3.32409      0.97165   0.00108508  -0.00649974 
         250       3.4037     0.975833   0.00109773  -0.00649968 
         250      3.48425     0.979506   0.00110918  -0.00649963 
         250      3.56577     0.982709    0.0011195   -0.0064996 
         250       3.6482      0.98548   0.00112871  -0.00649962 
         250      3.73158     0.987858   0.00113681   -0.0064996 
         250       3.8159     0.989886   0.00114392  -0.00649954 
         250      3.90119     0.991599    0.0011502  -0.00649946 
         250       3.9874     0.993035   0.00115573  -0.00649938 
         250      4.07454     0.994228   0.00116022  -0.00649928 
         250      4.16263     0.995211   0.00116446  -0.00649919 
         250      4.25169     0.996015   0.00116787  -0.00649907 
         250      4.34166     0.996664   0.00117072  -0.00649902 
         250      4.43258     0.997185   0.00117333  -0.00649888 
         250      4.52447     0.997599   0.00117556  -0.00649878 
         250      4.61726     0.997924   0.00117738  -0.00649872 
         250        4.711     0.998177    0.0011789  -0.00649867 
         250      4.80569     0.998373   0.00118022   -0.0064986 
         250      4.90135     0.998522   0.00118142  -0.00649852 
         250      4.99791     0.998634   0.00118255  -0.00649842 
         250      5.09542     0.998718   0.00118357  -0.00649833 
         250      5.19387     0.998779   0.00118447  -0.00649824 
         250       5.2933     0.998825   0.00118524  -0.00649816 
         250      5.39364     0.998858   0.00118594   -0.0064981 
         250      5.49491     0.998882    0.0011867  -0.00649805 
         250      5.59713     0.998898   0.00118749  -0.00649798 
         250      5.70033     0.998909   0.00118803   -0.0064979 
         250      5.80443     0.998917   0.00118881  -0.00649782 
         250      5.90948     0.998922   0.00118935  -0.00649771 
         250      6.01551     0.998926   0.00119004  -0.00649761 
         250      6.12244     0.998929   0.00119082  -0.00649753 
         250      6.23031      0.99893   0.00119153  -0.00649747 
         250      6.33912     0.998931   0.00119214  -0.00649739 
         250      6.44892     0.998932   0.00119282  -0.00649728 
         250      6.55962     0.998933   0.00119344  -0.00649717 
         250      6.67126     0.998933   0.00119416  -0.00649705 
         250      6.78384     0.998933   0.00119485  -0.00649695 
         250      6.89741     0.998933   0.00119554  -0.00649687 
         250      7.01187     0.998934   0.00119625   -0.0064968 
         250      7.12728     0.998934   0.00119697  -0.00649672 
         250      7.24363     0.998934    0.0011977  -0.00649663 
         250      7.36097     0.998934    0.0011984  -0.00649654 
         250       7.4792     0.998934    0.0011991  -0.00649645 
         250      7.59838     0.998935   0.00119981  -0.00649637 
         250      7.71854     0.998934   0.00120058  -0.00649627 
         250       7.8396     0.998935   0.00120131  -0.00649616 
         250      7.96161     0.998935   0.00120204  -0.00649605 
         250      8.08455     0.998935   0.00120276  -0.00649596 
         250      8.20849     0.998935   0.00120349   -0.0064959 
         250      8.33332     0.998935   0.00120422  -0.00649584 
         250      8.45909     0.998936   0.00120498  -0.00649576 
         250       8.5858     0.998936   0.00120576  -0.00649566 
         250      8.71351     0.998936   0.00120658  -0.00649553 
         250       8.8421     0.998937   0.00120738   -0.0064954 
         250      8.97164     0.998937   0.00120801  -0.00649537 
         250      9.10212     0.998936   0.00120889  -0.00649519 
         250       9.2336     0.998936   0.00120968  -0.00649508 
         250      9.36596     0.998937   0.00121048  -0.00649502 
         250      9.49927     0.998937   0.00121133  -0.00649494 
         250      9.63352     0.998938   0.00121218  -0.00649484 
         250      9.76877     0.998937     0.001213  -0.00649472 
         250       9.9049     0.998937    0.0012138  -0.00649461 
         250       10.042     0.998937   0.00121465  -0.00649452 
         250      10.1801     0.998938   0.00121558  -0.00649444 
         250       10.319     0.998937    0.0012162  -0.00649435 
         250      10.4589     0.998939   0.00121718  -0.00649423 
         250      10.5998     0.998939   0.00121803  -0.00649409 
         250      10.7416     0.998938   0.00121883  -0.00649396 
         250      10.8843     0.998938   0.00121969  -0.00649384 
         250       11.028     0.998939   0.00122059  -0.00649374 
         250      11.1726     0.998939   0.00122149  -0.00649366 
         250      11.3182      0.99894   0.00122237  -0.00649358 
         250      11.4647      0.99894   0.00122324  -0.00649349 
         250      11.6122      0.99894   0.00122412   -0.0064934 
         250      11.7605      0.99894   0.00122506  -0.00649328 
         250      11.9099      0.99894   0.00122605  -0.00649315 
         250      12.0602      0.99894   0.00122708    -0.006493 
         250      12.2114      0.99894   0.00122807  -0.00649283 
         250      12.3636      0.99894   0.00122893  -0.00649265 
         250      12.5167      0.99894   0.00122964  -0.00649249 
         250      12.6707      0.99894   0.00123026  -0.00649237 
         250      12.8257     0.998941   0.00123109  -0.00649234 
         250      12.9817     0.998942   0.00123274  -0.00649245 
         250      13.1386     0.998942   0.00123377  -0.00649245 
         250      13.2964     0.998942   0.00123431   -0.0064923 
         250      13.4551     0.998941   0.00123475  -0.00649211 
         250      13.6149     0.998941   0.00123584  -0.00649217 
         250      13.7755     0.998942   0.00123743  -0.00649214 
         250      13.9371     0.998943   0.00123877   -0.0064919 
         250      14.0996     0.998943   0.00123974   -0.0064915 
         250      14.2631     0.998943    0.0012404  -0.00649134 
         250      14.4275     0.998943   0.00124106  -0.00649126 
         250      14.5928     0.998943   0.00124203  -0.00649119 
         250      14.7592     0.998943   0.00124334  -0.00649111 
         250      14.9264     0.998943    0.0012448  -0.00649099 
         250      15.0946     0.998943   0.00124611  -0.00649086 
         250      15.2637     0.998943   0.00124707  -0.00649073 
         250      15.4338     0.998944   0.00124771  -0.00649059 
         250      15.6048     0.998944   0.00124826  -0.00649047 
         250      15.7767     0.998944   0.00124909  -0.00649036 
         250      15.9496     0.998944   0.00125042  -0.00649025 
         250      16.1235     0.998944   0.00125209  -0.00649015 
         250      16.2982     0.998945   0.00125355  -0.00649005 
         250      16.4739     0.998947   0.00125415  -0.00648996 
         250      16.6506     0.998948   0.00125429  -0.00648988 
         250      16.8282     0.998944   0.00125776   -0.0064898 
         250      17.0068     0.998941   0.00125623  -0.00648951 
         250      17.1862     0.998948    0.0012583  -0.00648921 
         250      17.3667     0.998951    0.0012596  -0.00648905 
         250      17.5481     0.998948   0.00126005    -0.006489 
         250      17.7304     0.998945   0.00126071  -0.00648901 
         250      17.9136     0.998944   0.00126209    -0.006489 
         250      18.0979     0.998944    0.0012639  -0.00648891 
         250       18.283     0.998946   0.00126547  -0.00648874 
         250      18.4691     0.998948   0.00126642  -0.00648851 
         250      18.6561     0.998948   0.00126695  -0.00648827 
         250      18.8441     0.998948   0.00126773  -0.00648805 
         250       19.033     0.998949   0.00126926  -0.00648788 
         250      19.2228     0.998949   0.00127115  -0.00648775 
         250      19.4136     0.998949   0.00127186  -0.00648762 
         250      19.6054     0.998947   0.00127264  -0.00648782 
         250       19.798     0.998947   0.00127372  -0.00648804 
         250      19.9917     0.998946   0.00127504  -0.00648795 
         250      20.1862     0.998947    0.0012764  -0.00648759 
         250      20.3818      0.99895    0.0012779  -0.00648742 
         250      20.5782     0.998951   0.00127976  -0.00648718 
         250      20.7756      0.99895   0.00128045  -0.00648703 
         250       20.974     0.998951   0.00128084  -0.00648693 
         250      21.1732     0.998951   0.00128202  -0.00648683 
         250      21.3734      0.99895   0.00128389  -0.00648669 
         250      21.5745     0.998948   0.00128544  -0.00648652 
         250      21.7767     0.998948   0.00128634  -0.00648637 
         250      21.9797     0.998954   0.00128793  -0.00648629 
         250      22.1837     0.998957   0.00129009  -0.00648624 
         250      22.3886     0.998951    0.0012907  -0.00648613 
         250      22.5945     0.998953   0.00129221  -0.00648599 
         250      22.8013     0.998954   0.00129283  -0.00648586 
         250      23.0091     0.998953   0.00129363  -0.00648571 
         250      23.2177     0.998953   0.00129486  -0.00648556 
         250      23.4274     0.998952   0.00129636   -0.0064854 
         250       23.638     0.998952   0.00129788  -0.00648524 
         250      23.8495     0.998951   0.00129923  -0.00648508 
         250       24.062     0.998951   0.00130036  -0.00648492 
         250      24.2754     0.998952   0.00130136  -0.00648476 
         250      24.4897     0.998952   0.00130237  -0.00648462 
         250       24.705     0.998952   0.00130354  -0.00648448 
         250      24.9213     0.998953   0.00130497  -0.00648435 
         250      25.1385     0.998954   0.00130665  -0.00648421 
         250      25.3566     0.998954   0.00130843  -0.00648406 
         250      25.5756     0.998955   0.00131013   -0.0064839 
         250      25.7957     0.998955   0.00131153  -0.00648372 
         250      26.0166     0.998955   0.00131249  -0.00648354 
         250      26.2385     0.998955   0.00131309  -0.00648336 
         250      26.4613     0.998953   0.00131365  -0.00648323 
         250      26.6851     0.998952   0.00131475  -0.00648322 
         250      26.9098     0.998954   0.00131711  -0.00648342 
         250      27.1354     0.998965   0.00132113  -0.00648396 
         250      27.3621     0.998963   0.00132042  -0.00648317 
         250      27.5896     0.998953   0.00132081  -0.00648337 
         250      27.8181      0.99895    0.0013232  -0.00648414 
         250      28.0475      0.99895   0.00132484  -0.00648303 
         250      28.2779     0.998954   0.00132643  -0.00648242 
         250      28.5092     0.998958   0.00132769  -0.00648213 
         250      28.7414     0.998961   0.00132874  -0.00648203 
         250      28.9746     0.998961   0.00132979  -0.00648202 
         250      29.2088      0.99896   0.00133099  -0.00648203 
         250      29.4439     0.998958   0.00133244  -0.00648201 
         250      29.6799     0.998955    0.0013341  -0.00648194 
         250      29.9168     0.998954   0.00133587  -0.00648182 
         250      30.1548     0.998954   0.00133763  -0.00648165 
         250      30.3936     0.998955   0.00133926  -0.00648143 
         250      30.6334     0.998957   0.00134071  -0.00648119 
         250      30.8742     0.998959   0.00134201  -0.00648095 
         250      31.1158     0.998961   0.00134325  -0.00648073 
         250      31.3584     0.998961   0.00134455  -0.00648054 
         250       31.602      0.99896   0.00134602   -0.0064804 
         250      31.8465     0.998958   0.00134768  -0.00648029 
         250      32.0919     0.998955   0.00134945  -0.00648023 
         250      32.3383     0.998955   0.00135114  -0.00648018 
         250      32.5856     0.998958   0.00135253  -0.00648015 
         250       32.834     0.998963   0.00135365  -0.00648009 
         250      33.0831     0.998968   0.00135513  -0.00647998 
         250      33.3333      0.99896   0.00135897  -0.00647981 
         250      33.5843     0.998961   0.00135876  -0.00647967 
         250      33.8364     0.998963   0.00135995  -0.00647946 
         250      34.0894     0.998964   0.00136173  -0.00647921 
         250      34.3433     0.998964    0.0013635  -0.00647896 
         250      34.5981     0.998962   0.00136501  -0.00647873 
         250       34.854     0.998961   0.00136624  -0.00647856 
         250      35.1107     0.998959   0.00136731  -0.00647844 
         250      35.3684     0.998958   0.00136836  -0.00647838 
         250      35.6271     0.998958   0.00136954  -0.00647836 
         250      35.8867     0.998959   0.00137098  -0.00647836 
         250      36.1472     0.998961   0.00137269  -0.00647834 
         250      36.4086     0.998963   0.00137464  -0.00647828 
         250      36.6711     0.998965   0.00137673  -0.00647815 
         250      36.9344     0.998966   0.00137879  -0.00647791 
         250      37.1987     0.998965   0.00138063  -0.00647759 
         250      37.4639     0.998964   0.00138213   -0.0064772 
         250      37.7301     0.998961   0.00138327  -0.00647683 
         250      37.9972     0.998958   0.00138433  -0.00647661 
         250      38.2652     0.998959     0.001386  -0.00647675 
         250      38.5342     0.998969   0.00138967  -0.00647755 
         250      38.8042      0.99896   0.00138891  -0.00647721 
         250      39.0751     0.998959   0.00138999   -0.0064771 
         250      39.3469     0.998962   0.00139205  -0.00647712 
         250      39.6197     0.998965    0.0013945  -0.00647716 
         250      39.8934     0.998968   0.00139693   -0.0064772 
         250       40.168      0.99897   0.00139907  -0.00647718 
         250      40.4436     0.998971   0.00140078  -0.00647712 
         250      40.7202      0.99897   0.00140204  -0.00647704 
         250      40.9977     0.998968   0.00140297  -0.00647699 
         250      41.2761      0.99896   0.00140385  -0.00647707 
         250      41.5554     0.998955   0.00140543  -0.00647708 
         250      41.8358      0.99897   0.00140725  -0.00647679 
         250       42.117     0.998976   0.00140902  -0.00647663 
         250      42.3992     0.998973   0.00141088  -0.00647649 
         250      42.6823     0.998964   0.00141268  -0.00647629 
         250      42.9664     0.998956    0.0014143  -0.00647601 
         250      43.2514     0.998954   0.00141581  -0.00647565 
         250      43.5373     0.998957   0.00141732  -0.00647531 
         250      43.8243     0.998963   0.00141889   -0.0064752 
         250      44.1121     0.998965   0.00142016  -0.00647569 
         250      44.4009      0.99897   0.00142266  -0.00647535 
         250      44.6906     0.998974   0.00142553  -0.00647476 
         250      44.9813     0.998974   0.00142786  -0.00647461 
         250      45.2729     0.998973   0.00142983  -0.00647467 
         250      45.5654      0.99897   0.00143156  -0.00647478 
         250      45.8589     0.998969   0.00143314  -0.00647486 
         250      46.1534     0.998968   0.00143462  -0.00647485 
         250      46.4488     0.998968   0.00143604  -0.00647474 
         250      46.7451     0.998969   0.00143745  -0.00647453 
         250      47.0423     0.998971   0.00143892  -0.00647425 
         250      47.3406     0.998973    0.0014405  -0.00647393 
         250      47.6397     0.998974   0.00144225  -0.00647361 
         250      47.9398     0.998974   0.00144419  -0.00647331 
         250      48.2409     0.998973   0.00144633  -0.00647305 
         250      48.5428     0.998971   0.00144861  -0.00647285 
         250      48.8457     0.998968   0.00145091  -0.00647271 
         250      49.1496     0.998965    0.0014531  -0.00647261 
         250      49.4545     0.998963   0.00145503  -0.00647255 
         250      49.7602     0.998962   0.00145664  -0.00647251 
         250      50.0668     0.998963   0.00145804  -0.00647252 
         250      50.3744     0.998964   0.00145973   -0.0064726 
         250      50.6831     0.998965   0.00146235  -0.00647277 
         250      50.9926     0.998972   0.00146338  -0.00647259 
         250       51.303     0.998971   0.00146495  -0.00647246 
         250      51.6144     0.998969   0.00146681  -0.00647238 
         250      51.9268     0.998967   0.00146882  -0.00647234 
         250        52.24     0.998969   0.00147083   -0.0064723 
         250      52.5542     0.998972   0.00147274  -0.00647225 
         250      52.8694     0.998974   0.00147451  -0.00647217 
         250      53.1856     0.998972   0.00147612  -0.00647207 
         250      53.5026     0.998964   0.00147759  -0.00647197 
         250      53.8205     0.998955   0.00147893   -0.0064719 
         250      54.1396     0.998955   0.00147998  -0.00647186 
         250      54.4594      0.99897    0.0014822  -0.00647158 
         250      54.7802     0.998977   0.00148472   -0.0064712 
         250      55.1019      0.99898   0.00148627  -0.00647106 
         250      55.4247      0.99898   0.00148798  -0.00647102 
         250      55.7483     0.998977   0.00149019  -0.00647103 
         250      56.0729     0.998974   0.00149283  -0.00647102 
         250      56.3984      0.99897   0.00149561    -0.006471 
         250       56.725     0.998968   0.00149824  -0.00647095 
         250      57.0523     0.998967    0.0015005  -0.00647089 
         250      57.3807     0.998967   0.00150232  -0.00647084 
         250      57.7099     0.998969   0.00150373   -0.0064708 
         250      58.0403     0.998971    0.0015049  -0.00647078 
         250      58.3714     0.998974   0.00150603  -0.00647081 
         250      58.7035     0.998976   0.00150737  -0.00647086 
         250      59.0367     0.998977   0.00150911  -0.00647094 
         250      59.3707     0.998977   0.00151134  -0.00647102 
         250      59.7056     0.998977   0.00151406   -0.0064711 
         250      60.0414     0.998976   0.00151715  -0.00647114 
         250      60.3784     0.998975   0.00152035  -0.00647112 
         250      60.7161     0.998975   0.00152336  -0.00647104 
         250      61.0548     0.998976   0.00152585  -0.00647088 
         250      61.3944     0.998977   0.00152758  -0.00647064 
         250      61.7351      0.99898   0.00152844  -0.00647036 
         250      62.0767     0.998982   0.00152861  -0.00647009 
         250      62.4191     0.998982   0.00152859   -0.0064699 
         250      62.7625     0.998981   0.00152932  -0.00646991 
         250       63.107     0.998976   0.00153215  -0.00647028 
         250      63.4523      0.99897   0.00153883  -0.00647122 
         250      63.7985     0.998968   0.00154949  -0.00647259 
         250      64.1458     0.998959   0.00153868  -0.00647046 
         250      64.4939     0.998953   0.00153564  -0.00647202 
         250       64.843     0.998946   0.00154543  -0.00647133 
         250      65.1929     0.998955    0.0015498  -0.00646902 
         250       65.544     0.998973   0.00155103  -0.00646826 
         250      65.8959     0.998987   0.00155172  -0.00646891 
         250      66.2487     0.998996   0.00155287  -0.00646912 
         250      66.6025        0.999   0.00155451  -0.00646907 
         250      66.9573     0.998999   0.00155656  -0.00646889 
         250       67.313     0.998995   0.00155887   -0.0064687 
         250      67.6695     0.998987   0.00156127  -0.00646858 
         250      68.0271     0.998977   0.00156364  -0.00646856 
         250      68.3857     0.998966   0.00156587  -0.00646864 
         250      68.7451     0.998956   0.00156794  -0.00646882 
         250      69.1055     0.998947   0.00156984  -0.00646903 
         250      69.4669     0.998942   0.00157164  -0.00646923 
         250      69.8291     0.998942   0.00157344  -0.00646937 
         250      70.1923     0.998948   0.00157533  -0.00646938 
         250      70.5564     0.998959   0.00157742  -0.00646923 
         250      70.9217     0.998975    0.0015798  -0.00646892 
         250      71.2877     0.998993   0.00158251  -0.00646845 
         250      71.6546     0.999007   0.00158555  -0.00646787 
         250      72.0225     0.999012   0.00158887  -0.00646725 
         250      72.3915     0.999004   0.00159233  -0.00646669 
         250      72.7613     0.998978   0.00159576   -0.0064663 
         250       73.132     0.998938   0.00159892  -0.00646619 
         250      73.5036       0.9989   0.00160158   -0.0064664 
         250      73.8764     0.998898   0.00160352  -0.00646694 
         250      74.2499     0.998997   0.00160457  -0.00646769 
         250      74.6244     0.999307   0.00160469  -0.00646835 
         250           75            1   0.00160405  -0.00646837 
