Variables = x, y, u, v, p

Zone, I=400, F=POINT
         650            0            0            0  -0.00343347 
         650     0.000471  0.000150567   2.0912e-11  -0.00343347 
         650     0.001884  0.000602281  3.34591e-10  -0.00343347 
         650     0.004239   0.00135518  1.69382e-09  -0.00343347 
         650     0.007537   0.00240964  5.35455e-09  -0.00343347 
         650     0.011776    0.0037651  1.30708e-08  -0.00343346 
         650     0.016958   0.00542232  2.71037e-08  -0.00343346 
         650     0.023081   0.00738079  5.02064e-08  -0.00343346 
         650      0.03015   0.00964226  8.56625e-08  -0.00343346 
         650     0.038157    0.0122044  1.37191e-07  -0.00343346 
         650     0.047107    0.0150689  2.09076e-07  -0.00343346 
         650     0.056999    0.0182357  3.06069e-07  -0.00343346 
         650     0.067837    0.0217064  4.33477e-07  -0.00343345 
         650     0.079614     0.025479  5.96971e-07  -0.00343345 
         650     0.092332    0.0295544  8.02817e-07  -0.00343345 
         650     0.105992    0.0339332  1.05777e-06  -0.00343345 
         650       0.1206    0.0386178   1.3692e-06  -0.00343344 
         650     0.136145    0.0436048   1.7446e-06  -0.00343344 
         650     0.152631    0.0488959  2.19227e-06  -0.00343344 
         650     0.170067    0.0544944  2.72118e-06  -0.00343343 
         650     0.188438    0.0603958  3.34009e-06  -0.00343343 
         650     0.207751    0.0666027  4.05886e-06  -0.00343343 
         650     0.228006    0.0731155  4.88765e-06  -0.00343342 
         650     0.249212    0.0799373   5.8375e-06  -0.00343342 
         650     0.271351    0.0870626   6.9187e-06  -0.00343342 
         650     0.294433    0.0944951  8.14328e-06  -0.00343341 
         650     0.318456     0.102234  9.52312e-06  -0.00343341 
         650     0.343432     0.110284  1.10715e-05   -0.0034334 
         650     0.369339     0.118637  1.27998e-05   -0.0034334 
         650     0.396189     0.127298  1.47224e-05  -0.00343339 
         650     0.423981     0.136267  1.68527e-05  -0.00343339 
         650     0.452726     0.145545  1.92059e-05  -0.00343338 
         650     0.482403     0.155127  2.17949e-05  -0.00343338 
         650     0.513021     0.165015  2.46352e-05  -0.00343337 
         650     0.544594     0.175212  2.77435e-05  -0.00343336 
         650     0.577096      0.18571  3.11328e-05  -0.00343336 
         650     0.610541     0.196511  3.48203e-05  -0.00343335 
         650     0.644927     0.207614  3.88221e-05  -0.00343335 
         650      0.68027     0.219022  4.31561e-05  -0.00343334 
         650     0.716541     0.230724  4.78353e-05  -0.00343333 
         650     0.753754     0.242721  5.28781e-05  -0.00343333 
         650     0.791909      0.25501  5.83012e-05  -0.00343332 
         650     0.831022     0.267595  6.41236e-05  -0.00343331 
         650     0.871061     0.280459  7.03571e-05   -0.0034333 
         650     0.912043     0.293605  7.70206e-05   -0.0034333 
         650     0.953966     0.307027  8.41297e-05  -0.00343329 
         650     0.996849     0.320724  9.17036e-05  -0.00343328 
         650      1.04066      0.33468  9.97513e-05  -0.00343327 
         650      1.08541     0.348893  0.000108291  -0.00343326 
         650      1.13112      0.36336   0.00011734  -0.00343326 
         650      1.17775     0.378061  0.000126906  -0.00343325 
         650      1.22533     0.392992  0.000137003  -0.00343324 
         650      1.27384     0.408141  0.000147641  -0.00343323 
         650      1.32333     0.423504   0.00015883  -0.00343322 
         650      1.37373     0.439055  0.000170595  -0.00343321 
         650      1.42507     0.454786  0.000182912   -0.0034332 
         650      1.47736     0.470682  0.000195797  -0.00343319 
         650      1.53061     0.486731  0.000209266  -0.00343318 
         650      1.58478     0.502905   0.00022331  -0.00343317 
         650      1.63989     0.519189  0.000237929  -0.00343316 
         650      1.69595     0.535564  0.000253117  -0.00343315 
         650      1.75297     0.552014   0.00026887  -0.00343314 
         650      1.81091     0.568504  0.000285165  -0.00343312 
         650      1.86979     0.585016  0.000301995  -0.00343311 
         650      1.92964      0.60153  0.000319353   -0.0034331 
         650       1.9904     0.618007  0.000337203  -0.00343309 
         650      2.05211     0.634426  0.000355531  -0.00343308 
         650      2.11476     0.650759  0.000374306  -0.00343306 
         650      2.17838     0.666981  0.000393504  -0.00343305 
         650      2.24291      0.68305  0.000413069  -0.00343304 
         650      2.30839     0.698942  0.000432966  -0.00343302 
         650       2.3748     0.714625  0.000453154    -0.003433 
         650      2.44219     0.730074  0.000473593  -0.00343299 
         650      2.51049     0.745246  0.000494224  -0.00343298 
         650      2.57974     0.760115  0.000515003  -0.00343296 
         650      2.64993     0.774651  0.000535859  -0.00343295 
         650      2.72108     0.788831  0.000556687  -0.00343293 
         650      2.79315     0.802614  0.000577574  -0.00343293 
         650      2.86617     0.815978  0.000598397  -0.00343293 
         650      2.94012     0.828899  0.000618973  -0.00343291 
         650      3.01505     0.841358  0.000639299  -0.00343289 
         650      3.09089     0.853324  0.000659326  -0.00343286 
         650      3.16767     0.864782  0.000679008  -0.00343282 
         650      3.24542     0.875722  0.000698284  -0.00343279 
         650      3.32409      0.88612  0.000717065  -0.00343277 
         650       3.4037     0.895973  0.000735297  -0.00343274 
         650      3.48425     0.905272  0.000752931  -0.00343272 
         650      3.56577     0.914019  0.000769939   -0.0034327 
         650       3.6482     0.922205  0.000786274  -0.00343268 
         650      3.73158     0.929838    0.0008019  -0.00343265 
         650       3.8159     0.936925  0.000816761  -0.00343262 
         650      3.90119     0.943477   0.00083082  -0.00343259 
         650       3.9874     0.949503  0.000844128  -0.00343256 
         650      4.07454     0.955021  0.000856578  -0.00343254 
         650      4.16263     0.960049  0.000868279  -0.00343251 
         650      4.25169      0.96461  0.000879192  -0.00343247 
         650      4.34166     0.968722  0.000889289  -0.00343243 
         650      4.43258     0.972411  0.000898596  -0.00343241 
         650      4.52447     0.975705  0.000907152  -0.00343239 
         650      4.61726     0.978627  0.000914999  -0.00343237 
         650        4.711     0.981206  0.000922224  -0.00343231 
         650      4.80569     0.983469  0.000928711  -0.00343229 
         650      4.90135     0.985442  0.000934604  -0.00343225 
         650      4.99791     0.987152  0.000939891  -0.00343221 
         650      5.09542     0.988625  0.000944638  -0.00343218 
         650      5.19387     0.989886  0.000948924  -0.00343216 
         650       5.2933     0.990959    0.0009528  -0.00343213 
         650      5.39364     0.991864  0.000956261  -0.00343209 
         650      5.49491     0.992624  0.000959305  -0.00343204 
         650      5.59713     0.993256  0.000962079  -0.00343198 
         650      5.70033      0.99378  0.000964556  -0.00343195 
         650      5.80443      0.99421  0.000966847  -0.00343193 
         650      5.90948      0.99456  0.000968905  -0.00343189 
         650      6.01551     0.994843  0.000970708  -0.00343186 
         650      6.12244     0.995071  0.000972353  -0.00343183 
         650      6.23031     0.995252  0.000973918  -0.00343179 
         650      6.33912     0.995396  0.000975417  -0.00343174 
         650      6.44892     0.995508  0.000976826  -0.00343169 
         650      6.55962     0.995595  0.000978124  -0.00343165 
         650      6.67126     0.995663  0.000979331  -0.00343161 
         650      6.78384     0.995714  0.000980506  -0.00343157 
         650      6.89741     0.995753  0.000981713  -0.00343154 
         650      7.01187     0.995782  0.000982955  -0.00343151 
         650      7.12728     0.995804  0.000984135  -0.00343145 
         650      7.24363     0.995821  0.000985113  -0.00343139 
         650      7.36097     0.995833   0.00098602  -0.00343138 
         650       7.4792      0.99584  0.000987554  -0.00343152 
         650      7.59838     0.995849  0.000988644   -0.0034311 
         650      7.71854     0.995852  0.000989604  -0.00343123 
         650       7.8396     0.995855  0.000990822  -0.00343127 
         650      7.96161     0.995857  0.000991962  -0.00343128 
         650      8.08455     0.995859  0.000993043  -0.00343129 
         650      8.20849      0.99586  0.000994146  -0.00343129 
         650      8.33332     0.995861  0.000995297  -0.00343127 
         650      8.45909     0.995862  0.000996471  -0.00343123 
         650       8.5858     0.995863  0.000997626  -0.00343117 
         650      8.71351     0.995862  0.000998762  -0.00343112 
         650       8.8421     0.995863  0.000999922  -0.00343109 
         650      8.97164     0.995863   0.00100116  -0.00343107 
         650      9.10212     0.995864   0.00100248  -0.00343106 
         650       9.2336     0.995865   0.00100377  -0.00343102 
         650      9.36596     0.995863   0.00100491  -0.00343095 
         650      9.49927     0.995862   0.00100606  -0.00343092 
         650      9.63352     0.995863   0.00100736  -0.00343091 
         650      9.76877     0.995865   0.00100851  -0.00343085 
         650       9.9049     0.995866   0.00100982  -0.00343084 
         650       10.042     0.995867    0.0010111  -0.00343085 
         650      10.1801     0.995866   0.00101234  -0.00343085 
         650       10.319     0.995865   0.00101358  -0.00343081 
         650      10.4589     0.995864   0.00101488  -0.00343072 
         650      10.5998     0.995865   0.00101625  -0.00343059 
         650      10.7416     0.995866   0.00101765  -0.00343045 
         650      10.8843     0.995868   0.00101903  -0.00343036 
         650       11.028     0.995869   0.00102029  -0.00343044 
         650      11.1726      0.99587   0.00102152  -0.00343056 
         650      11.3182     0.995867   0.00102282  -0.00343023 
         650      11.4647     0.995864   0.00102404   -0.0034302 
         650      11.6122     0.995864   0.00102544  -0.00343026 
         650      11.7605     0.995868   0.00102699  -0.00343028 
         650      11.9099     0.995872   0.00102844  -0.00343021 
         650      12.0602     0.995872   0.00102957   -0.0034301 
         650      12.2114     0.995867   0.00103128  -0.00343008 
         650      12.3636     0.995866   0.00103234  -0.00343011 
         650      12.5167     0.995868   0.00103392  -0.00343023 
         650      12.6707     0.995871   0.00103543  -0.00343032 
         650      12.8257     0.995872   0.00103665  -0.00343029 
         650      12.9817     0.995872   0.00103799  -0.00343017 
         650      13.1386      0.99587   0.00103968  -0.00343003 
         650      13.2964     0.995869   0.00104157   -0.0034299 
         650      13.4551     0.995869   0.00104328  -0.00342983 
         650      13.6149      0.99587   0.00104455  -0.00342981 
         650      13.7755     0.995871   0.00104543  -0.00342981 
         650      13.9371     0.995873    0.0010463   -0.0034298 
         650      14.0996     0.995874   0.00104768  -0.00342975 
         650      14.2631     0.995874   0.00104982  -0.00342964 
         650      14.4275     0.995873   0.00105229  -0.00342946 
         650      14.5928     0.995871   0.00105377  -0.00342923 
         650      14.7592     0.995872   0.00105355  -0.00342935 
         650      14.9264     0.995876   0.00105697  -0.00342935 
         650      15.0946     0.995868   0.00105775  -0.00342929 
         650      15.2637     0.995871    0.0010588   -0.0034292 
         650      15.4338     0.995877   0.00106105  -0.00342828 
         650      15.6048     0.995877   0.00106276  -0.00342804 
         650      15.7767     0.995873   0.00106389  -0.00342823 
         650      15.9496      0.99587   0.00106484   -0.0034286 
         650      16.1235     0.995869   0.00106601  -0.00342896 
         650      16.2982     0.995872   0.00106763  -0.00342919 
         650      16.4739     0.995876   0.00106965  -0.00342922 
         650      16.6506      0.99588   0.00107186  -0.00342907 
         650      16.8282     0.995882   0.00107395  -0.00342881 
         650      17.0068     0.995881    0.0010757  -0.00342853 
         650      17.1862     0.995877   0.00107704  -0.00342832 
         650      17.3667     0.995873   0.00107806  -0.00342826 
         650      17.5481      0.99587   0.00107905  -0.00342836 
         650      17.7304     0.995871   0.00108029  -0.00342859 
         650      17.9136     0.995875     0.001082  -0.00342886 
         650      18.0979     0.995882   0.00108414  -0.00342902 
         650       18.283     0.995887   0.00108637  -0.00342896 
         650      18.4691     0.995886   0.00108821  -0.00342864 
         650      18.6561     0.995878   0.00108956  -0.00342824 
         650      18.8441     0.995874   0.00109176  -0.00342834 
         650       19.033      0.99587   0.00109276  -0.00342879 
         650      19.2228     0.995878   0.00109406  -0.00342899 
         650      19.4136     0.995892   0.00109751  -0.00342914 
         650      19.6054     0.995883   0.00109846  -0.00342916 
         650       19.798     0.995881   0.00110296  -0.00342913 
         650      19.9917     0.995883   0.00110524  -0.00342878 
         650      20.1862     0.995884   0.00110622  -0.00342837 
         650      20.3818     0.995882    0.0011069  -0.00342801 
         650      20.5782      0.99588    0.0011081  -0.00342769 
         650      20.7756     0.995882   0.00111028  -0.00342732 
         650       20.974     0.995879   0.00111093  -0.00342752 
         650      21.1732     0.995878   0.00111223  -0.00342792 
         650      21.3734      0.99588   0.00111494  -0.00342815 
         650      21.5745     0.995883   0.00111828  -0.00342817 
         650      21.7767     0.995885   0.00112127  -0.00342799 
         650      21.9797     0.995887   0.00112326  -0.00342769 
         650      22.1837     0.995887   0.00112414  -0.00342734 
         650      22.3886     0.995886   0.00112441  -0.00342702 
         650      22.5945     0.995885   0.00112493  -0.00342678 
         650      22.8013     0.995885   0.00112655  -0.00342666 
         650      23.0091     0.995885   0.00112957  -0.00342664 
         650      23.2177     0.995886   0.00113341  -0.00342669 
         650      23.4274     0.995885   0.00113655  -0.00342674 
         650       23.638     0.995884   0.00113728  -0.00342674 
         650      23.8495     0.995882   0.00113568   -0.0034267 
         650       24.062     0.995885   0.00113741   -0.0034267 
         650      24.2754     0.995882   0.00114153  -0.00342673 
         650      24.4897     0.995875   0.00113969  -0.00342647 
         650       24.705     0.995884   0.00114442  -0.00342625 
         650      24.9213     0.995892   0.00114886   -0.0034261 
         650      25.1385     0.995894   0.00115125  -0.00342602 
         650      25.3566     0.995889   0.00115223  -0.00342599 
         650      25.5756     0.995883   0.00115308    -0.003426 
         650      25.7957     0.995878   0.00115477  -0.00342603 
         650      26.0166     0.995877   0.00115757  -0.00342605 
         650      26.2385     0.995879   0.00116108  -0.00342607 
         650      26.4613     0.995885   0.00116455  -0.00342609 
         650      26.6851     0.995892   0.00116719  -0.00342612 
         650      26.9098     0.995897   0.00116854  -0.00342614 
         650      27.1354     0.995899   0.00116872  -0.00342617 
         650      27.3621     0.995898    0.0011684  -0.00342618 
         650      27.5896     0.995893   0.00116861  -0.00342612 
         650      27.8181     0.995887   0.00117038  -0.00342596 
         650      28.0475     0.995882    0.0011742  -0.00342561 
         650      28.2779     0.995881   0.00117951    -0.003425 
         650      28.5092     0.995887   0.00118467  -0.00342442 
         650      28.7414     0.995893   0.00118776  -0.00342504 
         650      28.9746     0.995897   0.00118532  -0.00342563 
         650      29.2088     0.995899   0.00118068  -0.00342648 
         650      29.4439     0.995893   0.00119366  -0.00342859 
         650      29.6799     0.995899   0.00118978  -0.00342542 
         650      29.9168     0.995895   0.00118804  -0.00342519 
         650      30.1548     0.995887    0.0011942  -0.00342681 
         650      30.3936     0.995884   0.00120227  -0.00342506 
         650      30.6334     0.995888   0.00120609  -0.00342443 
         650      30.8742     0.995896   0.00120623  -0.00342457 
         650      31.1158     0.995904   0.00120501  -0.00342511 
         650      31.3584     0.995909   0.00120457  -0.00342568 
         650       31.602     0.995908   0.00120603  -0.00342603 
         650      31.8465     0.995904   0.00120935  -0.00342605 
         650      32.0919     0.995896   0.00121367  -0.00342572 
         650      32.3383      0.99589   0.00121783  -0.00342515 
         650      32.5856     0.995885   0.00122091   -0.0034245 
         650       32.834     0.995885   0.00122259  -0.00342395 
         650      33.0831     0.995888    0.0012233  -0.00342367 
         650      33.3333     0.995894   0.00122399  -0.00342373 
         650      33.5843     0.995899    0.0012257  -0.00342408 
         650      33.8364     0.995903   0.00122898  -0.00342459 
         650      34.0894     0.995903   0.00123337  -0.00342502 
         650      34.3433       0.9959   0.00123727  -0.00342512 
         650      34.5981     0.995896   0.00123872  -0.00342478 
         650       34.854     0.995894   0.00123752  -0.00342422 
         650      35.1107     0.995898    0.0012396  -0.00342428 
         650      35.3684      0.99589   0.00124376  -0.00342466 
         650      35.6271     0.995879   0.00124129  -0.00342405 
         650      35.8867     0.995884   0.00124566    -0.003424 
         650      36.1472     0.995896   0.00125149  -0.00342401 
         650      36.4086     0.995908   0.00125627  -0.00342384 
         650      36.6711     0.995915   0.00125925  -0.00342344 
         650      36.9344     0.995917   0.00126063  -0.00342295 
         650      37.1987     0.995912   0.00126092  -0.00342252 
         650      37.4639     0.995903   0.00126073  -0.00342232 
         650      37.7301     0.995891   0.00126082  -0.00342232 
         650      37.9972      0.99588   0.00126263  -0.00342224 
         650      38.2652     0.995874   0.00126935  -0.00342137 
         650      38.5342     0.995877   0.00127325  -0.00342221 
         650      38.8042     0.995894   0.00127601  -0.00342334 
         650      39.0751     0.995911   0.00128009  -0.00342344 
         650      39.3469     0.995921   0.00128327  -0.00342304 
         650      39.6197     0.995922    0.0012849  -0.00342255 
         650      39.8934     0.995917   0.00128548  -0.00342228 
         650       40.168      0.99591   0.00128607  -0.00342236 
         650      40.4436     0.995903   0.00128777  -0.00342278 
         650      40.7202     0.995899   0.00129114  -0.00342339 
         650      40.9977     0.995899   0.00129571  -0.00342391 
         650      41.2761       0.9959       0.0013  -0.00342405 
         650      41.5554     0.995901   0.00130209  -0.00342362 
         650      41.8358     0.995905   0.00130133  -0.00342278 
         650       42.117     0.995916   0.00130152  -0.00342229 
         650      42.3992     0.995951   0.00131622  -0.00342392 
         650      42.6823     0.995931   0.00131478  -0.00342272 
         650      42.9664     0.995897   0.00131163   -0.0034214 
         650      43.2514     0.995886   0.00131673  -0.00342168 
         650      43.5373     0.995891    0.0013231   -0.0034225 
         650      43.8243     0.995904   0.00132756  -0.00342323 
         650      44.1121     0.995919   0.00132943  -0.00342351 
         650      44.4009     0.995931   0.00132941  -0.00342325 
         650      44.6906     0.995936    0.0013288  -0.00342251 
         650      44.9813     0.995933   0.00132889  -0.00342147 
         650      45.2729     0.995923   0.00133061  -0.00342037 
         650      45.5654     0.995908   0.00133425  -0.00341948 
         650      45.8589     0.995892   0.00133953  -0.00341903 
         650      46.1534      0.99588   0.00134557  -0.00341919 
         650      46.4488     0.995875   0.00135121  -0.00342002 
         650      46.7451      0.99588   0.00135525  -0.00342143 
         650      47.0423     0.995895    0.0013569  -0.00342312 
         650      47.3406     0.995916   0.00135625  -0.00342454 
         650      47.6397     0.995935   0.00135481   -0.0034248 
         650      47.9398     0.995935   0.00135613  -0.00342261 
         650      48.2409     0.995916   0.00136079  -0.00341915 
         650      48.5428     0.995926   0.00135521  -0.00342273 
         650      48.8457     0.995914   0.00135785  -0.00342362 
         650      49.1496     0.995895   0.00136549   -0.0034231 
         650      49.4545      0.99588   0.00137482  -0.00342212 
         650      49.7602     0.995875   0.00138271  -0.00342127 
         650      50.0668     0.995882   0.00138674  -0.00342087 
         650      50.3744     0.995899   0.00138616  -0.00342103 
         650      50.6831     0.995923   0.00138346  -0.00342176 
         650      50.9926     0.995947   0.00138673  -0.00342309 
         650       51.303     0.995957   0.00139336  -0.00342383 
         650      51.6144     0.995921   0.00138762  -0.00342267 
         650      51.9268     0.995889    0.0013947  -0.00342241 
         650        52.24     0.995873   0.00140119  -0.00342254 
         650      52.5542     0.995875   0.00140378  -0.00342275 
         650      52.8694     0.995887   0.00140378   -0.0034229 
         650      53.1856     0.995903    0.0014037  -0.00342296 
         650      53.5026     0.995917   0.00140539  -0.00342294 
         650      53.8205     0.995925   0.00140939  -0.00342285 
         650      54.1396     0.995927   0.00141496  -0.00342272 
         650      54.4594     0.995923   0.00142072  -0.00342254 
         650      54.7802     0.995916   0.00142524  -0.00342231 
         650      55.1019     0.995908   0.00142771  -0.00342198 
         650      55.4247     0.995901   0.00142828   -0.0034215 
         650      55.7483     0.995896   0.00142801  -0.00342083 
         650      56.0729     0.995894    0.0014285  -0.00341995 
         650      56.3984     0.995895   0.00143124  -0.00341892 
         650       56.725       0.9959   0.00143673  -0.00341782 
         650      57.0523     0.995911   0.00144387  -0.00341685 
         650      57.3807     0.995926   0.00144982  -0.00341628 
         650      57.7099     0.995945   0.00145105  -0.00341651 
         650      58.0403     0.995959   0.00144599  -0.00341801 
         650      58.3714     0.995948   0.00144051  -0.00342136 
         650      58.7035     0.995867   0.00145676  -0.00342714 
         650      59.0367      0.99587   0.00148499  -0.00342813 
         650      59.3707     0.995891   0.00145059  -0.00342517 
         650      59.7056     0.995929   0.00146506  -0.00342288 
         650      60.0414     0.995958   0.00148304  -0.00342139 
         650      60.3784     0.995972   0.00148999  -0.00342066 
         650      60.7161     0.995973    0.0014868  -0.00342051 
         650      61.0548     0.995965   0.00147983  -0.00342075 
         650      61.3944     0.995954   0.00147516  -0.00342114 
         650      61.7351     0.995941   0.00147599  -0.00342153 
         650      62.0767     0.995927   0.00148221  -0.00342178 
         650      62.4191     0.995912   0.00149138  -0.00342183 
         650      62.7625     0.995897   0.00150022  -0.00342167 
         650       63.107     0.995881    0.0015061  -0.00342135 
         650      63.4523     0.995869   0.00150805  -0.00342094 
         650      63.7985     0.995862   0.00150708  -0.00342051 
         650      64.1458     0.995864   0.00150559  -0.00342013 
         650      64.4939     0.995876   0.00150622  -0.00341987 
         650       64.843     0.995899   0.00151029  -0.00341974 
         650      65.1929     0.995927   0.00151668  -0.00341976 
         650       65.544     0.995954   0.00152192  -0.00341993 
         650      65.8959     0.995973   0.00152273  -0.00342029 
         650      66.2487     0.995983   0.00152278  -0.00342101 
         650      66.6025     0.996005    0.0015452  -0.00342243 
         650      66.9573      0.99596   0.00152999  -0.00342049 
         650       67.313     0.995944   0.00153618  -0.00341983 
         650      67.6695     0.995929   0.00154554  -0.00342037 
         650      68.0271     0.995905   0.00155064  -0.00342175 
         650      68.3857      0.99587   0.00155105  -0.00342352 
         650      68.7451     0.995831   0.00154935  -0.00342525 
         650      69.1055     0.995795    0.0015485  -0.00342657 
         650      69.4669     0.995773   0.00155028  -0.00342731 
         650      69.8291     0.995777   0.00155454  -0.00342764 
         650      70.1923     0.995821   0.00155881  -0.00342818 
         650      70.5564     0.995904   0.00156247  -0.00342832 
         650      70.9217     0.995974   0.00157115  -0.00342445 
         650      71.2877     0.996046   0.00157623  -0.00342175 
         650      71.6546     0.996087   0.00158023  -0.00342018 
         650      72.0225     0.996077   0.00158406  -0.00341954 
         650      72.3915     0.996016   0.00158784  -0.00341949 
         650      72.7613     0.995921   0.00159147  -0.00341968 
         650       73.132     0.995829   0.00159499  -0.00341984 
         650      73.5036     0.995797   0.00159848  -0.00341989 
         650      73.8764     0.995924   0.00160182   -0.0034199 
         650      74.2499     0.996392   0.00160441  -0.00342004 
         650      74.6244      0.99754    0.0016053  -0.00342035 
         650           75            1   0.00160405  -0.00342038 
