Variables = x, y, u, v, p

Zone, I=416, F=POINT
         -50            0            0            0     -26.5571 
         -50     0.013333 -0.000229623 -5.21807e-08     -26.5571 
         -50     0.053333 -0.000213744 -2.86115e-07     -26.5571 
         -50         0.12 -0.000200533 -8.26812e-07     -26.5571 
         -50     0.213332 -0.000190246 -1.68798e-06      -26.557 
         -50     0.333332 -0.000181538 -2.58793e-06      -26.557 
         -50         0.48 -0.000175865 -4.11123e-06      -26.557 
         -50     0.653331 -0.000173814 -5.75126e-06     -26.5569 
         -50     0.853332 -0.000175108 -6.50465e-06     -26.5568 
         -50         1.08 -0.000179399 -8.06674e-06     -26.5566 
         -50      1.33333 -0.000185937 -8.77658e-06     -26.5563 
         -50      1.61333 -0.000194874 -9.67043e-06      -26.556 
         -50         1.92  -0.00020495 -1.05491e-05     -26.5555 
         -50      2.25333 -0.000211303 -1.01466e-05     -26.5549 
         -50      2.61333 -0.000214442 -1.03815e-05     -26.5542 
         -50            3 -0.000216253 -1.32884e-05     -26.5532 
         -25            0 -1.80604e-19 -4.99207e-24     -25.4959 
         -25     0.013333   -0.0001625 -1.48651e-08     -25.4959 
         -25     0.053333 -0.000139774 -3.11667e-08     -25.4959 
         -25         0.12 -0.000123483  1.16052e-07     -25.4959 
         -25     0.213332 -0.000119629  6.98141e-07     -25.4959 
         -25     0.333332 -0.000123085  1.90018e-06     -25.4959 
         -25         0.48 -0.000127608  3.70512e-06     -25.4958 
         -25     0.653331  -0.00013062   5.7649e-06     -25.4958 
         -25     0.853332 -0.000134227  7.74469e-06     -25.4958 
         -25         1.08 -0.000140415  9.44098e-06     -25.4957 
         -25      1.33333 -0.000147161  1.06257e-05     -25.4956 
         -25      1.61333 -0.000152119  1.12438e-05     -25.4954 
         -25         1.92 -0.000157388  1.11039e-05     -25.4953 
         -25      2.25333 -0.000156822  1.08664e-05      -25.495 
         -25      2.61333  -0.00015664  7.77299e-06     -25.4948 
         -25            3 -0.000164104 -5.22354e-07     -25.4944 
           0            0  -4.0911e-19  5.93294e-19     -24.6332 
           0     0.013333 -0.000432094  0.000239977     -24.6342 
           0     0.053333 -0.000255952  0.000128404     -24.6355 
           0         0.12 -0.000192233  8.11902e-05      -24.637 
           0     0.213332 -0.000162088  6.10891e-05     -24.6385 
           0     0.333332 -0.000143268  4.82318e-05     -24.6401 
           0         0.48 -0.000129577  3.82923e-05     -24.6416 
           0     0.653331 -0.000120266   3.0534e-05     -24.6431 
           0     0.853332 -0.000113917  2.43674e-05     -24.6445 
           0         1.08  -0.00011137  1.94107e-05     -24.6459 
           0      1.33333 -0.000113666  1.53298e-05     -24.6472 
           0      1.61333 -0.000118359  1.20096e-05     -24.6484 
           0         1.92 -0.000121729  9.48551e-06     -24.6495 
           0      2.25333 -0.000122462  7.57481e-06     -24.6505 
           0      2.61333 -0.000120618   6.8649e-06     -24.6514 
           0            3 -0.000116911  8.03755e-06     -24.6522 
          20            0           -0           -0     -24.0881 
          20     0.013333 -0.000159502 -4.31864e-08     -24.0881 
          20     0.053333 -0.000208361 -5.36481e-07     -24.0881 
          20         0.12 -0.000248501 -2.66094e-06     -24.0881 
          20     0.213332 -0.000256159 -8.07443e-06     -24.0881 
          20     0.333332 -0.000239466 -1.76106e-05      -24.088 
          20         0.48 -0.000207183 -3.00648e-05      -24.088 
          20     0.653331  -0.00016825 -4.37371e-05      -24.088 
          20     0.853332 -0.000152199 -5.90023e-05     -24.0879 
          20         1.08 -0.000147983  -7.4441e-05     -24.0879 
          20      1.33333 -0.000138585 -8.74976e-05     -24.0878 
          20      1.61333 -0.000126902 -9.66455e-05     -24.0876 
          20         1.92 -0.000117345 -0.000100854     -24.0875 
          20      2.25333 -0.000113262 -9.99798e-05     -24.0873 
          20      2.61333  -0.00011112 -9.45021e-05      -24.087 
          20            3 -0.000105616 -8.56732e-05     -24.0867 
          40            0           -0           -0     -23.5333 
          40     0.013333 -0.000140739 -3.57672e-08     -23.5333 
          40     0.053333 -0.000170657 -5.39355e-07     -23.5333 
          40         0.12 -0.000187747 -2.58934e-06     -23.5333 
          40     0.213332 -0.000177448 -7.24379e-06     -23.5333 
          40     0.333332 -0.000156077 -1.46045e-05     -23.5333 
          40         0.48 -0.000147398  -2.3964e-05     -23.5333 
          40     0.653331 -0.000157072 -3.45234e-05     -23.5333 
          40     0.853332 -0.000170869 -4.52265e-05     -23.5333 
          40         1.08 -0.000171973 -5.47468e-05     -23.5333 
          40      1.33333 -0.000159158 -6.20598e-05     -23.5333 
          40      1.61333 -0.000140828 -6.66205e-05     -23.5332 
          40         1.92 -0.000123017 -6.74963e-05     -23.5332 
          40      2.25333 -0.000111932 -6.52166e-05     -23.5331 
          40      2.61333 -0.000105374 -5.99352e-05     -23.5331 
          40            3 -9.74816e-05 -5.25627e-05      -23.533 
          60            0           -0           -0     -23.0082 
          60     0.013333 -0.000133011 -2.61534e-08     -23.0082 
          60     0.053333 -0.000158626 -3.84751e-07     -23.0082 
          60         0.12 -0.000177213 -1.79646e-06     -23.0082 
          60     0.213332 -0.000171631 -5.02381e-06     -23.0082 
          60     0.333332 -0.000145287 -1.04502e-05     -23.0082 
          60         0.48 -0.000116924  -1.8102e-05     -23.0082 
          60     0.653331 -0.000105822 -2.79537e-05     -23.0082 
          60     0.853332 -0.000118403  -3.9669e-05     -23.0082 
          60         1.08  -0.00013442  -5.1718e-05     -23.0082 
          60      1.33333 -0.000133589 -6.21527e-05     -23.0082 
          60      1.61333 -0.000124179 -7.01305e-05     -23.0082 
          60         1.92 -0.000116938  -7.4893e-05     -23.0082 
          60      2.25333 -0.000108749 -7.57325e-05     -23.0081 
          60      2.61333 -9.91536e-05 -7.33684e-05     -23.0081 
          60            3 -9.10508e-05 -6.96157e-05     -23.0081 
          80            0           -0           -0     -22.4994 
          80     0.013333 -0.000130475  5.64473e-08     -22.4994 
          80     0.053333 -0.000177406  8.17846e-07     -22.4994 
          80         0.12 -0.000265562  3.38972e-06     -22.4994 
          80     0.213332 -0.000363349  7.98174e-06     -22.4994 
          80     0.333332  -0.00042785  1.34165e-05     -22.4994 
          80         0.48 -0.000446854  1.83292e-05     -22.4994 
          80     0.653331 -0.000431905  2.23818e-05     -22.4994 
          80     0.853332 -0.000393343  2.59489e-05     -22.4994 
          80         1.08 -0.000340588  2.89809e-05     -22.4994 
          80      1.33333 -0.000281755  3.12716e-05     -22.4994 
          80      1.61333 -0.000218182  3.25262e-05     -22.4994 
          80         1.92 -0.000149355  3.23659e-05     -22.4994 
          80      2.25333 -9.25259e-05  3.10492e-05     -22.4993 
          80      2.61333 -5.59922e-05  2.81211e-05     -22.4993 
          80            3 -4.05099e-05  2.37419e-05     -22.4993 
         100            0 -1.16361e-19 -2.42058e-25     -22.0006 
         100     0.013333 -9.74162e-05  8.60138e-08     -22.0006 
         100     0.053333 -7.38401e-05  1.30341e-06     -22.0006 
         100         0.12 -0.000103561  5.87306e-06     -22.0006 
         100     0.213332  -0.00019276  1.55016e-05     -22.0006 
         100     0.333332 -0.000293353  2.99861e-05     -22.0006 
         100         0.48 -0.000359454  4.78933e-05     -22.0006 
         100     0.653331 -0.000374256  6.81646e-05     -22.0006 
         100     0.853332 -0.000342244  9.01371e-05     -22.0006 
         100         1.08 -0.000291051  0.000112003     -22.0006 
         100      1.33333  -0.00024717  0.000131236     -22.0006 
         100      1.61333 -0.000204044  0.000146096     -22.0006 
         100         1.92 -0.000151649  0.000154881     -22.0006 
         100      2.25333 -0.000107653  0.000156721     -22.0006 
         100      2.61333 -7.39151e-05   0.00015233     -22.0005 
         100            3 -4.83549e-05  0.000143307     -22.0005 
         150            0           -0           -0     -20.7773 
         150     0.013333 -0.000109667  9.54802e-09     -20.7773 
         150     0.053333 -0.000101548  1.29867e-07     -20.7773 
         150         0.12 -9.76559e-05  4.95234e-07     -20.7773 
         150     0.213332 -9.65326e-05  1.10314e-06     -20.7773 
         150     0.333332 -9.53439e-05  1.90682e-06     -20.7773 
         150         0.48 -9.49137e-05  2.99931e-06     -20.7773 
         150     0.653331  -9.4329e-05  4.60808e-06     -20.7773 
         150     0.853332 -8.97601e-05  6.98017e-06     -20.7773 
         150         1.08 -8.12862e-05  1.00903e-05     -20.7773 
         150      1.33333 -7.66698e-05  1.34465e-05     -20.7773 
         150      1.61333 -7.90334e-05  1.64374e-05     -20.7773 
         150         1.92 -8.37176e-05  1.88059e-05     -20.7773 
         150      2.25333 -8.98905e-05  2.03476e-05     -20.7772 
         150      2.61333 -9.56979e-05  2.10668e-05     -20.7772 
         150            3 -9.85968e-05  2.12112e-05     -20.7772 
         200            0            0            0     -19.5688 
         200     0.013333 -6.10243e-05 -6.42904e-08     -19.5688 
         200     0.053333  8.28106e-05 -8.32828e-07     -19.5688 
         200         0.12   0.00026733 -2.90136e-06     -19.5688 
         200     0.213332  0.000415549 -5.15401e-06     -19.5688 
         200     0.333332  0.000480199 -5.22277e-06     -19.5688 
         200         0.48  0.000478049 -1.78697e-06     -19.5688 
         200     0.653331  0.000447968  4.27327e-06     -19.5688 
         200     0.853332  0.000398006  1.07101e-05     -19.5688 
         200         1.08  0.000319439  1.59611e-05     -19.5688 
         200      1.33333  0.000225948  2.01487e-05     -19.5688 
         200      1.61333  0.000129497  2.40271e-05     -19.5688 
         200         1.92  2.50674e-05  2.71777e-05     -19.5688 
         200      2.25333  -7.0918e-05   2.9158e-05     -19.5688 
         200      2.61333 -0.000149849  3.01067e-05     -19.5688 
         200            3 -0.000208556  2.99431e-05     -19.5688 
         250            0           -0           -0     -18.3658 
         250     0.013333 -5.17686e-05  8.50199e-08     -18.3658 
         250     0.053333  7.61175e-05  1.37852e-06     -18.3658 
         250         0.12  0.000152802  6.82033e-06     -18.3658 
         250     0.213332  0.000112619  1.97809e-05     -18.3658 
         250     0.333332 -3.74924e-06  4.15128e-05     -18.3658 
         250         0.48 -0.000109287  7.05376e-05     -18.3658 
         250     0.653331 -0.000151319  0.000104536     -18.3658 
         250     0.853332 -0.000133035  0.000141278     -18.3658 
         250         1.08 -0.000102081  0.000177573     -18.3658 
         250      1.33333 -9.98747e-05  0.000209885     -18.3658 
         250      1.61333 -0.000112266  0.000236506     -18.3658 
         250         1.92 -0.000117906  0.000255647     -18.3658 
         250      2.25333 -0.000123173  0.000265598     -18.3658 
         250      2.61333 -0.000128027  0.000265734     -18.3658 
         250            3 -0.000128729  0.000256567     -18.3658 
         300            0            0            0     -17.1645 
         300     0.013333 -9.81559e-05  3.35881e-08     -17.1645 
         300     0.053333 -7.12492e-05  5.09859e-07     -17.1645 
         300         0.12 -6.38308e-05  2.31537e-06     -17.1645 
         300     0.213332 -8.24636e-05  6.14926e-06     -17.1645 
         300     0.333332 -0.000107448  1.19227e-05     -17.1645 
         300         0.48 -0.000119934  1.90237e-05     -17.1645 
         300     0.653331 -0.000114937  2.70544e-05     -17.1645 
         300     0.853332 -9.50246e-05   3.5957e-05     -17.1645 
         300         1.08 -7.05234e-05  4.52528e-05     -17.1645 
         300      1.33333 -6.00718e-05  5.36263e-05     -17.1645 
         300      1.61333 -6.49296e-05  6.00412e-05     -17.1645 
         300         1.92 -7.01944e-05  6.42904e-05     -17.1645 
         300      2.25333 -7.48994e-05  6.61289e-05     -17.1645 
         300      2.61333 -8.07357e-05  6.54074e-05     -17.1644 
         300            3 -8.84824e-05  6.22419e-05     -17.1644 
         350            0           -0           -0     -15.9637 
         350     0.013333 -6.89757e-05  4.88286e-08     -15.9637 
         350     0.053333  2.44537e-05  8.06487e-07     -15.9637 
         350         0.12  8.36051e-05    4.108e-06     -15.9637 
         350     0.213332   5.4989e-05  1.23385e-05     -15.9637 
         350     0.333332 -4.08142e-05  2.67869e-05     -15.9637 
         350         0.48 -0.000139807  4.67006e-05     -15.9637 
         350     0.653331  -0.00019641  7.01762e-05     -15.9637 
         350     0.853332   -0.0002077  9.53648e-05     -15.9637 
         350         1.08 -0.000197346  0.000120617     -15.9637 
         350      1.33333 -0.000187601  0.000144388     -15.9637 
         350      1.61333 -0.000180918  0.000165469     -15.9637 
         350         1.92 -0.000169034   0.00018247     -15.9637 
         350      2.25333 -0.000153819  0.000194026     -15.9637 
         350      2.61333 -0.000136238   0.00019912     -15.9637 
         350            3 -0.000118001  0.000197312     -15.9637 
         400            0           -0           -0      -14.763 
         400     0.013333 -8.11383e-05 -1.05265e-07      -14.763 
         400     0.053333  2.68286e-05 -1.50634e-06      -14.763 
         400         0.12  0.000216019 -6.32181e-06      -14.763 
         400     0.213332  0.000441747 -1.54271e-05      -14.763 
         400     0.333332  0.000628711 -2.75097e-05      -14.763 
         400         0.48  0.000735336 -4.04641e-05      -14.763 
         400     0.653331  0.000770726 -5.33396e-05      -14.763 
         400     0.853332  0.000750183 -6.69246e-05      -14.763 
         400         1.08  0.000669612 -8.26675e-05      -14.763 
         400      1.33333  0.000541695 -0.000100448      -14.763 
         400      1.61333  0.000405384 -0.000117888      -14.763 
         400         1.92  0.000266156 -0.000132845      -14.763 
         400      2.25333  0.000123913 -0.000144198      -14.763 
         400      2.61333 -1.52016e-05 -0.000151111     -14.7631 
         400            3 -0.000139595 -0.000153068     -14.7631 
         450            0            0            0     -13.5629 
         450     0.013333 -8.21652e-05  3.82078e-08     -13.5629 
         450     0.053333 -1.86763e-05  6.14961e-07     -13.5629 
         450         0.12  1.50766e-05  3.06507e-06     -13.5629 
         450     0.213332 -2.21416e-05  9.13881e-06     -13.5629 
         450     0.333332 -0.000118998    1.997e-05     -13.5629 
         450         0.48 -0.000227903  3.53039e-05     -13.5629 
         450     0.653331 -0.000307381  5.38753e-05     -13.5629 
         450     0.853332 -0.000344548  7.43835e-05     -13.5629 
         450         1.08 -0.000345824  9.59779e-05     -13.5629 
         450      1.33333 -0.000323661  0.000117912     -13.5629 
         450      1.61333 -0.000291288  0.000139135     -13.5629 
         450         1.92 -0.000254526  0.000158112     -13.5629 
         450      2.25333 -0.000215403  0.000173338     -13.5629 
         450      2.61333 -0.000174858  0.000183608     -13.5629 
         450            3 -0.000135266  0.000188107     -13.5629 
         500            0           -0           -0     -12.3625 
         500     0.013333 -0.000205017 -9.85135e-08     -12.3625 
         500     0.053333 -0.000413168 -1.60566e-06     -12.3625 
         500         0.12 -0.000580185 -8.08301e-06     -12.3625 
         500     0.213332 -0.000580637 -2.41671e-05     -12.3625 
         500     0.333332 -0.000426331 -5.26661e-05     -12.3625 
         500         0.48 -0.000234565 -9.27709e-05     -12.3625 
         500     0.653331 -0.000109231 -0.000141436     -12.3625 
         500     0.853332 -7.87173e-05 -0.000195586     -12.3625 
         500         1.08 -0.000107256 -0.000252245     -12.3625 
         500      1.33333 -0.000132769 -0.000307817     -12.3625 
         500      1.61333 -0.000126165 -0.000358947     -12.3625 
         500         1.92 -0.000110764 -0.000403084     -12.3625 
         500      2.25333 -9.57695e-05 -0.000437593     -12.3625 
         500      2.61333 -8.28344e-05 -0.000459795     -12.3625 
         500            3 -7.29313e-05 -0.000467756     -12.3625 
         550            0            0            0     -11.1622 
         550     0.013333  -3.3495e-05  1.64602e-07     -11.1622 
         550     0.053333  0.000118473  2.55423e-06     -11.1622 
         550         0.12  0.000166309   1.2073e-05     -11.1622 
         550     0.213332  1.68913e-05  3.38831e-05     -11.1622 
         550     0.333332 -0.000257038    6.981e-05     -11.1622 
         550         0.48 -0.000505764  0.000117456     -11.1622 
         550     0.653331 -0.000634545  0.000172997     -11.1622 
         550     0.853332 -0.000633668   0.00023388     -11.1622 
         550         1.08 -0.000542813   0.00029825     -11.1622 
         550      1.33333 -0.000433229  0.000362664     -11.1622 
         550      1.61333 -0.000361048  0.000422435     -11.1622 
         550         1.92 -0.000306074  0.000473985     -11.1622 
         550      2.25333 -0.000247449  0.000514668     -11.1622 
         550      2.61333  -0.00018417  0.000541453     -11.1622 
         550            3 -0.000123458  0.000551931     -11.1622 
         600            0           -0           -0     -9.96165 
         600     0.013333 -0.000214737    -1.87e-07     -9.96165 
         600     0.053333 -0.000421768 -2.92464e-06     -9.96165 
         600         0.12 -0.000522231 -1.39888e-05     -9.96165 
         600     0.213332 -0.000379037 -3.98301e-05     -9.96165 
         600     0.333332 -5.39952e-05 -8.33214e-05     -9.96165 
         600         0.48  0.000271677 -0.000142185     -9.96165 
         600     0.653331  0.000464556 -0.000211837     -9.96165 
         600     0.853332  0.000497541 -0.000288755     -9.96165 
         600         1.08  0.000413234 -0.000370354     -9.96165 
         600      1.33333  0.000294237 -0.000452675     -9.96165 
         600      1.61333  0.000211343 -0.000530368     -9.96165 
         600         1.92  0.000152271  -0.00059905     -9.96165 
         600      2.25333  9.16604e-05 -0.000655013     -9.96165 
         600      2.61333  2.58264e-05 -0.000694394     -9.96165 
         600            3 -3.74135e-05 -0.000713978     -9.96166 
         650            0            0            0      -8.7613 
         650     0.013333   3.3375e-05  1.53245e-07      -8.7613 
         650     0.053333  0.000362503  2.45667e-06      -8.7613 
         650         0.12  0.000629795  1.21261e-05      -8.7613 
         650     0.213332  0.000654787  3.56264e-05      -8.7613 
         650     0.333332  0.000457989  7.66396e-05      -8.7613 
         650         0.48  0.000203984  0.000133923      -8.7613 
         650     0.653331  4.06296e-05  0.000203502      -8.7613 
         650     0.853332  1.70601e-05  0.000281801      -8.7613 
         650         1.08  9.39921e-05  0.000365462      -8.7613 
         650      1.33333  0.000170808  0.000449297      -8.7613 
         650      1.61333  0.000168907  0.000527299      -8.7613 
         650         1.92   0.00012003    0.0005958      -8.7613 
         650      2.25333  6.37242e-05  0.000651947      -8.7613 
         650      2.61333  9.02141e-06  0.000692271      -8.7613 
         650            3 -4.65898e-05  0.000713521      -8.7613 
         700            0           -0           -0     -7.56117 
         700     0.013333 -0.000218549 -1.06711e-07     -7.56117 
         700     0.053333 -0.000460535 -1.72414e-06     -7.56117 
         700         0.12 -0.000665324 -8.59606e-06     -7.56117 
         700     0.213332  -0.00069121  -2.5509e-05     -7.56117 
         700     0.333332  -0.00054274 -5.53504e-05     -7.56117 
         700         0.48 -0.000342114 -9.73489e-05     -7.56117 
         700     0.653331 -0.000205245 -0.000148535     -7.56117 
         700     0.853332  -0.00017412  -0.00020616     -7.56117 
         700         1.08 -0.000224725 -0.000267867     -7.56117 
         700      1.33333 -0.000283957 -0.000329894     -7.56117 
         700      1.61333 -0.000283614 -0.000387492     -7.56117 
         700         1.92 -0.000243223  -0.00043803     -7.56117 
         700      2.25333 -0.000199671 -0.000479508     -7.56116 
         700      2.61333 -0.000161109 -0.000509824     -7.56116 
         700            3 -0.000122223 -0.000526736     -7.56116 
         750            0            0            0     -6.36048 
         750     0.013333  2.68178e-05 -1.52531e-08     -6.36048 
         750     0.053333  0.000391362 -7.75876e-08     -6.36048 
         750         0.12  0.000830816  6.77194e-07     -6.36048 
         750     0.213332   0.00116636  5.16805e-06     -6.36048 
         750     0.333332   0.00129582  1.73736e-05     -6.36048 
         750         0.48   0.00125095  3.96688e-05     -6.36048 
         750     0.653331   0.00114081  7.14388e-05     -6.36048 
         750     0.853332   0.00104861   0.00011002     -6.36048 
         750         1.08   0.00098349  0.000152034     -6.36048 
         750      1.33333   0.00090288  0.000194062     -6.36048 
         750      1.61333  0.000773646   0.00023334     -6.36048 
         750         1.92  0.000611038  0.000268801     -6.36048 
         750      2.25333  0.000435963  0.000298991     -6.36049 
         750      2.61333  0.000254983  0.000322705      -6.3605 
         750            3  7.09566e-05  0.000338464     -6.36051 
         800            0           -0           -0     -5.16122 
         800     0.013333 -0.000201642  1.82142e-07     -5.16122 
         800     0.053333  -0.00049144  2.62123e-06     -5.16122 
         800         0.12  -0.00098251   1.1064e-05     -5.16122 
         800     0.213332  -0.00155054  2.69765e-05     -5.16122 
         800     0.333332  -0.00199637  4.73206e-05     -5.16122 
         800         0.48  -0.00220456  6.69079e-05     -5.16122 
         800     0.653331  -0.00220758  8.27834e-05     -5.16122 
         800     0.853332  -0.00209453  9.59438e-05     -5.16122 
         800         1.08  -0.00190997  0.000109551     -5.16122 
         800      1.33333  -0.00166697  0.000125418     -5.16122 
         800      1.61333  -0.00140464  0.000142236     -5.16122 
         800         1.92  -0.00115689  0.000157218     -5.16121 
         800      2.25333 -0.000904216  0.000169267      -5.1612 
         800      2.61333 -0.000636421  0.000177737     -5.16119 
         800            3 -0.000367082  0.000182009     -5.16117 
         850            0           -0           -0     -3.96001 
         850     0.013333  -0.00018995 -3.06852e-07     -3.96001 
         850     0.053333 -0.000291572 -4.70264e-06     -3.96001 
         850         0.12 -0.000157921 -2.18897e-05     -3.96001 
         850     0.213332  0.000329017 -6.05303e-05     -3.96001 
         850     0.333332   0.00100149 -0.000123007     -3.96001 
         850         0.48   0.00156218 -0.000204114     -3.96001 
         850     0.653331   0.00183566 -0.000296308     -3.96001 
         850     0.853332   0.00182387 -0.000395161     -3.96001 
         850         1.08   0.00161003 -0.000499244     -3.96001 
         850      1.33333   0.00131366 -0.000605441     -3.96001 
         850      1.61333    0.0010576   -0.0007074     -3.96001 
         850         1.92  0.000862436 -0.000799645     -3.96001 
         850      2.25333  0.000668495 -0.000878324     -3.96002 
         850      2.61333  0.000453848 -0.000940067     -3.96003 
         850            3  0.000230683 -0.000980804     -3.96004 
         900            0           -0           -0     -2.75951 
         900     0.013333  0.000266712  1.00992e-07     -2.75951 
         900     0.053333   0.00121578  1.93821e-06     -2.75951 
         900         0.12   0.00224866  1.16303e-05     -2.75951 
         900     0.213332   0.00285766  4.04784e-05     -2.75951 
         900     0.333332   0.00285224  9.96273e-05     -2.75951 
         900         0.48   0.00245088   0.00019259     -2.75951 
         900     0.653331   0.00202639  0.000314008     -2.75951 
         900     0.853332   0.00180408  0.000454598     -2.75951 
         900         1.08   0.00176416  0.000604479      -2.7595 
         900      1.33333   0.00171813  0.000752963     -2.75951 
         900      1.61333   0.00151395  0.000890892     -2.75951 
         900         1.92   0.00120907   0.00101491     -2.75951 
         900      2.25333  0.000892783   0.00112337     -2.75952 
         900      2.61333  0.000582766   0.00121152     -2.75954 
         900            3  0.000266967   0.00127331     -2.75956 
         950            0           -0           -0     -1.56144 
         950     0.013333 -0.000333548  3.51227e-07     -1.56144 
         950     0.053333  -0.00102493   5.0049e-06     -1.56144 
         950         0.12   -0.0021459  2.08115e-05     -1.56144 
         950     0.213332  -0.00341219  4.98264e-05     -1.56144 
         950     0.333332   -0.0044129  8.56329e-05     -1.56144 
         950         0.48  -0.00492326  0.000118347     -1.56145 
         950     0.653331  -0.00502276  0.000142681     -1.56145 
         950     0.853332   -0.0049037  0.000161108     -1.56145 
         950         1.08  -0.00463903  0.000181447     -1.56145 
         950      1.33333  -0.00418154  0.000211069     -1.56145 
         950      1.61333  -0.00356335   0.00025021     -1.56145 
         950         1.92  -0.00294666  0.000290891     -1.56144 
         950      2.25333  -0.00234926  0.000327468     -1.56142 
         950      2.61333  -0.00173954  0.000357595     -1.56139 
         950            3  -0.00110375  0.000380252     -1.56136 
        1000            0           -0           -0    -0.360439 
        1000     0.013333 -0.000285063 -1.61726e-07    -0.360439 
        1000     0.053333 -0.000697171 -2.56134e-06    -0.360439 
        1000         0.12  -0.00110413 -1.24375e-05    -0.360439 
        1000     0.213332  -0.00129012 -3.61313e-05    -0.360439 
        1000     0.333332  -0.00121885 -7.74905e-05    -0.360439 
        1000         0.48  -0.00101705 -0.000136066    -0.360439 
        1000     0.653331 -0.000836403 -0.000209018    -0.360439 
        1000     0.853332 -0.000766076 -0.000294138    -0.360439 
        1000         1.08 -0.000830878 -0.000390202    -0.360439 
        1000      1.33333 -0.000974555 -0.000493895    -0.360439 
        1000      1.61333  -0.00105557 -0.000597584    -0.360438 
        1000         1.92 -0.000987502 -0.000693196    -0.360437 
        1000      2.25333 -0.000847382 -0.000777205    -0.360435 
        1000      2.61333  -0.00069311 -0.000847043    -0.360432 
        1000            3 -0.000533147 -0.000899673    -0.360428 
