Variables = x, y, u, v, p

Zone, I=416, F=POINT
         -50            0 -4.76509e-19 -6.73278e-23     -161.399 
         -50     0.013333 -0.000423787 -1.29927e-07     -161.399 
         -50     0.053333  -0.00039735 -4.04115e-07     -161.399 
         -50         0.12  -0.00038748 -8.46278e-07     -161.399 
         -50     0.213332 -0.000385035 -1.27828e-06     -161.399 
         -50     0.333332 -0.000383021 -1.99003e-06     -161.399 
         -50         0.48 -0.000378823  -4.2553e-06     -161.398 
         -50     0.653331 -0.000376087 -5.38784e-06     -161.398 
         -50     0.853332 -0.000377152 -7.40151e-06     -161.397 
         -50         1.08 -0.000381769 -9.96212e-06     -161.396 
         -50      1.33333 -0.000385817 -1.25051e-05     -161.394 
         -50      1.61333 -0.000384126 -1.46021e-05     -161.392 
         -50         1.92 -0.000381832 -1.73971e-05     -161.389 
         -50      2.25333 -0.000374862 -1.82561e-05     -161.385 
         -50      2.61333 -0.000366886 -1.93017e-05     -161.381 
         -50            3 -0.000366692 -2.41449e-05     -161.375 
         -25            0           -0           -0     -154.908 
         -25     0.013333 -0.000310736 -5.17444e-08     -154.908 
         -25     0.053333 -0.000293699 -1.88009e-07     -154.908 
         -25         0.12 -0.000288571 -4.86909e-07     -154.908 
         -25     0.213332  -0.00028871 -9.81816e-07     -154.908 
         -25     0.333332  -0.00029019 -1.65361e-06     -154.908 
         -25         0.48 -0.000291099 -2.45673e-06     -154.908 
         -25     0.653331 -0.000292019 -3.68986e-06     -154.908 
         -25     0.853332 -0.000292402 -4.86671e-06     -154.908 
         -25         1.08 -0.000291108  -5.9475e-06     -154.907 
         -25      1.33333  -0.00028938 -6.99526e-06     -154.907 
         -25      1.61333 -0.000289988 -7.94262e-06     -154.906 
         -25         1.92 -0.000290505 -8.47567e-06     -154.905 
         -25      2.25333 -0.000302243  -9.3938e-06     -154.903 
         -25      2.61333  -0.00031209 -8.22904e-06     -154.902 
         -25            3 -0.000303483  -3.0521e-06     -154.899 
           0            0            0            0     -149.539 
           0     0.013333 -0.000856155  0.000583364     -149.546 
           0     0.053333 -0.000553896  0.000308672     -149.557 
           0         0.12 -0.000421712  0.000216136      -149.57 
           0     0.213332 -0.000356408  0.000168759     -149.584 
           0     0.333332 -0.000321798  0.000139166     -149.599 
           0         0.48 -0.000297831   0.00011675     -149.614 
           0     0.653331 -0.000281518  9.92755e-05     -149.628 
           0     0.853332 -0.000269719  8.50913e-05     -149.643 
           0         1.08  -0.00026083  7.32676e-05     -149.657 
           0      1.33333 -0.000253986  6.32493e-05     -149.671 
           0      1.61333 -0.000248509  5.46682e-05     -149.685 
           0         1.92 -0.000244566  4.72514e-05     -149.697 
           0      2.25333 -0.000243688  4.06318e-05     -149.709 
           0      2.61333 -0.000246432  3.44316e-05      -149.72 
           0            3 -0.000247288  2.84981e-05      -149.73 
          20            0            0            0     -146.321 
          20     0.013333 -0.000241545 -4.95828e-08     -146.321 
          20     0.053333 -0.000218443 -3.92034e-07     -146.321 
          20         0.12 -0.000193266 -1.50738e-06     -146.321 
          20     0.213332 -0.000168042 -3.62418e-06     -146.321 
          20     0.333332  -0.00015293 -6.44244e-06     -146.321 
          20         0.48 -0.000150013 -9.39432e-06     -146.321 
          20     0.653331 -0.000152203 -1.20224e-05     -146.321 
          20     0.853332 -0.000158141 -1.42724e-05     -146.321 
          20         1.08 -0.000172023 -1.63634e-05     -146.321 
          20      1.33333 -0.000189715 -1.80628e-05      -146.32 
          20      1.61333 -0.000208066 -1.91059e-05      -146.32 
          20         1.92 -0.000223318  -1.9174e-05     -146.319 
          20      2.25333 -0.000235951 -1.88729e-05     -146.318 
          20      2.61333 -0.000242076 -1.74099e-05     -146.317 
          20            3 -0.000237845 -1.37792e-05     -146.316 
          40            0            0            0     -142.946 
          40     0.013333 -0.000217089 -5.53064e-08     -142.946 
          40     0.053333 -0.000173561 -6.64956e-07     -142.946 
          40         0.12   -0.0001168 -2.61653e-06     -142.946 
          40     0.213332 -6.33501e-05 -5.95277e-06     -142.946 
          40     0.333332 -3.37168e-05 -9.83102e-06     -142.946 
          40         0.48 -2.92298e-05  -1.3541e-05     -142.946 
          40     0.653331 -4.27136e-05 -1.72365e-05     -142.946 
          40     0.853332 -7.12449e-05 -2.14722e-05     -142.946 
          40         1.08 -0.000107851 -2.59612e-05     -142.946 
          40      1.33333 -0.000142115 -2.97548e-05     -142.946 
          40      1.61333 -0.000175406 -3.21497e-05     -142.946 
          40         1.92 -0.000212758 -3.31309e-05     -142.946 
          40      2.25333 -0.000240217 -3.23175e-05     -142.945 
          40      2.61333 -0.000255053 -3.04301e-05     -142.945 
          40            3 -0.000261459 -2.85998e-05     -142.945 
          60            0           -0           -0     -139.747 
          60     0.013333  -0.00021202  -5.4547e-08     -139.747 
          60     0.053333 -0.000176301 -7.15655e-07     -139.747 
          60         0.12  -0.00012175 -2.96638e-06     -139.747 
          60     0.213332 -5.83704e-05 -7.18514e-06     -139.747 
          60     0.333332 -9.83474e-06 -1.27551e-05     -139.747 
          60         0.48  1.28098e-05 -1.88552e-05     -139.747 
          60     0.653331  9.53663e-06 -2.53331e-05     -139.747 
          60     0.853332 -1.93086e-05 -3.25429e-05     -139.747 
          60         1.08 -6.40047e-05 -4.01314e-05     -139.747 
          60      1.33333 -0.000106215  -4.6931e-05     -139.746 
          60      1.61333 -0.000144873 -5.19011e-05     -139.746 
          60         1.92 -0.000188153 -5.46955e-05     -139.746 
          60      2.25333    -0.000219 -5.46047e-05     -139.746 
          60      2.61333  -0.00023534 -5.21926e-05     -139.746 
          60            3 -0.000245032 -4.90566e-05     -139.746 
          80            0           -0           -0     -136.647 
          80     0.013333 -0.000225147 -3.69242e-08     -136.647 
          80     0.053333 -0.000239218 -5.25448e-07     -136.647 
          80         0.12 -0.000244799 -2.43332e-06     -136.647 
          80     0.213332 -0.000224399  -6.6995e-06     -136.647 
          80     0.333332 -0.000189207 -1.35641e-05     -136.647 
          80         0.48 -0.000160495 -2.26125e-05     -136.647 
          80     0.653331 -0.000152076 -3.33335e-05     -136.647 
          80     0.853332 -0.000163421 -4.51584e-05     -136.647 
          80         1.08 -0.000179131 -5.69347e-05     -136.647 
          80      1.33333 -0.000185936 -6.72433e-05     -136.647 
          80      1.61333 -0.000188431 -7.51561e-05     -136.646 
          80         1.92 -0.000193583 -7.98589e-05     -136.646 
          80      2.25333 -0.000196359 -8.06457e-05     -136.646 
          80      2.61333 -0.000196596 -7.82116e-05     -136.646 
          80            3  -0.00019819 -7.45793e-05     -136.646 
         100            0            0            0     -133.609 
         100     0.013333 -0.000225787  3.87065e-09     -133.609 
         100     0.053333 -0.000259999  4.67078e-08     -133.609 
         100         0.12 -0.000310232   -2.106e-08     -133.609 
         100     0.213332 -0.000348733 -7.58171e-07     -133.609 
         100     0.333332 -0.000364504 -2.80678e-06     -133.609 
         100         0.48 -0.000365685 -6.38806e-06     -133.609 
         100     0.653331 -0.000363597 -1.11867e-05     -133.609 
         100     0.853332 -0.000356784  -1.6437e-05     -133.609 
         100         1.08 -0.000336812 -2.12875e-05     -133.609 
         100      1.33333 -0.000305527 -2.52465e-05     -133.609 
         100      1.61333 -0.000269517 -2.82811e-05     -133.609 
         100         1.92 -0.000229933 -3.00796e-05     -133.609 
         100      2.25333 -0.000195688 -3.02949e-05     -133.609 
         100      2.61333 -0.000171378 -2.93796e-05     -133.609 
         100            3 -0.000156211 -2.71921e-05     -133.609 
         150            0           -0           -0     -126.161 
         150     0.013333 -0.000191362  -2.3817e-08     -126.161 
         150     0.053333 -0.000142374 -3.16285e-07     -126.161 
         150         0.12 -8.41153e-05 -1.21783e-06     -126.161 
         150     0.213332  -3.1123e-05 -2.63476e-06     -126.161 
         150     0.333332  2.60278e-06 -4.01055e-06     -126.161 
         150         0.48  1.68984e-05 -4.85461e-06     -126.161 
         150     0.653331  1.81051e-05 -5.17119e-06     -126.161 
         150     0.853332  6.81886e-06 -5.46138e-06     -126.161 
         150         1.08 -1.98649e-05 -6.16503e-06     -126.161 
         150      1.33333 -5.55286e-05 -7.15929e-06     -126.161 
         150      1.61333 -9.39523e-05 -7.98783e-06     -126.161 
         150         1.92 -0.000136378 -8.55192e-06     -126.161 
         150      2.25333 -0.000173574 -8.83192e-06      -126.16 
         150      2.61333 -0.000202984 -8.75832e-06      -126.16 
         150            3 -0.000225583 -8.41063e-06      -126.16 
         200            0 -4.64055e-19 -2.71164e-25     -118.803 
         200     0.013333 -0.000213937 -5.31058e-08     -118.803 
         200     0.053333 -0.000216721 -8.10278e-07     -118.803 
         200         0.12 -0.000194193 -3.73256e-06     -118.803 
         200     0.213332  -0.00013402 -1.00879e-05     -118.803 
         200     0.333332 -6.45412e-05 -1.98729e-05     -118.803 
         200         0.48 -1.93404e-05 -3.20082e-05     -118.803 
         200     0.653331 -9.84944e-06 -4.54562e-05     -118.803 
         200     0.853332 -2.81563e-05 -5.95726e-05     -118.803 
         200         1.08 -5.72291e-05 -7.34836e-05     -118.803 
         200      1.33333 -8.30744e-05 -8.60453e-05     -118.803 
         200      1.61333 -0.000107393 -9.63369e-05     -118.803 
         200         1.92 -0.000136973 -0.000103358     -118.803 
         200      2.25333 -0.000165213 -0.000106489     -118.803 
         200      2.61333 -0.000189652 -0.000105513     -118.803 
         200            3 -0.000209088 -0.000100835     -118.803 
         250            0           -0           -0     -111.474 
         250     0.013333 -0.000214034  -7.0575e-08     -111.474 
         250     0.053333  -0.00021487 -1.05142e-06     -111.474 
         250         0.12 -0.000183793 -4.68257e-06     -111.474 
         250     0.213332 -0.000110894 -1.22643e-05     -111.474 
         250     0.333332 -2.88501e-05 -2.36376e-05     -111.474 
         250         0.48  2.78226e-05 -3.77253e-05     -111.474 
         250     0.653331  4.57358e-05  -5.3812e-05     -111.474 
         250     0.853332  2.48167e-05 -7.18058e-05     -111.474 
         250         1.08 -2.17319e-05 -9.10522e-05     -111.474 
         250      1.33333 -6.49377e-05 -0.000109603     -111.474 
         250      1.61333 -9.55316e-05 -0.000125443     -111.474 
         250         1.92 -0.000129207 -0.000137332     -111.474 
         250      2.25333 -0.000161684 -0.000144226     -111.474 
         250      2.61333 -0.000191672 -0.000145762     -111.474 
         250            3 -0.000218003 -0.000142017     -111.474 
         300            0           -0           -0     -104.154 
         300     0.013333 -0.000208664  1.14469e-08     -104.154 
         300     0.053333 -0.000217315  1.61828e-07     -104.154 
         300         0.12 -0.000244347  6.56962e-07     -104.154 
         300     0.213332 -0.000274803  1.49573e-06     -104.154 
         300     0.333332 -0.000293782  2.35897e-06     -104.154 
         300         0.48 -0.000296514  2.87097e-06     -104.154 
         300     0.653331 -0.000288651  2.90702e-06     -104.154 
         300     0.853332 -0.000276343  2.57558e-06     -104.154 
         300         1.08  -0.00026297  1.95873e-06     -104.154 
         300      1.33333 -0.000248633  1.16719e-06     -104.154 
         300      1.61333 -0.000231438  3.41544e-07     -104.154 
         300         1.92 -0.000211809 -3.22561e-07     -104.154 
         300      2.25333 -0.000192764 -9.90003e-07     -104.154 
         300      2.61333 -0.000175712 -1.48632e-06     -104.154 
         300            3 -0.000160892 -1.66786e-06     -104.154 
         350            0           -0           -0     -96.8356 
         350     0.013333 -0.000183658  4.46277e-08     -96.8356 
         350     0.053333 -0.000137897  6.88463e-07     -96.8356 
         350         0.12 -0.000125698  3.21757e-06     -96.8356 
         350     0.213332 -0.000161996   8.8842e-06     -96.8356 
         350     0.333332 -0.000223536  1.79815e-05     -96.8356 
         350         0.48 -0.000274642  2.98253e-05     -96.8356 
         350     0.653331  -0.00029669  4.36024e-05     -96.8356 
         350     0.853332 -0.000288522   5.8818e-05     -96.8356 
         350         1.08 -0.000262328  7.47794e-05     -96.8356 
         350      1.33333 -0.000238598  9.01847e-05     -96.8356 
         350      1.61333 -0.000224506  0.000103797     -96.8356 
         350         1.92 -0.000210014   0.00011472     -96.8356 
         350      2.25333 -0.000195091  0.000122186     -96.8356 
         350      2.61333 -0.000180774  0.000125548     -96.8356 
         350            3 -0.000168016  0.000124543     -96.8356 
         400            0           -0           -0     -89.5161 
         400     0.013333 -0.000181852  3.41154e-08     -89.5161 
         400     0.053333 -0.000130199   5.5109e-07     -89.5161 
         400         0.12 -0.000110324  2.72575e-06     -89.5161 
         400     0.213332  -0.00014313  7.92464e-06     -89.5161 
         400     0.333332 -0.000207292  1.66533e-05     -89.5161 
         400         0.48 -0.000261583  2.81866e-05     -89.5161 
         400     0.653331 -0.000283121  4.13459e-05     -89.5161 
         400     0.853332 -0.000275223  5.51513e-05     -89.5161 
         400         1.08 -0.000257689  6.85898e-05     -89.5161 
         400      1.33333 -0.000248237  8.05958e-05     -89.5161 
         400      1.61333 -0.000243588  9.06758e-05     -89.5161 
         400         1.92 -0.000233252  9.86648e-05     -89.5161 
         400      2.25333 -0.000219593  0.000103766     -89.5161 
         400      2.61333 -0.000205391  0.000105635     -89.5161 
         400            3 -0.000192149  0.000104135     -89.5161 
         450            0 -2.11167e-19  1.68347e-26      -82.194 
         450     0.013333 -0.000157956 -1.88371e-08      -82.194 
         450     0.053333 -3.02735e-05 -1.96809e-07      -82.194 
         450         0.12  0.000111583 -3.31175e-07      -82.194 
         450     0.213332  0.000209048  7.92535e-07      -82.194 
         450     0.333332  0.000235962  4.76262e-06      -82.194 
         450         0.48  0.000217363  1.21689e-05      -82.194 
         450     0.653331  0.000192953  2.22005e-05      -82.194 
         450     0.853332  0.000175882  3.31951e-05      -82.194 
         450         1.08  0.000146306  4.31932e-05      -82.194 
         450      1.33333  8.91201e-05  5.10013e-05      -82.194 
         450      1.61333  2.25065e-05   5.7064e-05      -82.194 
         450         1.92 -3.97935e-05  6.18359e-05      -82.194 
         450      2.25333 -9.99731e-05  6.51039e-05      -82.194 
         450      2.61333 -0.000156918  6.64223e-05      -82.194 
         450            3 -0.000206217  6.55464e-05     -82.1941 
         500            0            0            0     -74.8688 
         500     0.013333 -0.000201566  -5.8672e-08     -74.8688 
         500     0.053333 -0.000172174 -8.63781e-07     -74.8688 
         500         0.12 -0.000109563 -3.77768e-06     -74.8688 
         500     0.213332 -1.63912e-05 -9.68112e-06     -74.8688 
         500     0.333332  7.19481e-05  -1.8186e-05     -74.8688 
         500         0.48  0.000125622  -2.8171e-05     -74.8688 
         500     0.653331  0.000140407 -3.89569e-05     -74.8688 
         500     0.853332  0.000122821 -5.07561e-05     -74.8688 
         500         1.08  7.65225e-05 -6.39691e-05     -74.8688 
         500      1.33333  1.75243e-05 -7.79259e-05     -74.8688 
         500      1.61333 -3.01918e-05 -9.09334e-05     -74.8688 
         500         1.92 -7.07989e-05 -0.000101722     -74.8688 
         500      2.25333 -0.000112019 -0.000109921     -74.8688 
         500      2.61333 -0.000153425 -0.000114892     -74.8688 
         500            3 -0.000190551 -0.000116124     -74.8688 
         550            0           -0           -0     -67.5401 
         550     0.013333 -0.000217639  2.45463e-08     -67.5401 
         550     0.053333 -0.000252498  3.42667e-07     -67.5401 
         550         0.12 -0.000319671  1.37787e-06     -67.5401 
         550     0.213332 -0.000392311  3.14105e-06     -67.5401 
         550     0.333332 -0.000441634  5.05233e-06     -67.5401 
         550         0.48 -0.000457571  6.41422e-06     -67.5401 
         550     0.653331 -0.000450763  6.96833e-06     -67.5401 
         550     0.853332 -0.000434003  6.97093e-06     -67.5401 
         550         1.08 -0.000410804    6.912e-06     -67.5401 
         550      1.33333 -0.000378964  7.18838e-06     -67.5401 
         550      1.61333 -0.000340757  7.79406e-06     -67.5401 
         550         1.92 -0.000301725  8.43513e-06     -67.5401 
         550      2.25333 -0.000261923  8.87096e-06     -67.5401 
         550      2.61333 -0.000221869  9.11096e-06     -67.5401 
         550            3 -0.000184007  9.19741e-06     -67.5401 
         600            0           -0           -0     -60.2077 
         600     0.013333 -0.000161081  -3.2116e-08     -60.2077 
         600     0.053333 -3.49684e-05 -4.16304e-07     -60.2077 
         600         0.12  0.000120514 -1.43471e-06     -60.2077 
         600     0.213332  0.000250326 -2.40579e-06     -60.2077 
         600     0.333332  0.000312372 -1.78681e-06     -60.2077 
         600         0.48  0.000311756  1.55162e-06     -60.2077 
         600     0.653331  0.000283453   7.3741e-06     -60.2077 
         600     0.853332  0.000250368  1.43388e-05     -60.2077 
         600         1.08   0.00020715  2.08631e-05     -60.2077 
         600      1.33333  0.000146491  2.61938e-05     -60.2077 
         600      1.61333  8.02398e-05  3.06626e-05     -60.2077 
         600         1.92  1.68108e-05  3.48229e-05     -60.2077 
         600      2.25333 -4.78649e-05  3.83228e-05     -60.2077 
         600      2.61333 -0.000113678  4.09023e-05     -60.2077 
         600            3 -0.000175798  4.23807e-05     -60.2077 
         650            0            0            0     -52.8734 
         650     0.013333 -0.000277805 -2.85382e-08     -52.8734 
         650     0.053333 -0.000449276 -5.43084e-07     -52.8734 
         650         0.12 -0.000627827 -3.21044e-06     -52.8734 
         650     0.213332 -0.000703453 -1.09394e-05     -52.8734 
         650     0.333332 -0.000651925 -2.62322e-05     -52.8734 
         650         0.48 -0.000541232 -4.93019e-05     -52.8734 
         650     0.653331 -0.000455528 -7.82021e-05     -52.8734 
         650     0.853332 -0.000426257 -0.000110297     -52.8734 
         650         1.08 -0.000425378 -0.000142849     -52.8734 
         650      1.33333  -0.00040411 -0.000173251     -52.8734 
         650      1.61333 -0.000351993 -0.000200183     -52.8734 
         650         1.92 -0.000299786 -0.000223521     -52.8734 
         650      2.25333 -0.000252503 -0.000242618     -52.8734 
         650      2.61333 -0.000207279 -0.000255983     -52.8734 
         650            3 -0.000164608 -0.000262371     -52.8734 
         700            0            0            0     -45.5371 
         700     0.013333 -8.94225e-05  6.60767e-08     -45.5371 
         700     0.053333   0.00019233  1.13386e-06     -45.5371 
         700         0.12  0.000456483  6.06438e-06     -45.5371 
         700     0.213332  0.000556589  1.91716e-05     -45.5371 
         700     0.333332  0.000473368  4.37457e-05     -45.5371 
         700         0.48  0.000310532  7.98259e-05     -45.5371 
         700     0.653331  0.000185273  0.000124831     -45.5371 
         700     0.853332  0.000146887   0.00017566     -45.5371 
         700         1.08  0.000167798  0.000229146     -45.5371 
         700      1.33333    0.0001758   0.00028142     -45.5371 
         700      1.61333  0.000126468  0.000329016     -45.5371 
         700         1.92  5.41326e-05  0.000370894     -45.5371 
         700      2.25333 -1.81576e-05  0.000405543     -45.5371 
         700      2.61333 -8.79253e-05  0.000430998     -45.5371 
         700            3 -0.000157026  0.000445297     -45.5371 
         750            0           -0           -0     -38.1994 
         750     0.013333 -0.000307542   -2.091e-08     -38.1994 
         750     0.053333  -0.00056191   -4.352e-07     -38.1994 
         750         0.12 -0.000857996 -2.76637e-06     -38.1994 
         750     0.213332   -0.0010561 -9.91565e-06     -38.1994 
         750     0.333332  -0.00110071 -2.47008e-05     -38.1994 
         750         0.48  -0.00104219  -4.7992e-05     -38.1994 
         750     0.653331 -0.000970346 -7.86268e-05     -38.1994 
         750     0.853332 -0.000939978 -0.000114614     -38.1994 
         750         1.08 -0.000943777  -0.00015339     -38.1994 
         750      1.33333 -0.000923518  -0.00019145     -38.1994 
         750      1.61333  -0.00083626 -0.000225592     -38.1994 
         750         1.92 -0.000713834 -0.000255014     -38.1994 
         750      2.25333 -0.000585006 -0.000279407     -38.1994 
         750      2.61333  -0.00045493 -0.000297641     -38.1994 
         750            3 -0.000322626 -0.000308273     -38.1994 
         800            0            0            0     -30.8581 
         800     0.013333  -0.00019548  5.45487e-09     -30.8581 
         800     0.053333 -0.000167993  9.90012e-08     -30.8581 
         800         0.12 -0.000152188  5.43311e-07     -30.8581 
         800     0.213332  -0.00015072  1.66456e-06     -30.8581 
         800     0.333332 -0.000153304  3.48289e-06     -30.8581 
         800         0.48  -0.00014482  5.59266e-06     -30.8581 
         800     0.653331 -0.000120294  7.56493e-06     -30.8581 
         800     0.853332 -8.43663e-05   9.2705e-06     -30.8581 
         800         1.08 -4.80905e-05   1.0551e-05     -30.8581 
         800      1.33333 -3.17361e-05  1.06296e-05     -30.8581 
         800      1.61333 -4.88634e-05  8.59823e-06     -30.8581 
         800         1.92 -7.93518e-05  4.98088e-06     -30.8581 
         800      2.25333 -0.000106392  4.80268e-07     -30.8581 
         800      2.61333 -0.000129296 -4.25269e-06     -30.8581 
         800            3 -0.000152363 -8.93389e-06     -30.8581 
         850            0           -0           -0     -23.5142 
         850     0.013333 -0.000237544 -4.37312e-08     -23.5142 
         850     0.053333 -0.000302205 -6.92116e-07     -23.5142 
         850         0.12 -0.000352295 -3.37467e-06     -23.5142 
         850     0.213332 -0.000333637 -9.85835e-06     -23.5142 
         850     0.333332 -0.000246673 -2.12408e-05     -23.5142 
         850         0.48 -0.000136431 -3.73358e-05     -23.5142 
         850     0.653331  -4.9952e-05 -5.71019e-05     -23.5142 
         850     0.853332 -8.24371e-06 -7.95477e-05     -23.5142 
         850         1.08 -1.04694e-05 -0.000104045     -23.5142 
         850      1.33333 -3.93676e-05  -0.00012975     -23.5142 
         850      1.61333 -6.74254e-05  -0.00015512     -23.5142 
         850         1.92 -8.33045e-05 -0.000178752     -23.5142 
         850      2.25333 -9.74959e-05 -0.000199572     -23.5142 
         850      2.61333 -0.000114578 -0.000216692     -23.5142 
         850            3 -0.000132916 -0.000229081     -23.5142 
         900            0           -0           -0     -16.1682 
         900     0.013333 -0.000187321 -6.70169e-08     -16.1682 
         900     0.053333 -0.000112332 -9.99029e-07     -16.1682 
         900         0.12  2.85223e-05 -4.46893e-06     -16.1682 
         900     0.213332   0.00022785 -1.18095e-05     -16.1682 
         900     0.333332   0.00042992 -2.28994e-05     -16.1682 
         900         0.48  0.000574191 -3.62672e-05     -16.1682 
         900     0.653331  0.000638693 -5.03129e-05     -16.1682 
         900     0.853332  0.000638931 -6.43331e-05     -16.1682 
         900         1.08  0.000597024 -7.84734e-05     -16.1682 
         900      1.33333  0.000527528 -9.29451e-05     -16.1682 
         900      1.61333  0.000441628 -0.000107543     -16.1682 
         900         1.92    0.0003471  -0.00012152     -16.1682 
         900      2.25333  0.000245141 -0.000134072     -16.1682 
         900      2.61333  0.000136257 -0.000144433     -16.1682 
         900            3  2.26594e-05 -0.000151836     -16.1682 
         950            0           -0           -0     -8.82026 
         950     0.013333 -0.000115883  5.51741e-10     -8.82026 
         950     0.053333  0.000122255   9.6015e-08     -8.82026 
         950         0.12  0.000397409  1.04538e-06     -8.82026 
         950     0.213332  0.000599495  4.81835e-06     -8.82026 
         950     0.333332  0.000667324  1.38652e-05     -8.82026 
         950         0.48  0.000626341  2.94921e-05     -8.82026 
         950     0.653331  0.000550341  5.11192e-05     -8.82026 
         950     0.853332  0.000496121  7.69644e-05     -8.82026 
         950         1.08  0.000469283  0.000104817     -8.82026 
         950      1.33333  0.000435561  0.000132406     -8.82026 
         950      1.61333  0.000366638  0.000157983     -8.82026 
         950         1.92  0.000275823  0.000180985     -8.82027 
         950      2.25333  0.000179492  0.000201421     -8.82027 
         950      2.61333   8.1372e-05  0.000218332     -8.82028 
         950            3 -1.96394e-05  0.000230543     -8.82028 
        1000            0 -2.28815e-19  1.49481e-24     -1.47033 
        1000     0.013333 -0.000208266  1.01472e-07     -1.47033 
        1000     0.053333 -0.000236518  1.46308e-06     -1.47033 
        1000         0.12 -0.000347227   6.4873e-06     -1.47033 
        1000     0.213332  -0.00053546  1.70482e-05     -1.47033 
        1000     0.333332  -0.00074265  3.29816e-05     -1.47033 
        1000         0.48 -0.000900893  5.23961e-05     -1.47033 
        1000     0.653331 -0.000980413  7.33484e-05     -1.47033 
        1000     0.853332  -0.00098782   9.5139e-05     -1.47033 
        1000         1.08  -0.00093721  0.000118259     -1.47033 
        1000      1.33333 -0.000840507  0.000143142     -1.47033 
        1000      1.61333 -0.000724418  0.000168904     -1.47033 
        1000         1.92 -0.000621287  0.000193559     -1.47033 
        1000      2.25333 -0.000526522  0.000215342     -1.47033 
        1000      2.61333 -0.000429665  0.000233375     -1.47032 
        1000            3 -0.000329578  0.000246908     -1.47032 
