Variables = x, y, u, v, p

Zone, I=416, F=POINT
         -50            0            0            0      115.429 
         -50     0.013333  0.000154142  4.06417e-08      115.429 
         -50     0.053333  0.000137992  2.10558e-07      115.429 
         -50         0.12  0.000116427   7.0316e-07      115.429 
         -50     0.213332  9.33991e-05   1.6484e-06      115.429 
         -50     0.333332  7.37004e-05  2.76495e-06      115.429 
         -50         0.48  6.10023e-05  3.36129e-06      115.429 
         -50     0.653331  5.70082e-05  5.09828e-06      115.429 
         -50     0.853332  6.29033e-05  6.30641e-06      115.428 
         -50         1.08  7.56575e-05  7.43476e-06      115.428 
         -50      1.33333  9.41155e-05   9.1617e-06      115.428 
         -50      1.61333  0.000119228  1.06466e-05      115.427 
         -50         1.92  0.000141131  1.05072e-05      115.426 
         -50      2.25333  0.000155443  1.17663e-05      115.425 
         -50      2.61333  0.000167162  1.50135e-05      115.424 
         -50            3  0.000177115  1.79768e-05      115.422 
         -25            0           -0           -0      112.369 
         -25     0.013333  0.000126503  1.41112e-08      112.369 
         -25     0.053333  0.000102003  8.63443e-08      112.369 
         -25         0.12  7.76841e-05  1.60655e-07      112.369 
         -25     0.213332  6.51167e-05 -1.13805e-07      112.369 
         -25     0.333332  6.57849e-05 -1.15084e-06      112.369 
         -25         0.48  7.27263e-05  -3.0638e-06      112.369 
         -25     0.653331  7.94943e-05 -5.76414e-06      112.369 
         -25     0.853332  8.64829e-05 -8.59104e-06      112.369 
         -25         1.08  9.53297e-05 -1.12171e-05      112.369 
         -25      1.33333   0.00010297 -1.34785e-05      112.369 
         -25      1.61333  0.000108967 -1.48889e-05      112.369 
         -25         1.92  0.000115213  -1.5851e-05      112.368 
         -25      2.25333   0.00011813 -1.50215e-05      112.368 
         -25      2.61333  0.000120916 -1.26406e-05      112.368 
         -25            3  0.000125499 -1.13259e-05      112.367 
           0            0            0            0      109.437 
           0     0.013333  0.000406102 -0.000238219       109.44 
           0     0.053333  0.000265917 -0.000135509      109.446 
           0         0.12  0.000220988 -9.68839e-05      109.453 
           0     0.213332  0.000210568 -7.79773e-05       109.46 
           0     0.333332  0.000204667 -6.72246e-05      109.468 
           0         0.48  0.000195767  -6.1893e-05      109.476 
           0     0.653331  0.000183719  -5.9883e-05      109.483 
           0     0.853332  0.000171129 -6.00434e-05      109.491 
           0         1.08  0.000163472 -6.12269e-05      109.498 
           0      1.33333  0.000160035 -6.25715e-05      109.506 
           0      1.61333   0.00015512 -6.33524e-05      109.513 
           0         1.92  0.000147356 -6.31891e-05       109.52 
           0      2.25333  0.000139868 -6.18133e-05      109.526 
           0      2.61333  0.000126139 -6.15148e-05      109.533 
           0            3   0.00010713  -6.1104e-05      109.539 
          20            0 -1.50188e-05  0.000331012      107.574 
          20     0.013333 -3.96713e-06  0.000330414      107.574 
          20     0.053333  2.90854e-05  0.000328018      107.574 
          20         0.12  8.25098e-05  0.000321903      107.574 
          20     0.213332  0.000148847  0.000308679      107.574 
          20     0.333332  0.000211949  0.000283167      107.574 
          20         0.48  0.000234612  0.000240858      107.574 
          20     0.653331  0.000235496  0.000182046      107.574 
          20     0.853332  0.000249627  0.000110096      107.574 
          20         1.08  0.000303498  3.47548e-05      107.574 
          20      1.33333  0.000392622 -3.69782e-05      107.574 
          20      1.61333  0.000477671  -0.00010171      107.574 
          20         1.92  0.000537003 -0.000154631      107.573 
          20      2.25333  0.000561137 -0.000192415      107.573 
          20      2.61333  0.000543653 -0.000217205      107.573 
          20            3  0.000494585 -0.000230603      107.573 
          40            0            0            0      105.577 
          40     0.013333 -0.000585662  1.68333e-06      105.577 
          40     0.053333  -0.00267816  2.20375e-05      105.577 
          40         0.12  -0.00551167  8.26451e-05      105.577 
          40     0.213332  -0.00781621   0.00017779      105.576 
          40     0.333332  -0.00856692  0.000298774      105.576 
          40         0.48  -0.00809894  0.000434231      105.576 
          40     0.653331  -0.00806072  0.000481999      105.576 
          40     0.853332  -0.00817403  0.000412974      105.576 
          40         1.08  -0.00711994  0.000320661      105.575 
          40      1.33333  -0.00504615  0.000244249      105.575 
          40      1.61333  -0.00265352  0.000179494      105.574 
          40         1.92 -0.000389064  0.000124018      105.573 
          40      2.25333    0.0013964   7.8967e-05      105.572 
          40      2.61333   0.00247477   4.4216e-05       105.57 
          40            3   0.00287333  1.89311e-05      105.569 
          60            0            0            0      103.422 
          60     0.013333 -0.000213855  9.98807e-07      103.422 
          60     0.053333  -0.00131311  1.40395e-05      103.422 
          60         0.12  -0.00310071  5.74854e-05      103.422 
          60     0.213332  -0.00503122  0.000135429      103.422 
          60     0.333332  -0.00643005  0.000229514      103.422 
          60         0.48  -0.00704391  0.000316534      103.422 
          60     0.653331   -0.0070617  0.000388505      103.422 
          60     0.853332  -0.00676313  0.000454592      103.422 
          60         1.08  -0.00605842  0.000530523      103.422 
          60      1.33333  -0.00465342  0.000629897      103.422 
          60      1.61333  -0.00279696  0.000732138      103.422 
          60         1.92 -0.000967372  0.000807665      103.422 
          60      2.25333  0.000549347  0.000848198      103.422 
          60      2.61333   0.00157555  0.000845785      103.422 
          60            3   0.00206944  0.000811946      103.422 
          80            0           -0           -0       101.32 
          80     0.013333  0.000193453  2.09533e-06       101.32 
          80     0.053333 -0.000135524  3.06464e-05       101.32 
          80         0.12  -0.00161658  0.000131611       101.32 
          80     0.213332  -0.00393313  0.000326509       101.32 
          80     0.333332  -0.00595008  0.000590285       101.32 
          80         0.48  -0.00687947   0.00089209       101.32 
          80     0.653331  -0.00629164   0.00124336       101.32 
          80     0.853332   -0.0040881   0.00166384       101.32 
          80         1.08  -0.00174001   0.00208586       101.32 
          80      1.33333 -0.000655189   0.00241643       101.32 
          80      1.61333 -0.000147311   0.00263958       101.32 
          80         1.92  0.000387141   0.00275098       101.32 
          80      2.25333  0.000869706   0.00273795       101.32 
          80      2.61333    0.0011849   0.00260957       101.32 
          80            3   0.00130712   0.00239991       101.32 
         100            0            0            0      99.2265 
         100     0.013333  0.000196348  1.06198e-06      99.2265 
         100     0.053333  0.000165972  1.50939e-05      99.2265 
         100         0.12 -0.000296181  6.25826e-05      99.2265 
         100     0.213332   -0.0010693  0.000151066      99.2265 
         100     0.333332  -0.00176191  0.000270846      99.2265 
         100         0.48  -0.00212161  0.000414931      99.2265 
         100     0.653331  -0.00187044  0.000597169      99.2265 
         100     0.853332 -0.000703592   0.00083686      99.2265 
         100         1.08  0.000546026   0.00109134      99.2265 
         100      1.33333  0.000637266   0.00127647      99.2265 
         100      1.61333  0.000396254   0.00138724      99.2265 
         100         1.92  0.000446684   0.00144849      99.2266 
         100      2.25333  0.000536064    0.0014522      99.2266 
         100      2.61333  0.000556432   0.00139767      99.2267 
         100            3  0.000538877   0.00129907      99.2267 
         150            0  2.29014e-19  -5.1744e-26      93.9979 
         150     0.013333  0.000423793 -1.17024e-07      93.9979 
         150     0.053333   0.00118758 -9.73834e-07      93.9979 
         150         0.12   0.00203378   5.3457e-07      93.9979 
         150     0.213332   0.00253471   1.5665e-05      93.9979 
         150     0.333332   0.00257653   5.6578e-05      93.9979 
         150         0.48   0.00238887  0.000125244      93.9979 
         150     0.653331   0.00219747  0.000212447      93.9979 
         150     0.853332   0.00199526  0.000303333      93.9979 
         150         1.08   0.00167639  0.000386016      93.9979 
         150      1.33333   0.00125566  0.000454296      93.9979 
         150      1.61333  0.000825695  0.000507568      93.9979 
         150         1.92  0.000432315  0.000543642      93.9979 
         150      2.25333  6.71925e-05  0.000556127      93.9978 
         150      2.61333 -0.000236707  0.000545865      93.9978 
         150            3 -0.000424776  0.000516136      93.9977 
         200            0           -0           -0      88.7645 
         200     0.013333  -4.6529e-05  2.52839e-07      88.7645 
         200     0.053333 -0.000515069  3.12263e-06      88.7645 
         200         0.12  -0.00108095  9.80399e-06      88.7645 
         200     0.213332  -0.00144228  1.37901e-05      88.7645 
         200     0.333332  -0.00147197  5.31926e-06      88.7645 
         200         0.48   -0.0013181 -1.77828e-05      88.7645 
         200     0.653331  -0.00114261 -4.72132e-05      88.7645 
         200     0.853332 -0.000908997 -6.94969e-05      88.7645 
         200         1.08 -0.000560144 -7.82009e-05      88.7645 
         200      1.33333  -0.00024394 -8.01865e-05      88.7645 
         200      1.61333 -3.09889e-05  -8.3402e-05      88.7645 
         200         1.92  0.000157109 -8.64898e-05      88.7645 
         200      2.25333  0.000323744 -8.70886e-05      88.7646 
         200      2.61333   0.00044931 -8.58835e-05      88.7646 
         200            3   0.00051703 -8.24429e-05      88.7647 
         250            0            0            0      83.5232 
         250     0.013333 -4.78548e-07 -5.28185e-07      83.5232 
         250     0.053333 -0.000181874 -8.00939e-06      83.5232 
         250         0.12 -6.80377e-05 -3.63585e-05      83.5232 
         250     0.213332  0.000403576  -9.6533e-05      83.5232 
         250     0.333332  0.000935357 -0.000186947      83.5232 
         250         0.48   0.00122486 -0.000297424      83.5232 
         250     0.653331   0.00119159 -0.000420453      83.5232 
         250     0.853332  0.000910939 -0.000552411      83.5232 
         250         1.08  0.000577445 -0.000683915      83.5232 
         250      1.33333  0.000386206 -0.000799666      83.5232 
         250      1.61333  0.000294599   -0.0008903      83.5232 
         250         1.92  0.000193344 -0.000951916      83.5232 
         250      2.25333  9.15021e-05 -0.000978679      83.5232 
         250      2.61333  8.95998e-06 -0.000968023      83.5232 
         250            3  -4.7279e-05 -0.000922932      83.5232 
         300            0            0            0      78.2714 
         300     0.013333  0.000262054 -4.31331e-07      78.2714 
         300     0.053333   0.00070492 -5.93155e-06      78.2714 
         300         0.12   0.00140845 -2.32401e-05      78.2714 
         300     0.213332   0.00210553 -5.14571e-05      78.2714 
         300     0.333332   0.00252536 -8.15937e-05      78.2714 
         300         0.48   0.00264988 -0.000106844      78.2714 
         300     0.653331   0.00260017 -0.000130065      78.2714 
         300     0.853332   0.00238078 -0.000161776      78.2714 
         300         1.08   0.00193734 -0.000208967      78.2714 
         300      1.33333   0.00142697  -0.00026418      78.2714 
         300      1.61333   0.00102101 -0.000313142      78.2714 
         300         1.92  0.000642071 -0.000351042      78.2713 
         300      2.25333   0.00026706 -0.000376707      78.2713 
         300      2.61333   -6.884e-05 -0.000387578      78.2713 
         300            3  -0.00031979 -0.000383481      78.2712 
         350            0           -0           -0      73.0092 
         350     0.013333  0.000233894 -5.35073e-08      73.0092 
         350     0.053333  0.000526693 -6.13696e-07      73.0092 
         350         0.12  0.000905829 -1.63418e-06      73.0092 
         350     0.213332   0.00123507 -1.20559e-06      73.0092 
         350     0.333332   0.00143386  3.40441e-06      73.0092 
         350         0.48    0.0015197  1.40049e-05      73.0092 
         350     0.653331   0.00156084  3.10646e-05      73.0092 
         350     0.853332   0.00159189  5.27627e-05      73.0092 
         350         1.08   0.00154544  7.31881e-05      73.0092 
         350      1.33333    0.0013477  8.60308e-05      73.0092 
         350      1.61333   0.00107671  9.22442e-05      73.0092 
         350         1.92  0.000805876  9.53708e-05      73.0092 
         350      2.25333  0.000528718  9.53075e-05      73.0092 
         350      2.61333  0.000257824  9.19281e-05      73.0092 
         350            3  2.51375e-05  8.54157e-05      73.0092 
         400            0            0            0       67.736 
         400     0.013333 -0.000131239  3.29998e-07       67.736 
         400     0.053333 -0.000868772  4.41365e-06       67.736 
         400         0.12  -0.00188759  1.63155e-05       67.736 
         400     0.213332  -0.00279421  3.22426e-05       67.736 
         400     0.333332  -0.00326855  4.08428e-05       67.736 
         400         0.48  -0.00332494  3.36749e-05       67.736 
         400     0.653331  -0.00317748  1.28793e-05       67.736 
         400     0.853332  -0.00292836 -1.10836e-05       67.736 
         400         1.08  -0.00252964 -2.82493e-05       67.736 
         400      1.33333  -0.00201965 -3.79153e-05       67.736 
         400      1.61333  -0.00152237  -4.6237e-05      67.7361 
         400         1.92  -0.00102959 -5.52074e-05      67.7361 
         400      2.25333  -0.00051859 -6.28351e-05      67.7361 
         400      2.61333 -1.85763e-05 -6.84809e-05      67.7362 
         400            3  0.000412342 -7.18002e-05      67.7362 
         450            0           -0           -0      62.4555 
         450     0.013333  5.52791e-05  5.35976e-07      62.4555 
         450     0.053333 -0.000268154  7.76261e-06      62.4555 
         450         0.12  -0.00096484  3.30447e-05      62.4555 
         450     0.213332  -0.00186321  8.15816e-05      62.4555 
         450     0.333332  -0.00258202  0.000146501      62.4555 
         450         0.48  -0.00290463  0.000216566      62.4555 
         450     0.653331   -0.0028824  0.000287833      62.4555 
         450     0.853332  -0.00260276  0.000365557      62.4555 
         450         1.08  -0.00210287  0.000454491      62.4555 
         450      1.33333  -0.00154924  0.000547217      62.4555 
         450      1.61333  -0.00112736  0.000629038      62.4555 
         450         1.92 -0.000757324  0.000693246      62.4556 
         450      2.25333 -0.000372152  0.000737665      62.4556 
         450      2.61333  1.28625e-05  0.000758793      62.4556 
         450            3  0.000350221  0.000754357      62.4557 
         500            0           -0           -0      57.1653 
         500     0.013333  0.000339008  1.18804e-07      57.1653 
         500     0.053333  0.000852437  2.03031e-06      57.1653 
         500         0.12    0.0013751   1.0716e-05      57.1653 
         500     0.213332   0.00164678  3.32308e-05      57.1653 
         500     0.333332   0.00162421  7.44734e-05      57.1653 
         500         0.48    0.0014541  0.000134668      57.1653 
         500     0.653331    0.0013103  0.000211433      57.1653 
         500     0.853332   0.00128836  0.000302019      57.1653 
         500         1.08   0.00134972  0.000400765      57.1653 
         500      1.33333    0.0013233  0.000496382      57.1653 
         500      1.61333   0.00112717  0.000578896      57.1653 
         500         1.92  0.000884061  0.000646584      57.1653 
         500      2.25333  0.000635939  0.000697306      57.1653 
         500      2.61333  0.000387322  0.000727352      57.1653 
         500            3  0.000152458  0.000733833      57.1653 
         550            0           -0           -0      51.8612 
         550     0.013333 -8.62536e-05  5.33179e-07      51.8612 
         550     0.053333 -0.000802121  7.76552e-06      51.8612 
         550         0.12  -0.00205194  3.33099e-05      51.8612 
         550     0.213332  -0.00353508  8.26439e-05      51.8612 
         550     0.333332  -0.00471437  0.000147503      51.8612 
         550         0.48  -0.00525728  0.000212231      51.8612 
         550     0.653331  -0.00523267  0.000267173      51.8612 
         550     0.853332  -0.00486802  0.000313441      51.8612 
         550         1.08  -0.00431987  0.000355693      51.8612 
         550      1.33333  -0.00370481  0.000393146      51.8613 
         550      1.61333  -0.00308757  0.000421851      51.8613 
         550         1.92  -0.00241841  0.000440806      51.8613 
         550      2.25333  -0.00167772  0.000449295      51.8613 
         550      2.61333 -0.000897922  0.000446254      51.8614 
         550            3 -0.000146195  0.000430762      51.8614 
         600            0           -0           -0      46.5497 
         600     0.013333  0.000307999 -6.39721e-07      46.5497 
         600     0.053333  0.000960774 -9.20134e-06      46.5497 
         600         0.12   0.00218487 -3.89726e-05      46.5497 
         600     0.213332   0.00372187 -9.63573e-05      46.5497 
         600     0.333332   0.00506793 -0.000174533      46.5497 
         600         0.48   0.00590593 -0.000260773      46.5497 
         600     0.653331   0.00626463 -0.000348126      46.5497 
         600     0.853332     0.006265 -0.000440176      46.5497 
         600         1.08   0.00587839 -0.000547468      46.5497 
         600      1.33333    0.0050898 -0.000674607      46.5497 
         600      1.61333   0.00414768 -0.000809881      46.5497 
         600         1.92   0.00326913 -0.000934976      46.5497 
         600      2.25333   0.00237653  -0.00104128      46.5496 
         600      2.61333    0.0014402  -0.00112184      46.5496 
         600            3  0.000528883  -0.00117055      46.5495 
         650            0           -0           -0      41.2286 
         650     0.013333  0.000445167 -5.80251e-08      41.2286 
         650     0.053333    0.0012865 -5.23847e-07      41.2286 
         650         0.12   0.00232643  8.10539e-08      41.2286 
         650     0.213332   0.00312982  8.58978e-06      41.2286 
         650     0.333332   0.00341695  3.56194e-05      41.2286 
         650         0.48   0.00324686  8.84806e-05      41.2286 
         650     0.653331   0.00289094  0.000166073      41.2286 
         650     0.853332   0.00255617  0.000260782      41.2286 
         650         1.08   0.00227359  0.000363884      41.2286 
         650      1.33333   0.00200878  0.000470228      41.2286 
         650      1.61333   0.00174728  0.000577067      41.2285 
         650         1.92   0.00144436  0.000679156      41.2285 
         650      2.25333   0.00109423  0.000769509      41.2285 
         650      2.61333  0.000716563  0.000841834      41.2285 
         650            3  0.000340235  0.000891137      41.2285 
         700            0           -0           -0      35.9013 
         700     0.013333 -0.000220806  3.73452e-07      35.9013 
         700     0.053333  -0.00123462  5.12031e-06      35.9013 
         700         0.12  -0.00270439  1.98935e-05      35.9013 
         700     0.213332  -0.00416708  4.29168e-05      35.9013 
         700     0.333332   -0.0051549  6.32562e-05      35.9013 
         700         0.48  -0.00554317  6.95396e-05      35.9013 
         700     0.653331  -0.00554498  5.88631e-05      35.9013 
         700     0.853332  -0.00538769   3.7848e-05      35.9013 
         700         1.08  -0.00507499  1.88278e-05      35.9013 
         700      1.33333  -0.00449886  1.18918e-05      35.9013 
         700      1.61333  -0.00372972  1.65893e-05      35.9013 
         700         1.92  -0.00295833  2.40758e-05      35.9013 
         700      2.25333   -0.0021721    3.129e-05      35.9014 
         700      2.61333  -0.00134583  3.77775e-05      35.9014 
         700            3 -0.000514287   4.3611e-05      35.9015 
         750            0           -0           -0      30.5737 
         750     0.013333  0.000149078 -9.82155e-08      30.5737 
         750     0.053333  0.000222536 -1.32702e-06      30.5737 
         750         0.12  0.000344672 -5.07621e-06      30.5737 
         750     0.213332   0.00046189 -1.09869e-05      30.5737 
         750     0.333332  0.000528146 -1.72885e-05      30.5737 
         750         0.48  0.000562369 -2.32933e-05      30.5737 
         750     0.653331  0.000611809 -3.05951e-05      30.5737 
         750     0.853332  0.000677163 -4.23353e-05      30.5737 
         750         1.08  0.000686768 -6.25519e-05      30.5737 
         750      1.33333  0.000567037  -9.4249e-05      30.5737 
         750      1.61333  0.000369356 -0.000135111      30.5737 
         750         1.92  0.000231161 -0.000177517      30.5737 
         750      2.25333   0.00014318 -0.000217174      30.5737 
         750      2.61333  7.03487e-05 -0.000251808      30.5737 
         750            3  3.85698e-06 -0.000279862      30.5737 
         800            0            0            0      25.2404 
         800     0.013333 -0.000117978 -1.66573e-07      25.2404 
         800     0.053333 -0.000698864 -2.80009e-06      25.2404 
         800         0.12  -0.00123447 -1.46808e-05      25.2404 
         800     0.213332  -0.00138598 -4.57955e-05      25.2404 
         800     0.333332  -0.00110735 -0.000103781      25.2404 
         800         0.48 -0.000641147 -0.000188843      25.2404 
         800     0.653331 -0.000273477 -0.000294979      25.2404 
         800     0.853332 -0.000133889 -0.000414901      25.2404 
         800         1.08 -0.000169967 -0.000541591      25.2404 
         800      1.33333 -0.000219476 -0.000666894      25.2404 
         800      1.61333 -0.000171754 -0.000783565      25.2404 
         800         1.92 -7.83186e-05 -0.000888987      25.2404 
         800      2.25333   7.9727e-06 -0.000980434      25.2404 
         800      2.61333  8.20849e-05  -0.00105294      25.2404 
         800            3   0.00015356  -0.00110077      25.2404 
         850            0           -0           -0      19.9029 
         850     0.013333  0.000349635 -6.97825e-08      19.9029 
         850     0.053333   0.00094748 -7.84085e-07      19.9029 
         850         0.12   0.00171843 -1.80416e-06      19.9029 
         850     0.213332   0.00237554  6.48299e-07      19.9029 
         850     0.333332   0.00272487  1.25381e-05      19.9029 
         850         0.48   0.00278689  3.77464e-05      19.9029 
         850     0.653331   0.00272262  7.58452e-05      19.9029 
         850     0.853332   0.00266865  0.000123245      19.9029 
         850         1.08   0.00263096  0.000174085      19.9029 
         850      1.33333   0.00249474  0.000220691      19.9029 
         850      1.61333   0.00218704  0.000257489      19.9029 
         850         1.92   0.00180948  0.000285811      19.9029 
         850      2.25333   0.00142978  0.000308566      19.9029 
         850      2.61333   0.00104521  0.000325124      19.9029 
         850            3   0.00064457  0.000333517      19.9028 
         900            0  1.48434e-19 -3.62835e-26      14.5574 
         900     0.013333  0.000190178  4.47502e-08      14.5574 
         900     0.053333  0.000336892  7.24355e-07      14.5574 
         900         0.12  0.000477304  3.67288e-06      14.5574 
         900     0.213332  0.000519462  1.13356e-05      14.5574 
         900     0.333332  0.000435309  2.60126e-05      14.5574 
         900         0.48  0.000274508  4.85376e-05      14.5574 
         900     0.653331  0.000113416  7.77148e-05      14.5574 
         900     0.853332  -5.2574e-06  0.000111175      14.5574 
         900         1.08 -7.93377e-05  0.000147038      14.5574 
         900      1.33333 -0.000104644  0.000185172      14.5574 
         900      1.61333 -7.30709e-05  0.000226022      14.5574 
         900         1.92 -2.72104e-05  0.000267506      14.5574 
         900      2.25333  5.32519e-06  0.000306035      14.5574 
         900      2.61333  2.87809e-05  0.000339191      14.5574 
         900            3  5.44792e-05  0.000365163      14.5574 
         950            0            0            0       9.2076 
         950     0.013333  2.09877e-05  2.41763e-07       9.2076 
         950     0.053333  -0.00033797  3.51805e-06       9.2076 
         950         0.12 -0.000966757  1.51169e-05       9.2076 
         950     0.213332  -0.00173307  3.77383e-05       9.2076 
         950     0.333332  -0.00237975  6.80866e-05       9.2076 
         950         0.48  -0.00272375  9.93332e-05       9.2076 
         950     0.653331  -0.00277596  0.000127041       9.2076 
         950     0.853332  -0.00264368  0.000152209       9.2076 
         950         1.08  -0.00238847  0.000179109       9.2076 
         950      1.33333  -0.00204127  0.000209791       9.2076 
         950      1.61333  -0.00168313  0.000241189       9.2076 
         950         1.92  -0.00137666  0.000268682      9.20761 
         950      2.25333  -0.00107552  0.000291239      9.20762 
         950      2.61333 -0.000747572  0.000308256      9.20764 
         950            3 -0.000399699  0.000318692      9.20766 
        1000            0            0            0      3.85581 
        1000     0.013333  -1.4561e-05 -2.56302e-07      3.85581 
        1000     0.053333 -0.000307251 -3.93683e-06      3.85581 
        1000         0.12 -0.000453905 -1.86708e-05      3.85581 
        1000     0.213332 -0.000268978 -5.28037e-05      3.85581 
        1000     0.333332  0.000163262 -0.000109798      3.85581 
        1000         0.48  0.000594758   -0.0001863      3.85581 
        1000     0.653331  0.000836587 -0.000276365      3.85581 
        1000     0.853332  0.000838035 -0.000376596      3.85581 
        1000         1.08  0.000634585 -0.000485798      3.85581 
        1000      1.33333  0.000347668 -0.000599729      3.85581 
        1000      1.61333  0.000158802 -0.000709305      3.85581 
        1000         1.92  0.000126993 -0.000807265      3.85581 
        1000      2.25333  0.000134678 -0.000892144      3.85581 
        1000      2.61333  0.000125096 -0.000961542      3.85581 
        1000            3   0.00011051  -0.00101141      3.85581 
