Variables = x, y, u, v, p

Zone, I=416, F=POINT
         -50            0            0            0       253.38 
         -50     0.013333  0.000520449  9.79922e-08       253.38 
         -50     0.053333  0.000485957  3.38398e-07       253.38 
         -50         0.12  0.000475541  7.69505e-07       253.38 
         -50     0.213332  0.000474614   1.2393e-06       253.38 
         -50     0.333332  0.000475407   1.3955e-06       253.38 
         -50         0.48  0.000474475  3.00419e-06       253.38 
         -50     0.653331  0.000473646  3.49429e-06       253.38 
         -50     0.853332  0.000472538  3.81101e-06      253.379 
         -50         1.08  0.000470394  4.90006e-06      253.378 
         -50      1.33333  0.000468763  5.56563e-06      253.377 
         -50      1.61333  0.000468185  6.46053e-06      253.376 
         -50         1.92  0.000471436  6.54054e-06      253.374 
         -50      2.25333  0.000467662  7.56639e-06      253.372 
         -50      2.61333  0.000462403  1.10721e-05      253.369 
         -50            3  0.000464236  1.50966e-05      253.366 
         -25            0           -0           -0       246.59 
         -25     0.013333  0.000441424  2.76709e-08       246.59 
         -25     0.053333  0.000404513  1.56698e-07       246.59 
         -25         0.12   0.00038505  4.93724e-07       246.59 
         -25     0.213332  0.000374631   1.0237e-06       246.59 
         -25     0.333332  0.000370218  1.58409e-06       246.59 
         -25         0.48  0.000369324  1.84562e-06       246.59 
         -25     0.653331  0.000371008  2.04647e-06      246.589 
         -25     0.853332  0.000374992  2.16484e-06      246.589 
         -25         1.08  0.000382102   2.0631e-06      246.589 
         -25      1.33333  0.000392301  2.04719e-06      246.589 
         -25      1.61333   0.00040413  2.08119e-06      246.589 
         -25         1.92  0.000416175  2.13471e-06      246.588 
         -25      2.25333  0.000419402  2.02966e-06      246.588 
         -25      2.61333  0.000414438  1.69912e-06      246.587 
         -25            3  0.000409565  1.69483e-06      246.586 
           0            0            0            0      240.078 
           0     0.013333   0.00137804 -0.000862097      240.086 
           0     0.053333  0.000848623 -0.000459513        240.1 
           0         0.12  0.000626777 -0.000316938      240.115 
           0     0.213332  0.000512874 -0.000244762      240.131 
           0     0.333332  0.000445141 -0.000199316      240.148 
           0         0.48  0.000398226 -0.000165564      240.166 
           0     0.653331  0.000370609  -0.00013985      240.183 
           0     0.853332  0.000360025 -0.000119433        240.2 
           0         1.08     0.000363 -0.000102772      240.216 
           0      1.33333  0.000373651 -8.89903e-05      240.233 
           0      1.61333  0.000389099 -7.77219e-05      240.249 
           0         1.92  0.000407326 -6.85571e-05      240.264 
           0      2.25333  0.000419541 -6.18282e-05      240.279 
           0      2.61333  0.000413249 -5.82241e-05      240.293 
           0            3  0.000399673 -5.31594e-05      240.307 
          20            0   0.00028477  0.000221489      235.948 
          20     0.013333  0.000277832   0.00022235      235.948 
          20     0.053333  0.000255787  0.000224789      235.948 
          20         0.12  0.000214992  0.000228362      235.948 
          20     0.213332  0.000150244  0.000232325      235.948 
          20     0.333332  6.00025e-05  0.000235632      235.948 
          20         0.48 -4.27389e-05  0.000237885      235.948 
          20     0.653331 -0.000105562  0.000241254      235.948 
          20     0.853332 -9.12722e-05  0.000244534      235.947 
          20         1.08 -7.86168e-06  0.000247727      235.947 
          20      1.33333  0.000103813   0.00024667      235.947 
          20      1.61333  0.000214144  0.000238181      235.947 
          20         1.92  0.000314825  0.000222598      235.946 
          20      2.25333  0.000391419  0.000200108      235.946 
          20      2.61333  0.000433601  0.000172993      235.945 
          20            3  0.000447006  0.000143374      235.944 
          40            0            0            0       231.52 
          40     0.013333  0.000218863  2.36995e-06       231.52 
          40     0.053333 -0.000854986  3.26582e-05       231.52 
          40         0.12  -0.00292272  0.000137386       231.52 
          40     0.213332  -0.00497701  0.000342656       231.52 
          40     0.333332  -0.00571782  0.000648103       231.52 
          40         0.48  -0.00562416   0.00100164      231.519 
          40     0.653331  -0.00629688   0.00127588      231.519 
          40     0.853332  -0.00673093   0.00147867      231.518 
          40         1.08  -0.00573901   0.00168081      231.517 
          40      1.33333  -0.00390174   0.00185209      231.516 
          40      1.61333  -0.00192145   0.00194273      231.514 
          40         1.92 -0.000105002   0.00193321      231.511 
          40      2.25333   0.00130726   0.00182781      231.509 
          40      2.61333   0.00215556   0.00165099      231.505 
          40            3    0.0024706   0.00143742      231.501 
          60            0            0            0       226.74 
          60     0.013333  1.85663e-05  1.84032e-06       226.74 
          60     0.053333  -0.00138828  2.53353e-05       226.74 
          60         0.12  -0.00373768  9.96945e-05       226.74 
          60     0.213332  -0.00616241  0.000222637       226.74 
          60     0.333332  -0.00778185  0.000360151       226.74 
          60         0.48  -0.00851049  0.000493783       226.74 
          60     0.653331  -0.00848113  0.000652484       226.74 
          60     0.853332  -0.00766704  0.000880261       226.74 
          60         1.08  -0.00632721   0.00115833       226.74 
          60      1.33333  -0.00454998   0.00143689       226.74 
          60      1.61333  -0.00248303   0.00166553       226.74 
          60         1.92 -0.000485434    0.0018055       226.74 
          60      2.25333   0.00115088    0.0018486       226.74 
          60      2.61333   0.00222913   0.00179685       226.74 
          60            3    0.0027189   0.00168113       226.74 
          80            0           -0           -0      222.083 
          80     0.013333  0.000207151  6.67178e-07      222.083 
          80     0.053333 -0.000427271  8.54255e-06      222.083 
          80         0.12  -0.00128341  2.96843e-05      222.083 
          80     0.213332  -0.00195698  5.53434e-05      222.083 
          80     0.333332  -0.00225066   7.0249e-05      222.083 
          80         0.48  -0.00235401  7.33064e-05      222.083 
          80     0.653331   -0.0023167  8.90103e-05      222.083 
          80     0.853332  -0.00170079   0.00016189      222.083 
          80         1.08 -0.000504769  0.000302127      222.083 
          80      1.33333  0.000386947  0.000461031      222.083 
          80      1.61333  0.000727648  0.000590463      222.083 
          80         1.92  0.000946124   0.00068066      222.083 
          80      2.25333   0.00110838  0.000729764      222.083 
          80      2.61333   0.00117676  0.000735723      222.083 
          80            3   0.00114774  0.000709121      222.083 
         100            0            0            0      217.447 
         100     0.013333  0.000321347 -4.74485e-07      217.447 
         100     0.053333  0.000203914 -7.30205e-06      217.447 
         100         0.12  0.000364528 -3.33779e-05      217.447 
         100     0.213332  0.000791498 -8.79269e-05      217.447 
         100     0.333332   0.00118095 -0.000167169      217.447 
         100         0.48   0.00125158 -0.000261208      217.447 
         100     0.653331  0.000943184 -0.000362089      217.447 
         100     0.853332  0.000601322 -0.000449809      217.447 
         100         1.08  0.000733935 -0.000495598      217.447 
         100      1.33333  0.000903408  -0.00051356      217.447 
         100      1.61333  0.000722907 -0.000528652      217.447 
         100         1.92  0.000546682  -0.00052762      217.447 
         100      2.25333   0.00040797 -0.000504693      217.447 
         100      2.61333  0.000301336 -0.000462919      217.447 
         100            3  0.000241864 -0.000408672      217.447 
         150            0  3.66964e-19  7.42786e-26      205.873 
         150     0.013333  0.000154473   1.0909e-06      205.873 
         150     0.053333 -0.000749653  1.52797e-05      205.873 
         150         0.12  -0.00227215  6.16821e-05      205.873 
         150     0.213332  -0.00389764   0.00014239      205.873 
         150     0.333332   -0.0049883  0.000237971      205.873 
         150         0.48   -0.0053883  0.000329927      205.873 
         150     0.653331  -0.00524725  0.000419796      205.873 
         150     0.853332  -0.00458147  0.000524159      205.873 
         150         1.08  -0.00350718  0.000643431      205.873 
         150      1.33333  -0.00244393  0.000754387      205.873 
         150      1.61333  -0.00151185  0.000836394      205.873 
         150         1.92 -0.000549602  0.000885625      205.873 
         150      2.25333  0.000371985  0.000900473      205.874 
         150      2.61333   0.00110847  0.000877111      205.874 
         150            3   0.00156309  0.000822517      205.874 
         200            0           -0           -0      194.306 
         200     0.013333  0.000363368  4.32024e-07      194.306 
         200     0.053333  0.000134684  6.21289e-06      194.306 
         200         0.12 -0.000319452   2.6137e-05      194.306 
         200     0.213332 -0.000878268  6.36191e-05      194.306 
         200     0.333332  -0.00129638  0.000113019      194.306 
         200         0.48  -0.00145758  0.000167014      194.306 
         200     0.653331  -0.00138666  0.000224426      194.306 
         200     0.853332  -0.00112936  0.000287907      194.306 
         200         1.08 -0.000781456  0.000354399      194.306 
         200      1.33333  -0.00045898  0.000416229      194.306 
         200      1.61333 -0.000166102  0.000467253      194.306 
         200         1.92  0.000120546  0.000503019      194.306 
         200      2.25333  0.000384904  0.000520246      194.306 
         200      2.61333  0.000603725  0.000517284      194.306 
         200            3  0.000754445  0.000496578      194.306 
         250            0            0            0      182.732 
         250     0.013333  0.000431752  -2.9283e-07      182.732 
         250     0.053333   0.00054235 -4.22902e-06      182.732 
         250         0.12  0.000829794 -1.77409e-05      182.732 
         250     0.213332    0.0011652 -4.23577e-05      182.732 
         250     0.333332   0.00134571 -7.23371e-05      182.732 
         250         0.48   0.00130536 -0.000101399      182.732 
         250     0.653331   0.00110602 -0.000129722      182.732 
         250     0.853332   0.00081359 -0.000160448      182.732 
         250         1.08   0.00055091 -0.000189334      182.732 
         250      1.33333  0.000436828 -0.000207561      182.732 
         250      1.61333  0.000386848  -0.00021431      182.732 
         250         1.92  0.000323273 -0.000212673      182.732 
         250      2.25333  0.000260426 -0.000202779      182.731 
         250      2.61333  0.000216019 -0.000185004      182.731 
         250            3  0.000198069 -0.000161089      182.731 
         300            0            0            0       171.15 
         300     0.013333  0.000770945 -1.62005e-09       171.15 
         300     0.053333   0.00164813  8.52123e-07       171.15 
         300         0.12   0.00256372  9.30008e-06       171.15 
         300     0.213332   0.00299676  4.03283e-05       171.15 
         300     0.333332   0.00287499  0.000106793       171.15 
         300         0.48   0.00255242  0.000207946       171.15 
         300     0.653331    0.0023563  0.000331238       171.15 
         300     0.853332   0.00227539  0.000458728       171.15 
         300         1.08    0.0020573  0.000571718       171.15 
         300      1.33333   0.00163297  0.000660691       171.15 
         300      1.61333   0.00120647  0.000729834       171.15 
         300         1.92  0.000824485  0.000779658       171.15 
         300      2.25333  0.000461488  0.000803552       171.15 
         300      2.61333  0.000137978  0.000799301       171.15 
         300            3 -0.000103637  0.000767666       171.15 
         350            0           -0           -0      159.562 
         350     0.013333  0.000800793 -3.33547e-07      159.562 
         350     0.053333   0.00187708 -4.32022e-06      159.562 
         350         0.12   0.00334988 -1.50957e-05      159.562 
         350     0.213332   0.00467052 -2.69669e-05      159.562 
         350     0.333332   0.00543634 -2.67204e-05      159.562 
         350         0.48   0.00566063 -3.93621e-06      159.562 
         350     0.653331   0.00561296  4.21286e-05      159.562 
         350     0.853332   0.00545405  0.000102371      159.562 
         350         1.08   0.00507923  0.000161208      159.562 
         350      1.33333   0.00437724  0.000205997      159.562 
         350      1.61333   0.00350143  0.000237743      159.562 
         350         1.92   0.00258934  0.000261596      159.562 
         350      2.25333   0.00164681  0.000275791      159.562 
         350      2.61333  0.000732972  0.000279567      159.562 
         350            3 -4.37911e-05  0.000272794      159.562 
         400            0            0            0      147.964 
         400     0.013333 -6.61428e-05  1.81088e-07      147.964 
         400     0.053333   -0.0013393  1.95134e-06      147.964 
         400         0.12  -0.00286326  3.72421e-06      147.964 
         400     0.213332  -0.00399227 -5.99134e-06      147.964 
         400     0.333332  -0.00437691 -4.40006e-05      147.964 
         400         0.48  -0.00419349 -0.000119325      147.964 
         400     0.653331  -0.00384131 -0.000227246      147.964 
         400     0.853332  -0.00352159 -0.000353816      147.964 
         400         1.08  -0.00314995 -0.000482964      147.964 
         400      1.33333  -0.00261769 -0.000603265      147.964 
         400      1.61333   -0.0019795  -0.00071077      147.964 
         400         1.92  -0.00130373 -0.000802361      147.964 
         400      2.25333 -0.000600003 -0.000870923      147.964 
         400      2.61333  9.10302e-05 -0.000910781      147.964 
         400            3   0.00069486  -0.00091894      147.964 
         450            0           -0           -0      136.364 
         450     0.013333  0.000879661   3.7424e-07      136.364 
         450     0.053333   0.00196151  6.17755e-06      136.364 
         450         0.12   0.00296698  3.15676e-05      136.364 
         450     0.213332   0.00328203  9.58282e-05      136.364 
         450     0.333332   0.00286904  0.000212145      136.364 
         450         0.48   0.00216285  0.000380068      136.364 
         450     0.653331   0.00161667  0.000589936      136.364 
         450     0.853332   0.00142183  0.000830637      136.364 
         450         1.08   0.00148227   0.00108907      136.364 
         450      1.33333   0.00151141   0.00134572      136.364 
         450      1.61333   0.00134053   0.00158044      136.364 
         450         1.92   0.00108194   0.00178058      136.364 
         450      2.25333  0.000808181    0.0019337      136.364 
         450      2.61333  0.000538793   0.00202761      136.364 
         450            3  0.000290379   0.00205445      136.364 
         500            0           -0           -0      124.753 
         500     0.013333  -0.00012458 -2.64772e-08      124.753 
         500     0.053333  -0.00150939 -1.03121e-06      124.753 
         500         0.12  -0.00308163 -8.95442e-06      124.753 
         500     0.213332  -0.00415179 -3.79009e-05      124.753 
         500     0.333332  -0.00440331 -0.000104346      124.753 
         500         0.48  -0.00405743 -0.000216345      124.753 
         500     0.653331  -0.00356276 -0.000369821      124.753 
         500     0.853332  -0.00320292 -0.000553507      124.753 
         500         1.08  -0.00296408 -0.000753428      124.753 
         500      1.33333   -0.0026614 -0.000954457      124.753 
         500      1.61333  -0.00218615  -0.00114305      124.753 
         500         1.92  -0.00160094  -0.00130977      124.753 
         500      2.25333 -0.000963159  -0.00144482      124.753 
         500      2.61333 -0.000311698  -0.00153803      124.753 
         500            3  0.000302705  -0.00158193      124.753 
         550            0           -0           -0      113.139 
         550     0.013333   0.00100148 -1.12817e-07      113.139 
         550     0.053333   0.00253914 -8.80718e-07      113.139 
         550         0.12   0.00442735  1.37698e-06      113.139 
         550     0.213332   0.00586873  2.04467e-05      113.139 
         550     0.333332   0.00644037  7.44032e-05      113.139 
         550         0.48    0.0063317  0.000172548      113.139 
         550     0.653331   0.00601722  0.000310384      113.139 
         550     0.853332   0.00577888  0.000474229      113.139 
         550         1.08   0.00552537  0.000645264      113.139 
         550      1.33333   0.00501131   0.00080516      113.139 
         550      1.61333   0.00422742  0.000945066      113.139 
         550         1.92   0.00336202   0.00106462      113.139 
         550      2.25333   0.00245034   0.00115922      113.139 
         550      2.61333   0.00151123   0.00122151      113.139 
         550            3  0.000609832   0.00124577      113.139 
         600            0           -0           -0      101.511 
         600     0.013333  0.000154331 -3.25075e-08      101.511 
         600     0.053333 -0.000510227 -8.17739e-07      101.511 
         600         0.12  -0.00123669 -5.81597e-06      101.511 
         600     0.213332  -0.00171945 -2.19663e-05      101.511 
         600     0.333332  -0.00185532 -5.58431e-05      101.511 
         600         0.48  -0.00177865  -0.00010902      101.511 
         600     0.653331  -0.00168534  -0.00017822      101.511 
         600     0.853332  -0.00167158 -0.000258231      101.511 
         600         1.08  -0.00168436 -0.000342097      101.511 
         600      1.33333  -0.00157406 -0.000420415      101.511 
         600      1.61333   -0.0012795 -0.000485734      101.511 
         600         1.92 -0.000921875 -0.000537795      101.511 
         600      2.25333   -0.0005544 -0.000576238      101.511 
         600      2.61333 -0.000181644 -0.000598811      101.511 
         600            3  0.000184508  -0.00060305      101.511 
         650            0           -0           -0      89.8832 
         650     0.013333  0.000586186  5.33578e-08      89.8832 
         650     0.053333   0.00100492  1.01879e-06      89.8832 
         650         0.12   0.00146829  6.07556e-06      89.8832 
         650     0.213332   0.00171796  2.10306e-05      89.8832 
         650     0.333332   0.00166454  5.15599e-05      89.8832 
         650         0.48   0.00142141  9.94755e-05      89.8832 
         650     0.653331   0.00116953  0.000162183      89.8832 
         650     0.853332    0.0010134  0.000235226      89.8832 
         650         1.08  0.000949035  0.000313961      89.8832 
         650      1.33333  0.000903381  0.000393329      89.8832 
         650      1.61333  0.000816018  0.000468296      89.8832 
         650         1.92  0.000699313  0.000535522      89.8832 
         650      2.25333  0.000578006  0.000592292      89.8832 
         650      2.61333  0.000458973  0.000634841      89.8832 
         650            3   0.00034416  0.000659697      89.8832 
         700            0           -0           -0      78.2493 
         700     0.013333  6.59761e-05  3.38746e-07      78.2493 
         700     0.053333 -0.000945448  4.67735e-06      78.2493 
         700         0.12  -0.00237071  1.83053e-05      78.2493 
         700     0.213332  -0.00375688  3.94735e-05      78.2493 
         700     0.333332  -0.00463048  5.68612e-05      78.2493 
         700         0.48  -0.00485515  5.78346e-05      78.2493 
         700     0.653331  -0.00464977  3.84662e-05      78.2493 
         700     0.853332  -0.00427799  4.79922e-06      78.2493 
         700         1.08  -0.00382793 -3.33824e-05      78.2493 
         700      1.33333  -0.00329128 -7.00074e-05      78.2493 
         700      1.61333  -0.00270102 -0.000104614      78.2493 
         700         1.92  -0.00209316 -0.000138549      78.2493 
         700      2.25333  -0.00145005 -0.000170667      78.2494 
         700      2.61333 -0.000769435 -0.000198937      78.2494 
         700            3 -8.61083e-05 -0.000221659      78.2495 
         750            0           -0           -0      66.6179 
         750     0.013333  0.000734725 -9.44409e-07      66.6179 
         750     0.053333   0.00185465 -1.37572e-05      66.6179 
         750         0.12   0.00394488 -5.92242e-05      66.6179 
         750     0.213332   0.00654484 -0.000148376      66.6179 
         750     0.333332   0.00873308 -0.000269531      66.6179 
         750         0.48   0.00987122 -0.000397755      66.6179 
         750     0.653331    0.0100088 -0.000516518      66.6179 
         750     0.853332   0.00951461 -0.000627788      66.6179 
         750         1.08   0.00860943 -0.000743782      66.6179 
         750      1.33333   0.00742429 -0.000868921      66.6179 
         750      1.61333   0.00620547 -0.000992372      66.6179 
         750         1.92   0.00508578  -0.00109977      66.6179 
         750      2.25333   0.00393591  -0.00118543      66.6178 
         750      2.61333   0.00270093  -0.00124482      66.6178 
         750            3   0.00144529  -0.00127291      66.6177 
         800            0            0            0      54.9762 
         800     0.013333  0.000894538  1.32305e-06      54.9762 
         800     0.053333   0.00170285  2.03959e-05      54.9762 
         800         0.12   0.00158482   9.5768e-05      54.9762 
         800     0.213332 -0.000158501  0.000267668      54.9762 
         800     0.333332  -0.00291989   0.00055053      54.9762 
         800         0.48  -0.00541638  0.000925103      54.9762 
         800     0.653331  -0.00679635   0.00135913      54.9762 
         800     0.853332  -0.00696604   0.00183111      54.9762 
         800         1.08  -0.00622947   0.00233145      54.9762 
         800      1.33333  -0.00508219   0.00284418      54.9762 
         800      1.61333  -0.00405965   0.00333944      54.9762 
         800         1.92  -0.00330566   0.00378913      54.9762 
         800      2.25333  -0.00256339    0.0041747      54.9762 
         800      2.61333  -0.00172393   0.00447557      54.9762 
         800            3 -0.000845406   0.00466951      54.9763 
         850            0           -0           -0      43.3323 
         850     0.013333  -0.00114786 -4.40008e-08      43.3323 
         850     0.053333  -0.00520208 -2.33058e-06      43.3323 
         850         0.12  -0.00997236 -2.19015e-05      43.3323 
         850     0.213332   -0.0134199 -9.58035e-05      43.3323 
         850     0.333332   -0.0144733 -0.000268556      43.3323 
         850         0.48   -0.0136352 -0.000562823      43.3323 
         850     0.653331   -0.0122316 -0.000967706      43.3323 
         850     0.853332   -0.0112341  -0.00145194      43.3323 
         850         1.08   -0.0107164  -0.00197657      43.3323 
         850      1.33333   -0.0100782  -0.00249964      43.3323 
         850      1.61333  -0.00883706  -0.00298668      43.3323 
         850         1.92  -0.00720414  -0.00342525      43.3323 
         850      2.25333  -0.00547002  -0.00380948      43.3324 
         850      2.61333  -0.00368792  -0.00412055      43.3325 
         850            3  -0.00184506  -0.00433549      43.3326 
         900            0  4.71635e-19 -2.95329e-27      31.6938 
         900     0.013333  0.000509519 -1.43365e-06      31.6938 
         900     0.053333   0.00122214 -2.13377e-05      31.6938 
         900         0.12   0.00331218 -9.53786e-05      31.6938 
         900     0.213332   0.00672997 -0.000252455      31.6938 
         900     0.333332    0.0104253 -0.000492449      31.6938 
         900         0.48    0.0132061 -0.000788925      31.6938 
         900     0.653331    0.0146119  -0.00111277      31.6938 
         900     0.853332    0.0148524  -0.00145209      31.6938 
         900         1.08    0.0141987  -0.00181334      31.6938 
         900      1.33333     0.012775  -0.00220469      31.6938 
         900      1.61333    0.0108959   -0.0026151      31.6938 
         900         1.92   0.00908107  -0.00301196      31.6938 
         900      2.25333   0.00731871  -0.00336761      31.6937 
         900      2.61333   0.00546699  -0.00366245      31.6937 
         900            3   0.00350445  -0.00387922      31.6936 
         950            0            0            0      20.0465 
         950     0.013333   0.00176504 -7.78997e-07      20.0465 
         950     0.053333   0.00555856  -1.0496e-05      20.0465 
         950         0.12    0.0108793 -3.90918e-05      20.0465 
         950     0.213332    0.0160302 -7.64338e-05      20.0465 
         950     0.333332    0.0193917 -8.72727e-05      20.0465 
         950         0.48    0.0204686 -3.34224e-05      20.0465 
         950     0.653331    0.0199734  9.96513e-05      20.0465 
         950     0.853332    0.0189025  0.000297704      20.0465 
         950         1.08    0.0177068   0.00053051      20.0465 
         950      1.33333    0.0162762  0.000769231      20.0465 
         950      1.61333    0.0144551  0.000996455      20.0465 
         950         1.92    0.0123263   0.00120704      20.0465 
         950      2.25333    0.0100117   0.00140021      20.0464 
         950      2.61333   0.00753333   0.00156804      20.0463 
         950            3    0.0049109    0.0017006      20.0462 
        1000            0            0            0      8.39028 
        1000     0.013333   0.00171284  1.25816e-06      8.39028 
        1000     0.053333   0.00467948  2.00816e-05      8.39028 
        1000         0.12   0.00722592  9.92314e-05      8.39028 
        1000     0.213332   0.00758471  0.000293844      8.39028 
        1000     0.333332   0.00567157  0.000640561      8.39028 
        1000         0.48   0.00287278   0.00113633      8.39029 
        1000     0.653331  0.000695169   0.00174983      8.39029 
        1000     0.853332 -0.000155624   0.00244868      8.39029 
        1000         1.08  0.000227283   0.00320858      8.39029 
        1000      1.33333   0.00115669    0.0039983      8.39029 
        1000      1.61333   0.00173754   0.00477176      8.39029 
        1000         1.92   0.00165164    0.0054887      8.39028 
        1000      2.25333   0.00134382   0.00613141      8.39028 
        1000      2.61333    0.0010629   0.00667279      8.39027 
        1000            3  0.000794683   0.00707983      8.39025 
