Variables = x, y, u, v, p, uu, uv, vv, rms_normUSquared

Zone, I=15600, F=POINT
         -50            0  3.27212e-22  2.86775e-23 -1.56283e-05 -1.04187e-15  3.49644e-19 -2.10398e-20 -1.04147e-15 
         -50     0.000417 -7.75012e-11  6.05597e-13 -1.56283e-05  8.61929e-16  2.03455e-19  6.06869e-21  8.62257e-16 
         -50     0.001671   -3.185e-10  2.58694e-12 -1.56283e-05  1.64873e-14 -1.87929e-18  2.91336e-19  1.64878e-14 
         -50     0.003762 -7.42662e-10  6.39549e-12 -1.56283e-05  7.47508e-14 -1.07472e-17  1.49715e-18  7.47527e-14 
         -50     0.006687 -1.37006e-09  1.26926e-11 -1.56283e-05  2.20905e-13 -3.49273e-17  4.99688e-18  2.20912e-13 
         -50      0.01045 -2.21129e-09  2.22918e-11 -1.56283e-05  5.12926e-13 -8.98998e-17  1.36485e-17  5.12944e-13 
         -50     0.015048 -3.25733e-09   3.6087e-11 -1.56283e-05  1.01533e-12  -2.0669e-16  3.34795e-17  1.01537e-12 
         -50     0.020484 -4.48477e-09   5.5098e-11 -1.56283e-05  1.79362e-12 -4.48939e-16  7.68478e-17  1.79372e-12 
         -50     0.026753 -5.86498e-09  8.04603e-11 -1.56283e-05  2.90562e-12 -9.38718e-16  1.67306e-16  2.90582e-12 
         -50     0.033862  -7.3849e-09  1.13467e-10 -1.56283e-05  4.39809e-12 -1.89282e-15  3.46885e-16  4.39849e-12 
         -50     0.041803 -9.05054e-09  1.55242e-10 -1.56283e-05  6.29662e-12 -3.65981e-15  6.84652e-16  6.29738e-12 
         -50     0.050579 -1.08836e-08  2.06412e-10 -1.56283e-05  8.60786e-12 -6.76068e-15  1.28793e-15  8.60927e-12 
         -50     0.060198  -1.2892e-08  2.66629e-10 -1.56283e-05   1.1319e-11 -1.19204e-14  2.31474e-15  1.13215e-11 
         -50     0.070646 -1.50466e-08  3.34653e-10 -1.56283e-05  1.43913e-11 -2.00624e-14  3.98223e-15  1.43955e-11 
         -50     0.081937 -1.73756e-08  4.11396e-10 -1.56283e-05  1.77737e-11 -3.23314e-14   6.5838e-15  1.77806e-11 
         -50     0.094057 -1.99026e-08  4.90732e-10 -1.56283e-05  2.13888e-11 -4.99427e-14  1.05147e-14  2.13997e-11 
         -50     0.107021 -2.26295e-08  5.62967e-10 -1.56283e-05  2.51611e-11 -7.44232e-14  1.61768e-14  2.51778e-11 
         -50     0.120813 -2.55776e-08  6.30035e-10 -1.56283e-05  2.89986e-11 -1.07021e-13  2.41755e-14  2.90234e-11 
         -50      0.13545 -2.87615e-08  6.80259e-10 -1.56283e-05  3.28196e-11 -1.48892e-13  3.52148e-14  3.28556e-11 
         -50     0.150914 -3.21858e-08  6.89864e-10 -1.56283e-05  3.65379e-11 -2.00941e-13  4.99996e-14   3.6589e-11 
         -50     0.167213 -3.58567e-08  6.27987e-10 -1.56283e-05  4.00844e-11 -2.63773e-13  6.93521e-14   4.0155e-11 
         -50     0.184359 -3.97768e-08  4.61532e-10 -1.56283e-05  4.34033e-11 -3.37458e-13  9.43028e-14  4.34992e-11 
         -50      0.20233 -4.39348e-08  1.56277e-10 -1.56283e-05  4.64478e-11 -4.21238e-13  1.26102e-13  4.65759e-11 
         -50     0.221149 -4.83217e-08 -3.36762e-10 -1.56283e-05  4.91953e-11 -5.14012e-13  1.66318e-13  4.93639e-11 
         -50     0.240792 -5.29063e-08 -1.11919e-09 -1.56283e-05  5.16305e-11 -6.14533e-13  2.16427e-13  5.18497e-11 
         -50     0.261284 -5.76421e-08 -2.37713e-09 -1.56284e-05   5.3758e-11 -7.20353e-13  2.77458e-13  5.40388e-11 
         -50     0.282599  -6.2523e-08 -4.03481e-09 -1.56284e-05  5.55913e-11 -8.28043e-13   3.2239e-13  5.59176e-11 
         -50     0.304763 -6.75699e-08 -6.11862e-09 -1.56284e-05  5.71491e-11 -9.40008e-13   4.5317e-13  5.76068e-11 
         -50      0.32775 -7.27646e-08 -8.70376e-09 -1.56284e-05  5.84604e-11 -1.05115e-12  6.15099e-13  5.90809e-11 
         -50     0.351587 -7.80913e-08 -1.18423e-08 -1.56284e-05   5.9556e-11 -1.16167e-12  7.88599e-13  6.03509e-11 
         -50     0.376246 -8.35192e-08 -1.54972e-08 -1.56284e-05  6.04595e-11 -1.27474e-12  9.80718e-13  6.14475e-11 
         -50      0.40174 -8.90316e-08 -1.94995e-08 -1.56283e-05  6.11903e-11 -1.39444e-12  1.21367e-12  6.24124e-11 
         -50     0.428086 -9.46239e-08 -2.34981e-08 -1.56282e-05  6.17597e-11 -1.52267e-12  1.50968e-12  6.32792e-11 
         -50     0.455252 -1.00296e-07  -2.6932e-08 -1.56281e-05  6.21686e-11   -1.656e-12  1.87518e-12  6.40549e-11 
         -50     0.483271 -1.06072e-07 -2.90751e-08  -1.5628e-05  6.24076e-11 -1.78407e-12   2.2909e-12  6.47112e-11 
         -50     0.512109  -1.1196e-07 -2.91307e-08 -1.56279e-05  6.24545e-11 -1.88883e-12  2.70878e-12  6.51774e-11 
         -50     0.541801  -1.1794e-07 -2.64669e-08 -1.56277e-05  6.22726e-11 -1.94815e-12  3.07033e-12  6.53585e-11 
         -50     0.572311  -1.2388e-07 -2.10144e-08 -1.56276e-05  6.18091e-11 -1.94373e-12  3.34994e-12   6.5176e-11 
         -50     0.603676 -1.29467e-07  -1.3883e-08 -1.56275e-05  6.09906e-11  -1.8773e-12  3.64407e-12  6.46528e-11 
         -50     0.635857 -1.35263e-07 -1.43688e-09 -1.56275e-05  5.95823e-11 -1.46085e-12  3.12096e-12  6.27227e-11 
         -50     0.668875 -1.40395e-07  8.37979e-09 -1.56276e-05  5.76464e-11 -1.07651e-12  3.01246e-12  6.06795e-11 
         -50     0.702748 -1.44673e-07  1.45345e-08 -1.56278e-05  5.53144e-11 -7.38585e-13  3.15238e-12  5.84885e-11 
         -50     0.737438 -1.48098e-07  1.75032e-08  -1.5628e-05   5.2654e-11 -4.41616e-13  3.42788e-12  5.61044e-11 
         -50     0.772984 -1.50676e-07  1.78285e-08 -1.56283e-05   4.9727e-11 -1.81684e-13  3.75431e-12  5.35044e-11 
         -50     0.809345 -1.52402e-07  1.60877e-08 -1.56285e-05  4.66008e-11   4.2533e-14   4.0738e-12  5.06981e-11 
         -50     0.846564 -1.53272e-07  1.28742e-08 -1.56287e-05  4.33336e-11  2.31368e-13  4.35466e-12  4.77119e-11 
         -50     0.884597 -1.53277e-07  8.78151e-09 -1.56288e-05   3.9988e-11  3.83677e-13  4.58667e-12  4.45983e-11 
         -50     0.923489 -1.52408e-07  4.36383e-09 -1.56288e-05  3.66151e-11  4.98388e-13  4.77772e-12  4.14161e-11 
         -50     0.963194 -1.50663e-07  1.27693e-10 -1.56288e-05   3.3269e-11  5.74524e-13    4.947e-12  3.82387e-11 
         -50      1.00376  -1.4804e-07 -3.51397e-09 -1.56288e-05  2.99905e-11  6.12487e-13  5.11946e-12  3.51319e-11 
         -50      1.04514 -1.44556e-07 -6.24758e-09 -1.56286e-05  2.68224e-11  6.14402e-13  5.31815e-12  3.21614e-11 
         -50      1.08735 -1.40231e-07 -7.89563e-09 -1.56285e-05  2.37953e-11  5.84871e-13  5.55851e-12  2.93735e-11 
         -50      1.13042 -1.35104e-07 -8.42261e-09 -1.56283e-05  2.09335e-11  5.31107e-13  5.84288e-12  2.67946e-11 
         -50      1.17431  -1.2924e-07 -7.94282e-09 -1.56282e-05    1.826e-11     4.63e-13  6.15673e-12  2.44335e-11 
         -50      1.21905 -1.22713e-07 -6.71524e-09  -1.5628e-05  1.57848e-11  3.92163e-13  6.47022e-12  2.22701e-11 
         -50      1.26461 -1.15635e-07 -5.12259e-09  -1.5628e-05  1.35174e-11  3.30748e-13  6.74203e-12  2.02729e-11 
         -50      1.31103  -1.0812e-07 -3.62285e-09  -1.5628e-05  1.14561e-11  2.88617e-13  6.93277e-12  1.84006e-11 
         -50      1.35826 -1.00322e-07 -2.68535e-09  -1.5628e-05  9.59852e-12  2.69767e-13  7.02486e-12  1.66335e-11 
         -50      1.40635 -9.23836e-08 -2.68171e-09 -1.56281e-05  7.93237e-12  2.66651e-13  7.05581e-12  1.49967e-11 
         -50      1.45525 -8.44712e-08  -3.7457e-09 -1.56281e-05   6.4448e-12  2.52763e-13  7.16461e-12  1.36165e-11 
         -50      1.50498 -7.67201e-08 -5.58036e-09  -1.5628e-05  5.11504e-12  1.72612e-13  7.65658e-12  1.27776e-11 
         -50      1.55558 -6.90947e-08 -5.20048e-09  -1.5628e-05  4.06926e-12  2.04941e-13  7.47641e-12  1.15505e-11 
         -50      1.60699 -6.18185e-08  -4.8769e-09  -1.5628e-05  3.15193e-12  1.93892e-13  7.54248e-12  1.06983e-11 
         -50      1.65927 -5.48926e-08 -4.65499e-09 -1.56279e-05  2.45645e-12  1.82172e-13  7.58088e-12  1.00404e-11 
         -50      1.71235 -4.83293e-08 -4.51245e-09 -1.56279e-05   1.9606e-12  1.69998e-13    7.592e-12  9.55497e-12 
         -50      1.76629 -4.21228e-08 -4.42891e-09 -1.56279e-05  1.64046e-12   1.5755e-13  7.57654e-12  9.21879e-12 
         -50      1.82104 -3.62815e-08 -4.38682e-09 -1.56279e-05  1.47313e-12  1.45019e-13  7.53541e-12  9.00988e-12 
         -50      1.87666 -3.07977e-08 -4.37107e-09 -1.56279e-05  1.43535e-12  1.32551e-13  7.46971e-12  8.90604e-12 
         -50      1.93309  -2.5676e-08 -4.36922e-09 -1.56279e-05  1.50463e-12  1.20304e-13  7.38087e-12  8.88618e-12 
         -50      1.99034 -2.09093e-08 -4.37139e-09 -1.56279e-05  1.65908e-12  1.08399e-13  7.27039e-12  8.92992e-12 
         -50      2.04847 -1.64902e-08 -4.37017e-09 -1.56279e-05  1.87802e-12  9.69381e-14  7.13988e-12  9.01819e-12 
         -50       2.1074 -1.24176e-08 -4.36049e-09 -1.56279e-05  2.14153e-12  8.60279e-14  6.99137e-12  9.13308e-12 
         -50      2.16721 -8.67883e-09  -4.3394e-09 -1.56279e-05  2.43169e-12  7.57323e-14  6.82667e-12  9.25845e-12 
         -50      2.22781 -5.26946e-09 -4.30588e-09 -1.56279e-05  2.73155e-12   6.6124e-14  6.64803e-12  9.37962e-12 
         -50      2.28928 -2.17489e-09 -4.26047e-09 -1.56279e-05  3.02669e-12  5.72368e-14  6.45736e-12  9.48408e-12 
         -50      2.35156  6.12586e-10 -4.20506e-09 -1.56279e-05    3.304e-12  4.91136e-14  6.25706e-12  9.56108e-12 
         -50       2.4147  3.10894e-09 -4.14238e-09 -1.56278e-05  3.55316e-12   4.1764e-14  6.04901e-12   9.6022e-12 
         -50      2.47865  5.32476e-09 -4.07582e-09 -1.56278e-05  3.76551e-12  3.52051e-14  5.83557e-12  9.60112e-12 
         -50      2.54347  7.27734e-09 -4.00879e-09 -1.56278e-05  3.93525e-12  2.94273e-14  5.61846e-12  9.55377e-12 
         -50      2.60909  8.97959e-09 -3.94466e-09 -1.56278e-05  4.05847e-12  2.44276e-14  5.39983e-12   9.4584e-12 
         -50      2.67554  1.04488e-08 -3.88606e-09 -1.56277e-05  4.13392e-12  2.01848e-14  5.18128e-12  9.31532e-12 
         -50      2.74287  1.17023e-08 -3.83478e-09 -1.56277e-05  4.16249e-12  1.66726e-14   4.9642e-12  9.12684e-12 
         -50        2.811  1.27556e-08  -3.7915e-09 -1.56276e-05   4.1471e-12   1.3865e-14  4.75019e-12  8.89746e-12 
         -50         2.88  1.36272e-08 -3.75549e-09 -1.56276e-05  4.09256e-12  1.17212e-14  4.54007e-12  8.63283e-12 
         -50      2.94979  1.43336e-08 -3.72473e-09 -1.56275e-05  4.00532e-12  1.01993e-14  4.33496e-12   8.3405e-12 
         -50      3.02047  1.48931e-08 -3.69586e-09 -1.56275e-05  3.89278e-12  9.24288e-15  4.13523e-12  8.02825e-12 
         -50      3.09194  1.53225e-08 -3.66458e-09 -1.56274e-05  3.76319e-12  8.78588e-15  3.94152e-12  7.70495e-12 
         -50      3.16429  1.56395e-08 -3.62606e-09 -1.56274e-05  3.62448e-12  8.74275e-15  3.75377e-12  7.37851e-12 
         -50      3.23743  1.58603e-08 -3.57589e-09 -1.56273e-05  3.48412e-12  9.00454e-15  3.57229e-12  7.05667e-12 
         -50       3.3114  1.60015e-08 -3.51102e-09 -1.56272e-05  3.34759e-12  9.42949e-15  3.39693e-12  6.74479e-12 
         -50      3.38626  1.60787e-08 -3.43132e-09 -1.56271e-05  3.21759e-12  9.83259e-15  3.22762e-12  6.44548e-12 
         -50      3.46191  1.61069e-08  -3.3417e-09 -1.56271e-05  3.09302e-12   9.9706e-15  3.06471e-12    6.158e-12 
         -50      3.53844  1.61005e-08 -3.25424e-09  -1.5627e-05  2.96697e-12  9.52624e-15  2.90849e-12  5.87573e-12 
         -50      3.61576  1.60728e-08 -3.19162e-09 -1.56269e-05   2.8257e-12  8.08764e-15  2.76014e-12  5.58611e-12 
         -50      3.69396  1.60366e-08 -3.19049e-09 -1.56268e-05  2.64611e-12  5.12009e-15  2.62124e-12  5.26762e-12 
         -50      3.77295  1.59879e-08 -3.23689e-09 -1.56267e-05   2.5145e-12  4.55202e-15  2.48597e-12  5.00074e-12 
         -50      3.85283   1.5903e-08 -3.18149e-09 -1.56265e-05  2.38584e-12  5.67669e-15  2.35489e-12  4.74099e-12 
         -50      3.93349  1.58104e-08 -3.13211e-09 -1.56264e-05  2.26186e-12  6.00319e-15  2.23081e-12  4.49293e-12 
         -50      4.01504  1.56897e-08 -3.08193e-09 -1.56263e-05  2.14247e-12  6.20463e-15  2.11296e-12  4.25569e-12 
         -50      4.09737  1.55703e-08 -3.04077e-09 -1.56262e-05  2.02836e-12  5.99327e-15  2.00093e-12  4.02954e-12 
         -50      4.18054  1.54508e-08  -3.0043e-09  -1.5626e-05  1.91942e-12  5.58183e-15  1.89429e-12  3.81395e-12 
         -50       4.2646  1.53299e-08 -2.96965e-09 -1.56259e-05  1.81552e-12  5.11507e-15  1.79269e-12  3.60846e-12 
         -50      4.34945  1.52066e-08 -2.93522e-09 -1.56257e-05   1.7167e-12  4.68197e-15    1.696e-12  3.41295e-12 
         -50      4.43518  1.50794e-08 -2.90027e-09 -1.56256e-05   1.6227e-12  4.32483e-15  1.60391e-12  3.22684e-12 
         -50      4.52169  1.49478e-08 -2.86481e-09 -1.56254e-05  1.53345e-12  4.05237e-15  1.51633e-12  3.05002e-12 
         -50      4.60909  1.48107e-08 -2.82918e-09 -1.56252e-05  1.44869e-12  3.84893e-15  1.43301e-12  2.88193e-12 
         -50      4.69728   1.4668e-08 -2.79404e-09 -1.56251e-05  1.36832e-12  3.68614e-15   1.3539e-12  2.72245e-12 
         -50      4.78636  1.45193e-08 -2.75992e-09 -1.56249e-05  1.29205e-12  3.53129e-15  1.27877e-12  2.57104e-12 
         -50      4.87621  1.43651e-08 -2.72733e-09 -1.56247e-05  1.21979e-12  3.35614e-15  1.20756e-12  2.42756e-12 
         -50      4.96691  1.42059e-08 -2.69641e-09 -1.56245e-05  1.15129e-12  3.14247e-15  1.14008e-12  2.29158e-12 
         -50      5.05849  1.40426e-08 -2.66703e-09 -1.56243e-05  1.08635e-12  2.88607e-15  1.07614e-12   2.1627e-12 
         -50      5.15086  1.38766e-08 -2.63888e-09 -1.56241e-05  1.02487e-12  2.59824e-15  1.01566e-12  2.04073e-12 
         -50      5.24411  1.37096e-08 -2.61145e-09 -1.56239e-05  9.66638e-13  2.30202e-15  9.58363e-13   1.9252e-12 
         -50      5.33815  1.35437e-08 -2.58445e-09 -1.56236e-05  9.11575e-13  2.02667e-15  9.04147e-13  1.81591e-12 
         -50      5.43308  1.33809e-08 -2.55808e-09 -1.56234e-05  8.59482e-13  1.79447e-15  8.52753e-13  1.71242e-12 
         -50      5.52879  1.32239e-08 -2.53371e-09 -1.56232e-05  8.10288e-13  1.60441e-15  8.04063e-13  1.61453e-12 
         -50       5.6254  1.30746e-08 -2.51447e-09 -1.56229e-05  7.63788e-13  1.40674e-15  7.57858e-13  1.52182e-12 
         -50      5.72278  1.29078e-08 -2.48825e-09 -1.56227e-05  7.19862e-13  1.29061e-15  7.14507e-13  1.43454e-12 
         -50      5.82099   1.2741e-08 -2.46328e-09 -1.56224e-05  6.78381e-13  1.13908e-15  6.73423e-13  1.35197e-12 
         -50      5.92011  1.25812e-08 -2.43835e-09 -1.56221e-05  6.39199e-13  9.71327e-16  6.34495e-13  1.27386e-12 
         -50         6.02  1.24269e-08 -2.41199e-09 -1.56218e-05  6.02238e-13  8.02586e-16  5.97744e-13  1.20014e-12 
         -50      6.12078  1.22753e-08 -2.38521e-09 -1.56216e-05  5.67343e-13  6.44457e-16  5.63056e-13  1.13055e-12 
         -50      6.22234   1.2123e-08 -2.36029e-09 -1.56213e-05  5.34455e-13  5.04444e-16  5.30373e-13  1.06498e-12 
         -50       6.3248  1.19665e-08 -2.33919e-09  -1.5621e-05  5.03441e-13  3.83948e-16  4.99543e-13  1.00313e-12 
         -50      6.42803  1.18037e-08 -2.32225e-09 -1.56206e-05  4.74245e-13  2.77589e-16  4.70481e-13  9.44871e-13 
         -50      6.53216  1.16338e-08 -2.30666e-09 -1.56203e-05  4.46739e-13  1.71214e-16  4.43035e-13  8.89915e-13 
         -50      6.63707  1.14589e-08 -2.28508e-09   -1.562e-05   4.2086e-13  4.09881e-17  4.17116e-13  8.38113e-13 
         -50      6.74287  1.12849e-08 -2.24877e-09 -1.56197e-05  3.96469e-13 -1.32063e-16  3.92593e-13  7.89194e-13 
         -50      6.84945   1.1129e-08 -2.24632e-09 -1.56193e-05  3.73505e-13 -2.05448e-16  3.69655e-13  7.43288e-13 
         -50      6.95686  1.09777e-08 -2.23228e-09  -1.5619e-05  3.51881e-13 -2.83694e-16  3.48009e-13  7.00015e-13 
         -50      7.06517  1.08342e-08 -2.21168e-09 -1.56186e-05  3.31503e-13 -3.60757e-16   3.2759e-13  6.59215e-13 
         -50      7.17426  1.07005e-08 -2.18816e-09 -1.56182e-05  3.12319e-13 -4.32596e-16  3.08367e-13  6.20805e-13 
         -50      7.28424  1.05772e-08 -2.16408e-09 -1.56178e-05   2.9424e-13 -4.97118e-16  2.90256e-13  5.84613e-13 
         -50        7.395  1.04643e-08 -2.14092e-09 -1.56174e-05  2.77223e-13 -5.53552e-16  2.73223e-13   5.5056e-13 
         -50      7.50666  1.03602e-08 -2.11934e-09  -1.5617e-05  2.61192e-13 -6.02547e-16  2.57187e-13  5.18491e-13 
         -50      7.61908   1.0263e-08 -2.09963e-09 -1.56166e-05  2.46113e-13 -6.45805e-16  2.42112e-13  4.88335e-13 
         -50      7.73241  1.01697e-08 -2.08178e-09 -1.56162e-05  2.31923e-13 -6.86355e-16  2.27923e-13  4.59954e-13 
         -50      7.84651  1.00771e-08 -2.06593e-09 -1.56158e-05  2.18595e-13  -7.2852e-16  2.14584e-13  4.33285e-13 
         -50      7.96145  9.98132e-09 -2.05252e-09 -1.56153e-05  2.06084e-13 -7.78452e-16  2.02034e-13  4.08222e-13 
         -50      8.07729  9.88095e-09 -2.04037e-09 -1.56149e-05  1.94337e-13  -8.3801e-16  1.90219e-13  3.84657e-13 
         -50      8.19389  9.78474e-09 -2.01904e-09 -1.56144e-05  1.83292e-13 -8.52288e-16  1.79094e-13  3.62486e-13 
         -50      8.31141  9.67767e-09 -2.00049e-09  -1.5614e-05  1.72925e-13 -8.85517e-16  1.68628e-13  3.41651e-13 
         -50      8.42969  9.56235e-09 -1.98319e-09 -1.56135e-05  1.63209e-13 -9.28977e-16  1.58802e-13  3.22106e-13 
         -50      8.54887  9.44205e-09 -1.96622e-09  -1.5613e-05  1.54091e-13 -9.74777e-16  1.49572e-13  3.03755e-13 
         -50      8.66882  9.32083e-09 -1.94936e-09 -1.56125e-05  1.45541e-13 -1.01611e-15  1.40915e-13  2.86547e-13 
         -50      8.78968  9.20238e-09  -1.9328e-09  -1.5612e-05  1.37512e-13 -1.04785e-15  1.32786e-13  2.70387e-13 
         -50      8.91131   9.0899e-09 -1.91689e-09 -1.56115e-05  1.29977e-13 -1.06686e-15  1.25158e-13  2.55221e-13 
         -50      9.03384  8.98486e-09 -1.90161e-09 -1.56109e-05  1.22891e-13 -1.07242e-15  1.17984e-13  2.40959e-13 
         -50      9.15713  8.88654e-09 -1.88587e-09 -1.56104e-05  1.16232e-13 -1.06664e-15  1.11231e-13  2.27546e-13 
         -50      9.28126  8.79067e-09 -1.86662e-09 -1.56098e-05   1.0997e-13 -1.05475e-15  1.04852e-13  2.14903e-13 
         -50       9.4063  8.68902e-09 -1.84701e-09 -1.56093e-05  1.04099e-13 -1.04151e-15  9.88861e-14  2.03064e-13 
         -50       9.5321  8.59039e-09 -1.83429e-09 -1.56087e-05  9.86155e-14 -1.02556e-15  9.33225e-14  1.92015e-13 
         -50      9.65882   8.4952e-09 -1.82017e-09 -1.56081e-05  9.34679e-14 -1.01065e-15  8.80689e-14  1.81612e-13 
         -50      9.78629  8.39972e-09 -1.80465e-09 -1.56075e-05  8.86435e-14 -9.96545e-16  8.31221e-14  1.71839e-13 
         -50      9.91468  8.30151e-09 -1.78794e-09 -1.56069e-05  8.41183e-14 -9.83012e-16  7.84648e-14  1.62655e-13 
         -50      10.0438  8.19964e-09 -1.77043e-09 -1.56063e-05  7.98795e-14 -9.69839e-16  7.40898e-14   1.5404e-13 
         -50      10.1739  8.09396e-09 -1.75256e-09 -1.56056e-05  7.59046e-14 -9.56736e-16  6.99777e-14  1.45951e-13 
         -50      10.3047  7.98532e-09 -1.73483e-09  -1.5605e-05   7.2181e-14  -9.4337e-16  6.61188e-14  1.38367e-13 
         -50      10.4363  7.87494e-09 -1.71764e-09 -1.56043e-05  6.86897e-14  -9.2928e-16  6.24955e-14   1.3125e-13 
         -50      10.5689  7.76432e-09 -1.70131e-09 -1.56037e-05  6.54128e-14 -9.13896e-16  5.90907e-14  1.24567e-13 
         -50      10.7022  7.65525e-09 -1.68603e-09  -1.5603e-05   6.2339e-14  -8.9657e-16  5.58938e-14  1.18294e-13 
         -50      10.8365  7.54917e-09 -1.67179e-09 -1.56023e-05  5.94504e-14 -8.76523e-16  5.28871e-14  1.12397e-13 
         -50      10.9715  7.44753e-09 -1.65843e-09 -1.56016e-05  5.67369e-14 -8.52968e-16  5.00608e-14  1.06856e-13 
         -50      11.1074  7.35113e-09 -1.64561e-09 -1.56009e-05  5.41828e-14 -8.25063e-16  4.73996e-14  1.01639e-13 
         -50      11.2441  7.26054e-09 -1.63285e-09 -1.56002e-05  5.17798e-14 -7.92104e-16  4.48958e-14   9.6731e-14 
         -50      11.3816  7.17557e-09 -1.61956e-09 -1.55994e-05  4.95146e-14 -7.53484e-16  4.25368e-14  9.21055e-14 
         -50        11.52  7.09574e-09 -1.60518e-09 -1.55987e-05  4.73808e-14 -7.08977e-16  4.03169e-14  8.77506e-14 
         -50      11.6592  7.01991e-09 -1.58918e-09 -1.55979e-05   4.5369e-14 -6.58736e-16  3.82275e-14  8.36483e-14 
         -50      11.7993  6.94662e-09  -1.5713e-09 -1.55971e-05  4.34712e-14 -6.03533e-16  3.62609e-14  7.97828e-14 
         -50      11.9401  6.87435e-09 -1.55168e-09 -1.55963e-05  4.16841e-14 -5.45082e-16  3.44136e-14  7.61473e-14 
         -50      12.0819  6.80151e-09 -1.53104e-09 -1.55955e-05  4.00009e-14 -4.86068e-16  3.26774e-14  7.27269e-14 
         -50      12.2244  6.72715e-09 -1.51101e-09 -1.55947e-05  3.84204e-14 -4.30705e-16  3.10478e-14  6.95158e-14 
         -50      12.3678  6.65101e-09 -1.49432e-09 -1.55939e-05  3.69383e-14 -3.84807e-16   2.9515e-14  6.64998e-14 
         -50       12.512  6.57447e-09 -1.48527e-09  -1.5593e-05  3.55549e-14 -3.56417e-16  2.80705e-14  6.36709e-14 
         -50      12.6571  6.49906e-09  -1.4856e-09 -1.55922e-05   3.4239e-14 -3.23117e-16  2.67088e-14  6.09922e-14 
         -50       12.803  6.42662e-09 -1.47527e-09 -1.55913e-05  3.29693e-14 -2.51048e-16  2.54032e-14   5.8416e-14 
         -50      12.9498  6.35278e-09  -1.4455e-09 -1.55904e-05  3.18139e-14 -2.16692e-16  2.41682e-14  5.60245e-14 
         -50      13.0973  6.27328e-09 -1.42371e-09 -1.55895e-05  3.06978e-14 -1.51482e-16  2.30155e-14  5.37547e-14 
         -50      13.2457  6.19095e-09 -1.40547e-09 -1.55886e-05  2.96459e-14 -9.72801e-17  2.19274e-14  5.16136e-14 
         -50       13.395  6.10767e-09 -1.39007e-09 -1.55877e-05  2.86573e-14 -4.66097e-17  2.09017e-14  4.95982e-14 
         -50       13.545  6.02491e-09  -1.3768e-09 -1.55867e-05  2.77259e-14   3.4817e-18  1.99352e-14  4.76992e-14 
         -50       13.696  5.94363e-09 -1.36489e-09 -1.55858e-05  2.68444e-14  5.48066e-17  1.90226e-14  4.59042e-14 
         -50      13.8477  5.86467e-09 -1.35366e-09 -1.55848e-05  2.60087e-14  1.08057e-16  1.81613e-14  4.42063e-14 
         -50      14.0004  5.78835e-09 -1.34247e-09 -1.55838e-05  2.52136e-14  1.63306e-16  1.73467e-14  4.25957e-14 
         -50      14.1537  5.71495e-09 -1.33082e-09 -1.55828e-05  2.44568e-14  2.19985e-16  1.65765e-14  4.10677e-14 
         -50      14.3081   5.6443e-09 -1.31832e-09 -1.55818e-05  2.37346e-14  2.77366e-16  1.58468e-14  3.96151e-14 
         -50      14.4631   5.5762e-09 -1.30476e-09 -1.55808e-05  2.30462e-14  3.34481e-16  1.51559e-14  3.82348e-14 
         -50       14.619  5.51016e-09 -1.29008e-09 -1.55797e-05  2.23894e-14  3.90526e-16  1.45009e-14  3.69223e-14 
         -50      14.7758  5.44556e-09 -1.27438e-09 -1.55787e-05  2.17629e-14  4.44887e-16  1.38795e-14  3.56736e-14 
         -50      14.9334  5.38182e-09 -1.25793e-09 -1.55776e-05  2.11665e-14  4.97135e-16  1.32905e-14  3.44876e-14 
         -50      15.0919  5.31818e-09 -1.24108e-09 -1.55765e-05  2.05988e-14  5.47305e-16  1.27319e-14  3.33605e-14 
         -50      15.2511  5.25409e-09 -1.22433e-09 -1.55754e-05  2.00598e-14   5.9565e-16  1.22028e-14  3.22917e-14 
         -50      15.4113   5.1889e-09 -1.20814e-09 -1.55743e-05  1.95478e-14  6.42828e-16  1.17014e-14  3.12776e-14 
         -50      15.5722  5.12234e-09 -1.19296e-09 -1.55732e-05  1.90624e-14  6.89563e-16  1.12271e-14  3.03172e-14 
         -50      15.7341  5.05419e-09 -1.17907e-09  -1.5572e-05  1.86014e-14  7.36697e-16  1.07782e-14  2.94066e-14 
         -50      15.8966  4.98475e-09 -1.16655e-09 -1.55709e-05  1.81633e-14  7.84719e-16   1.0354e-14  2.85435e-14 
         -50      16.0602  4.91458e-09 -1.15505e-09 -1.55697e-05  1.77447e-14  8.33665e-16  9.95236e-15  2.77225e-14 
         -50      16.2244  4.84494e-09 -1.14371e-09 -1.55685e-05  1.73427e-14  8.82482e-16  9.57196e-15  2.69394e-14 
         -50      16.3895  4.77757e-09 -1.13092e-09 -1.55673e-05  1.69526e-14  9.28723e-16  9.21014e-15  2.61868e-14 
         -50      16.5555  4.71501e-09 -1.11414e-09 -1.55661e-05  1.65688e-14  9.67852e-16  8.86365e-15  2.54559e-14 
         -50      16.7223  4.65762e-09 -1.09462e-09 -1.55648e-05  1.61882e-14  1.00466e-15  8.53419e-15  2.47453e-14 
         -50        16.89  4.59393e-09 -1.08859e-09 -1.55636e-05  1.58259e-14  1.06918e-15  8.22122e-15  2.40694e-14 
         -50      17.0584  4.53521e-09 -1.07642e-09 -1.55623e-05  1.54848e-14  1.11737e-15  7.92367e-15  2.34302e-14 
         -50      17.2278  4.47908e-09 -1.06133e-09  -1.5561e-05  1.51608e-14  1.15659e-15  7.64015e-15  2.28221e-14 
         -50      17.3979  4.42404e-09 -1.04556e-09 -1.55597e-05  1.48512e-14  1.19188e-15  7.37016e-15  2.22421e-14 
         -50      17.5689  4.36904e-09 -1.03042e-09 -1.55584e-05  1.45535e-14  1.22656e-15  7.11273e-15  2.16864e-14 
         -50      17.7407  4.31368e-09 -1.01661e-09 -1.55571e-05  1.42663e-14  1.26236e-15  6.86758e-15  2.11535e-14 
         -50      17.9133  4.25781e-09 -1.00428e-09 -1.55557e-05  1.39882e-14  1.29992e-15  6.63406e-15  2.06414e-14 
         -50      18.0869  4.20158e-09 -9.93227e-10 -1.55543e-05  1.37183e-14  1.33907e-15  6.41152e-15  2.01485e-14 
         -50      18.2611  4.14541e-09 -9.83051e-10  -1.5553e-05  1.34565e-14  1.37897e-15  6.19972e-15  1.96744e-14 
         -50      18.4364  4.08964e-09 -9.73229e-10 -1.55516e-05   1.3202e-14  1.41865e-15  5.99786e-15  1.92175e-14 
         -50      18.6123   4.0348e-09 -9.63272e-10 -1.55502e-05   1.2955e-14  1.45694e-15  5.80559e-15  1.87778e-14 
         -50      18.7892  3.98118e-09  -9.5276e-10 -1.55487e-05  1.27151e-14  1.49296e-15  5.62206e-15  1.83539e-14 
         -50      18.9669   3.9291e-09 -9.41445e-10 -1.55473e-05  1.24824e-14  1.52601e-15  5.44682e-15  1.79456e-14 
         -50      19.1454  3.87858e-09 -9.29236e-10 -1.55458e-05  1.22566e-14  1.55591e-15  5.27902e-15  1.75515e-14 
         -50      19.3247  3.82961e-09 -9.16254e-10 -1.55443e-05  1.20376e-14  1.58288e-15  5.11828e-15  1.71714e-14 
         -50       19.505  3.78183e-09 -9.02741e-10 -1.55428e-05  1.18252e-14  1.60769e-15  4.96391e-15  1.68043e-14 
         -50      19.6859  3.73486e-09 -8.89058e-10 -1.55413e-05  1.16194e-14  1.63149e-15  4.81584e-15    1.645e-14 
         -50      19.8677  3.68808e-09 -8.75519e-10 -1.55398e-05    1.142e-14  1.65575e-15    4.674e-15  1.61083e-14 
         -50      20.0505  3.64079e-09 -8.62269e-10 -1.55383e-05  1.12268e-14  1.68209e-15  4.53878e-15  1.57796e-14 
         -50       20.234  3.59239e-09 -8.49109e-10 -1.55367e-05  1.10404e-14  1.71188e-15  4.41138e-15  1.54654e-14 
         -50      20.4184  3.54137e-09 -8.42024e-10 -1.55351e-05  1.08635e-14   1.7468e-15  4.28733e-15   1.5164e-14 
         -50      20.6035  3.48991e-09 -8.35899e-10 -1.55335e-05  1.06948e-14  1.77876e-15  4.16966e-15  1.48773e-14 
         -50      20.7896  3.44037e-09 -8.28395e-10 -1.55319e-05   1.0531e-14  1.80689e-15  4.06034e-15  1.46039e-14 
         -50      20.9765  3.39613e-09  -8.1845e-10 -1.55303e-05  1.03684e-14  1.82723e-15    3.962e-15  1.43426e-14 
         -50      21.1642  3.36217e-09 -8.03858e-10 -1.55286e-05  1.02011e-14   1.8339e-15  3.87809e-15  1.40911e-14 
         -50      21.3527  3.31284e-09 -7.90219e-10  -1.5527e-05  1.00691e-14  1.85065e-15  3.77154e-15  1.38522e-14 
         -50      21.5421  3.26545e-09 -7.79061e-10 -1.55253e-05  9.91819e-15  1.87267e-15  3.66558e-15   1.3595e-14 
         -50      21.7323  3.22648e-09 -7.68026e-10 -1.55236e-05  9.75166e-15  1.88817e-15  3.57858e-15  1.33412e-14 
         -50      21.9233  3.18932e-09 -7.57695e-10 -1.55219e-05  9.59592e-15  1.90155e-15  3.50232e-15   1.3109e-14 
         -50      22.1153   3.1503e-09 -7.49419e-10 -1.55202e-05  9.44548e-15  1.93258e-15  3.42371e-15  1.28797e-14 
         -50       22.308  3.10641e-09 -7.39809e-10 -1.55184e-05  9.29097e-15  1.96011e-15  3.34968e-15  1.26508e-14 
         -50      22.5016  3.05992e-09 -7.29307e-10 -1.55167e-05  9.15137e-15  1.98142e-15  3.27757e-15  1.24388e-14 
         -50      22.6959  3.01319e-09 -7.18616e-10 -1.55149e-05  9.02264e-15  1.99777e-15   3.2073e-15  1.22395e-14 
         -50      22.8912  2.96787e-09  -7.0818e-10 -1.55131e-05  8.90095e-15  2.01057e-15  3.13901e-15  1.20493e-14 
         -50      23.0872  2.92514e-09 -6.98259e-10 -1.55113e-05  8.78341e-15  2.02127e-15   3.0732e-15  1.18657e-14 
         -50      23.2841  2.88544e-09 -6.88926e-10 -1.55094e-05  8.66766e-15  2.03121e-15  3.01027e-15  1.16867e-14 
         -50      23.4819   2.8486e-09 -6.80114e-10 -1.55076e-05   8.5521e-15  2.04155e-15  2.95053e-15  1.15112e-14 
         -50      23.6804  2.81396e-09 -6.71677e-10 -1.55057e-05  8.43612e-15  2.05314e-15  2.89427e-15  1.13388e-14 
         -50      23.8799  2.78034e-09 -6.63392e-10 -1.55038e-05  8.31958e-15   2.0665e-15  2.84137e-15  1.11691e-14 
         -50      24.0801  2.74647e-09 -6.55047e-10  -1.5502e-05  8.20328e-15  2.08171e-15  2.79169e-15  1.10029e-14 
         -50      24.2813  2.71098e-09 -6.46451e-10    -1.55e-05  8.08828e-15  2.09845e-15  2.74476e-15  1.08408e-14 
         -50      24.4831  2.67303e-09 -6.37526e-10 -1.54981e-05  7.97627e-15  2.11591e-15  2.70019e-15   1.0684e-14 
         -50       24.686  2.63244e-09 -6.28325e-10 -1.54962e-05   7.8688e-15  2.13288e-15   2.6576e-15  1.05337e-14 
         -50      24.8895  2.59047e-09 -6.19136e-10 -1.54942e-05  7.76751e-15  2.14773e-15  2.61702e-15  1.03916e-14 
         -50       25.094  2.55016e-09 -6.10503e-10 -1.54922e-05  7.67327e-15  2.15856e-15    2.579e-15  1.02591e-14 
         -50      25.2992  2.51724e-09 -6.03339e-10 -1.54902e-05  7.58619e-15  2.16323e-15  2.54519e-15  1.01381e-14 
         -50      25.5052  2.49019e-09 -5.96707e-10 -1.54882e-05  7.49929e-15  2.16234e-15   2.5112e-15   1.0017e-14 
         -50      25.7123  2.44898e-09 -5.87237e-10 -1.54862e-05  7.39986e-15  2.16774e-15  2.47213e-15  9.87833e-15 
         -50        25.92  2.41212e-09 -5.79093e-10 -1.54841e-05  7.29928e-15  2.17878e-15  2.43491e-15  9.74034e-15 
         -50      26.1287  2.37845e-09  -5.7143e-10 -1.54821e-05  7.20167e-15  2.19197e-15  2.40111e-15  9.60876e-15 
         -50       26.338   2.3469e-09  -5.6379e-10   -1.548e-05  7.10948e-15  2.20463e-15  2.37098e-15  9.48628e-15 
         -50      26.5484  2.31641e-09 -5.56125e-10 -1.54779e-05  7.02294e-15  2.21511e-15  2.34343e-15  9.37204e-15 