<?xml version="1.0"?>
<VTKFile type="UnstructuredGrid" version="0.1" byte_order="LittleEndian">
  <UnstructuredGrid>
    <Piece NumberOfPoints="16" NumberOfCells="9">
      <Points>
        <DataArray type="Float64" NumberOfComponents="3" format="ascii">
          0.00000000e+00 0.00000000e+00 0.00000000e+00 
8.33205879e-04 0.00000000e+00 0.00000000e+00 
1.66641176e-03 0.00000000e+00 0.00000000e+00 
2.49961764e-03 0.00000000e+00 0.00000000e+00 
0.00000000e+00 1.09249622e-05 0.00000000e+00 
8.33205879e-04 1.09249622e-05 0.00000000e+00 
1.66641176e-03 1.09249622e-05 0.00000000e+00 
2.49961764e-03 1.09249622e-05 0.00000000e+00 
0.00000000e+00 2.18499245e-05 0.00000000e+00 
8.33205879e-04 2.18499245e-05 0.00000000e+00 
1.66641176e-03 2.18499245e-05 0.00000000e+00 
2.49961764e-03 2.18499245e-05 0.00000000e+00 
0.00000000e+00 3.27748858e-05 0.00000000e+00 
8.33205879e-04 3.27748858e-05 0.00000000e+00 
1.66641176e-03 3.27748858e-05 0.00000000e+00 
2.49961764e-03 3.27748858e-05 0.00000000e+00 

        </DataArray>
      </Points>
      <Cells>
        <DataArray type="Int32" Name="connectivity" format="ascii">
0 1 5 4
4 5 9 8
8 9 13 12
1 2 6 5
5 6 10 9
9 10 14 13
2 3 7 6
6 7 11 10
10 11 15 14

        </DataArray>
        <DataArray type="Int32" Name="offsets" format="ascii">
4 8 12 16 20 24 28 32 36 
        </DataArray>
        <DataArray type="UInt8" Name="types" format="ascii">
9 9 9 9 9 9 9 9 9 
        </DataArray>
      </Cells>
      <PointData>
        <DataArray type="Float64" Name="rho">
          9.95280637e-01 1.06078902e+00 1.12629740e+00 1.19180578e+00 9.93670838e-01 1.05931908e+00 1.12496731e+00 1.19061555e+00 9.92061040e-01 1.05784913e+00 1.12363723e+00 1.18942532e+00 9.90451241e-01 1.05637919e+00 1.12230714e+00 1.18823509e+00 
        </DataArray>
        <DataArray type="Float64" Name="rhou">
          -1.47853348e-05 -1.08437713e-05 -6.90220782e-06 -2.96064433e-06 4.30562258e-03 5.71757159e-03 7.12952059e-03 8.54146959e-03 8.62603050e-03 1.14459869e-02 1.42659434e-02 1.70858998e-02 1.29464384e-02 1.71744023e-02 2.14023662e-02 2.56303301e-02 
        </DataArray>
        <DataArray type="Float64" Name="rhov">
          1.26414879e-05 9.75261032e-06 6.86373277e-06 3.97485522e-06 2.14177068e-04 -4.22564628e-06 -2.22628361e-04 -4.41031075e-04 4.15712649e-04 -1.82039029e-05 -4.52120454e-04 -8.86037006e-04 6.17248229e-04 -3.21821595e-05 -6.81612548e-04 -1.33104294e-03 
        </DataArray>
        <DataArray type="Float64" Name="E">
          2.77700981e+00 2.95978828e+00 3.14256676e+00 3.32534523e+00 2.77442847e+00 2.95799097e+00 3.14155348e+00 3.32511599e+00 2.77184712e+00 2.95619366e+00 3.14054020e+00 3.32488674e+00 2.76926577e+00 2.95439635e+00 3.13952693e+00 3.32465750e+00 
        </DataArray>
      </PointData>
    </Piece>
    <Piece NumberOfPoints="16" NumberOfCells="9">
      <Points>
        <DataArray type="Float64" NumberOfComponents="3" format="ascii">
          0.00000000e+00 3.27748858e-05 0.00000000e+00 
8.33205879e-04 3.27748858e-05 0.00000000e+00 
1.66641176e-03 3.27748858e-05 0.00000000e+00 
2.49961764e-03 3.27748858e-05 0.00000000e+00 
0.00000000e+00 4.80698327e-05 0.00000000e+00 
8.33205879e-04 4.80698327e-05 0.00000000e+00 
1.66641176e-03 4.80698327e-05 0.00000000e+00 
2.49961764e-03 4.80698327e-05 0.00000000e+00 
0.00000000e+00 6.33647796e-05 0.00000000e+00 
8.33205879e-04 6.33647796e-05 0.00000000e+00 
1.66641176e-03 6.33647796e-05 0.00000000e+00 
2.49961764e-03 6.33647796e-05 0.00000000e+00 
0.00000000e+00 7.86597229e-05 0.00000000e+00 
8.33205879e-04 7.86597229e-05 0.00000000e+00 
1.66641176e-03 7.86597229e-05 0.00000000e+00 
2.49961764e-03 7.86597229e-05 0.00000000e+00 

        </DataArray>
      </Points>
      <Cells>
        <DataArray type="Int32" Name="connectivity" format="ascii">
0 1 5 4
4 5 9 8
8 9 13 12
1 2 6 5
5 6 10 9
9 10 14 13
2 3 7 6
6 7 11 10
10 11 15 14

        </DataArray>
        <DataArray type="Int32" Name="offsets" format="ascii">
4 8 12 16 20 24 28 32 36 
        </DataArray>
        <DataArray type="UInt8" Name="types" format="ascii">
9 9 9 9 9 9 9 9 9 
        </DataArray>
      </Cells>
      <PointData>
        <DataArray type="Float64" Name="rho">
          9.90530411e-01 1.05644376e+00 1.12235712e+00 1.18827047e+00 9.88787345e-01 1.05477061e+00 1.12075387e+00 1.18673714e+00 9.87044279e-01 1.05309745e+00 1.11915063e+00 1.18520380e+00 9.85301214e-01 1.05142430e+00 1.11754738e+00 1.18367047e+00 
        </DataArray>
        <DataArray type="Float64" Name="rhou">
          1.29165357e-02 1.71558210e-02 2.13951062e-02 2.56343915e-02 1.93157804e-02 2.54178247e-02 3.15198689e-02 3.76219132e-02 2.57150250e-02 3.36798283e-02 4.16446317e-02 4.96094350e-02 3.21142697e-02 4.19418320e-02 5.17693944e-02 6.15969568e-02 
        </DataArray>
        <DataArray type="Float64" Name="rhov">
          6.13953684e-04 -3.48217397e-05 -6.83597164e-04 -1.33237259e-03 7.21999951e-04 -1.89946354e-04 -1.10189266e-03 -2.01383896e-03 8.30046218e-04 -3.45070968e-04 -1.52018815e-03 -2.69530534e-03 9.38092485e-04 -5.00195582e-04 -1.93848365e-03 -3.37677172e-03 
        </DataArray>
        <DataArray type="Float64" Name="E">
          2.76947895e+00 2.95457002e+00 3.13966110e+00 3.32475217e+00 2.76734246e+00 2.95319514e+00 3.13904783e+00 3.32490052e+00 2.76520596e+00 2.95182026e+00 3.13843457e+00 3.32504887e+00 2.76306947e+00 2.95044538e+00 3.13782130e+00 3.32519722e+00 
        </DataArray>
      </PointData>
    </Piece>
    <Piece NumberOfPoints="16" NumberOfCells="9">
      <Points>
        <DataArray type="Float64" NumberOfComponents="3" format="ascii">
          0.00000000e+00 7.86597229e-05 0.00000000e+00 
8.33205879e-04 7.86597229e-05 0.00000000e+00 
1.66641176e-03 7.86597229e-05 0.00000000e+00 
2.49961764e-03 7.86597229e-05 0.00000000e+00 
0.00000000e+00 1.00072648e-04 0.00000000e+00 
8.33205879e-04 1.00072648e-04 0.00000000e+00 
1.66641176e-03 1.00072648e-04 0.00000000e+00 
2.49961764e-03 1.00072648e-04 0.00000000e+00 
0.00000000e+00 1.21485573e-04 0.00000000e+00 
8.33205879e-04 1.21485573e-04 0.00000000e+00 
1.66641176e-03 1.21485573e-04 0.00000000e+00 
2.49961764e-03 1.21485573e-04 0.00000000e+00 
0.00000000e+00 1.42898498e-04 0.00000000e+00 
8.33205879e-04 1.42898498e-04 0.00000000e+00 
1.66641176e-03 1.42898498e-04 0.00000000e+00 
2.49961764e-03 1.42898498e-04 0.00000000e+00 

        </DataArray>
      </Points>
      <Cells>
        <DataArray type="Int32" Name="connectivity" format="ascii">
0 1 5 4
4 5 9 8
8 9 13 12
1 2 6 5
5 6 10 9
9 10 14 13
2 3 7 6
6 7 11 10
10 11 15 14

        </DataArray>
        <DataArray type="Int32" Name="offsets" format="ascii">
4 8 12 16 20 24 28 32 36 
        </DataArray>
        <DataArray type="UInt8" Name="types" format="ascii">
9 9 9 9 9 9 9 9 9 
        </DataArray>
      </Cells>
      <PointData>
        <DataArray type="Float64" Name="rho">
          9.85547678e-01 1.05158872e+00 1.11762977e+00 1.18367081e+00 9.82050437e-01 1.04871483e+00 1.11537922e+00 1.18204361e+00 9.78553196e-01 1.04584093e+00 1.11312867e+00 1.18041640e+00 9.75055955e-01 1.04296704e+00 1.11087812e+00 1.17878920e+00 
        </DataArray>
        <DataArray type="Float64" Name="rhou">
          3.20529724e-02 4.19061438e-02 5.17593151e-02 6.16124865e-02 4.18888315e-02 5.40424098e-02 6.61959882e-02 7.83495666e-02 5.17246905e-02 6.61786759e-02 8.06326613e-02 9.50866466e-02 6.15605496e-02 7.83149420e-02 9.50693343e-02 1.11823727e-01 
        </DataArray>
        <DataArray type="Float64" Name="rhov">
          9.97055944e-04 -4.66722458e-04 -1.93050086e-03 -3.39427926e-03 7.37826906e-04 -9.69430532e-04 -2.67668797e-03 -4.38394541e-03 4.78597869e-04 -1.47213860e-03 -3.42287508e-03 -5.37361155e-03 2.19368831e-04 -1.97484668e-03 -4.16906219e-03 -6.36327770e-03 
        </DataArray>
        <DataArray type="Float64" Name="E">
          2.76373951e+00 2.95089036e+00 3.13804121e+00 3.32519206e+00 2.75798790e+00 2.94766695e+00 3.13734601e+00 3.32702506e+00 2.75223629e+00 2.94444355e+00 3.13665081e+00 3.32885806e+00 2.74648468e+00 2.94122014e+00 3.13595560e+00 3.33069107e+00 
        </DataArray>
      </PointData>
    </Piece>
    <Piece NumberOfPoints="16" NumberOfCells="9">
      <Points>
        <DataArray type="Float64" NumberOfComponents="3" format="ascii">
          0.00000000e+00 1.42898498e-04 0.00000000e+00 
8.33205879e-04 1.42898498e-04 0.00000000e+00 
1.66641176e-03 1.42898498e-04 0.00000000e+00 
2.49961764e-03 1.42898498e-04 0.00000000e+00 
0.00000000e+00 1.72876593e-04 0.00000000e+00 
8.33205879e-04 1.72876593e-04 0.00000000e+00 
1.66641176e-03 1.72876593e-04 0.00000000e+00 
2.49961764e-03 1.72876593e-04 0.00000000e+00 
0.00000000e+00 2.02854688e-04 0.00000000e+00 
8.33205879e-04 2.02854688e-04 0.00000000e+00 
1.66641176e-03 2.02854688e-04 0.00000000e+00 
2.49961764e-03 2.02854688e-04 0.00000000e+00 
0.00000000e+00 2.32832783e-04 0.00000000e+00 
8.33205879e-04 2.32832783e-04 0.00000000e+00 
1.66641176e-03 2.32832783e-04 0.00000000e+00 
2.49961764e-03 2.32832783e-04 0.00000000e+00 

        </DataArray>
      </Points>
      <Cells>
        <DataArray type="Int32" Name="connectivity" format="ascii">
0 1 5 4
4 5 9 8
8 9 13 12
1 2 6 5
5 6 10 9
9 10 14 13
2 3 7 6
6 7 11 10
10 11 15 14

        </DataArray>
        <DataArray type="Int32" Name="offsets" format="ascii">
4 8 12 16 20 24 28 32 36 
        </DataArray>
        <DataArray type="UInt8" Name="types" format="ascii">
9 9 9 9 9 9 9 9 9 
        </DataArray>
      </Cells>
      <PointData>
        <DataArray type="Float64" Name="rho">
          9.75173193e-01 1.04306496e+00 1.11095673e+00 1.17884849e+00 9.72447771e-01 1.04050620e+00 1.10856463e+00 1.17662306e+00 9.69722348e-01 1.03794744e+00 1.10617253e+00 1.17439763e+00 9.66996925e-01 1.03538868e+00 1.10378044e+00 1.17217219e+00 
        </DataArray>
        <DataArray type="Float64" Name="rhou">
          6.12943981e-02 7.81651599e-02 9.50359217e-02 1.11906684e-01 7.78906449e-02 9.68795091e-02 1.15868373e-01 1.34857238e-01 9.44868918e-02 1.15593858e-01 1.36700825e-01 1.57807791e-01 1.11083139e-01 1.34308208e-01 1.57533276e-01 1.80758345e-01 
        </DataArray>
        <DataArray type="Float64" Name="rhov">
          1.48067527e-04 -2.02444923e-03 -4.19696599e-03 -6.36948275e-03 -8.53400515e-04 -3.14700760e-03 -5.44061470e-03 -7.73422179e-03 -1.85486856e-03 -4.26956598e-03 -6.68426340e-03 -9.09896082e-03 -2.85633660e-03 -5.39212435e-03 -7.92791210e-03 -1.04636999e-02 
        </DataArray>
        <DataArray type="Float64" Name="E">
          2.74671018e+00 2.94142831e+00 3.13614644e+00 3.33086457e+00 2.74558842e+00 2.94165839e+00 3.13772836e+00 3.33379832e+00 2.74446666e+00 2.94188847e+00 3.13931027e+00 3.33673208e+00 2.74334491e+00 2.94211855e+00 3.14089219e+00 3.33966584e+00 
        </DataArray>
      </PointData>
    </Piece>
    <Piece NumberOfPoints="16" NumberOfCells="9">
      <Points>
        <DataArray type="Float64" NumberOfComponents="3" format="ascii">
          0.00000000e+00 2.32832783e-04 0.00000000e+00 
8.33205879e-04 2.32832783e-04 0.00000000e+00 
1.66641176e-03 2.32832783e-04 0.00000000e+00 
2.49961764e-03 2.32832783e-04 0.00000000e+00 
0.00000000e+00 2.74802122e-04 0.00000000e+00 
8.33205879e-04 2.74802122e-04 0.00000000e+00 
1.66641176e-03 2.74802122e-04 0.00000000e+00 
2.49961764e-03 2.74802122e-04 0.00000000e+00 
0.00000000e+00 3.16771446e-04 0.00000000e+00 
8.33205879e-04 3.16771446e-04 0.00000000e+00 
1.66641176e-03 3.16771446e-04 0.00000000e+00 
2.49961764e-03 3.16771446e-04 0.00000000e+00 
0.00000000e+00 3.58740799e-04 0.00000000e+00 
8.33205879e-04 3.58740799e-04 0.00000000e+00 
1.66641176e-03 3.58740799e-04 0.00000000e+00 
2.49961764e-03 3.58740799e-04 0.00000000e+00 

        </DataArray>
      </Points>
      <Cells>
        <DataArray type="Int32" Name="connectivity" format="ascii">
0 1 5 4
4 5 9 8
8 9 13 12
1 2 6 5
5 6 10 9
9 10 14 13
2 3 7 6
6 7 11 10
10 11 15 14

        </DataArray>
        <DataArray type="Int32" Name="offsets" format="ascii">
4 8 12 16 20 24 28 32 36 
        </DataArray>
        <DataArray type="UInt8" Name="types" format="ascii">
9 9 9 9 9 9 9 9 9 
        </DataArray>
      </Cells>
      <PointData>
        <DataArray type="Float64" Name="rho">
          9.69029047e-01 1.03650051e+00 1.10397197e+00 1.17144343e+00 9.57296269e-01 1.02896582e+00 1.10063538e+00 1.17230493e+00 9.45563492e-01 1.02143114e+00 1.09729879e+00 1.17316643e+00 9.33830714e-01 1.01389645e+00 1.09396219e+00 1.17402793e+00 
        </DataArray>
        <DataArray type="Float64" Name="rhou">
          1.10724184e-01 1.34114441e-01 1.57504697e-01 1.80894954e-01 1.40754883e-01 1.64297878e-01 1.87840872e-01 2.11383866e-01 1.70785583e-01 1.94481315e-01 2.18177047e-01 2.41872779e-01 2.00816282e-01 2.24664752e-01 2.48513222e-01 2.72361692e-01 
        </DataArray>
        <DataArray type="Float64" Name="rhov">
          -2.21110500e-03 -5.06844651e-03 -7.92578803e-03 -1.07831295e-02 -6.11389518e-03 -8.00318971e-03 -9.89248424e-03 -1.17817788e-02 -1.00166854e-02 -1.09379329e-02 -1.18591804e-02 -1.27804280e-02 -1.39194756e-02 -1.38726761e-02 -1.38258767e-02 -1.37790772e-02 
        </DataArray>
        <DataArray type="Float64" Name="E">
          2.74880825e+00 2.94509127e+00 3.14137429e+00 3.33765731e+00 2.72775421e+00 2.93616956e+00 3.14458492e+00 3.35300027e+00 2.70670017e+00 2.92724786e+00 3.14779555e+00 3.36834324e+00 2.68564614e+00 2.91832616e+00 3.15100619e+00 3.38368621e+00 
        </DataArray>
      </PointData>
    </Piece>
    <Piece NumberOfPoints="16" NumberOfCells="9">
      <Points>
        <DataArray type="Float64" NumberOfComponents="3" format="ascii">
          0.00000000e+00 3.58740799e-04 0.00000000e+00 
8.33205879e-04 3.58740799e-04 0.00000000e+00 
1.66641176e-03 3.58740799e-04 0.00000000e+00 
2.49961764e-03 3.58740799e-04 0.00000000e+00 
0.00000000e+00 4.17497853e-04 0.00000000e+00 
8.33205879e-04 4.17497853e-04 0.00000000e+00 
1.66641176e-03 4.17497853e-04 0.00000000e+00 
2.49961764e-03 4.17497853e-04 0.00000000e+00 
0.00000000e+00 4.76254936e-04 0.00000000e+00 
8.33205879e-04 4.76254936e-04 0.00000000e+00 
1.66641176e-03 4.76254936e-04 0.00000000e+00 
2.49961764e-03 4.76254936e-04 0.00000000e+00 
0.00000000e+00 5.35011990e-04 0.00000000e+00 
8.33205879e-04 5.35011990e-04 0.00000000e+00 
1.66641176e-03 5.35011990e-04 0.00000000e+00 
2.49961764e-03 5.35011990e-04 0.00000000e+00 

        </DataArray>
      </Points>
      <Cells>
        <DataArray type="Int32" Name="connectivity" format="ascii">
0 1 5 4
4 5 9 8
8 9 13 12
1 2 6 5
5 6 10 9
9 10 14 13
2 3 7 6
6 7 11 10
10 11 15 14

        </DataArray>
        <DataArray type="Int32" Name="offsets" format="ascii">
4 8 12 16 20 24 28 32 36 
        </DataArray>
        <DataArray type="UInt8" Name="types" format="ascii">
9 9 9 9 9 9 9 9 9 
        </DataArray>
      </Cells>
      <PointData>
        <DataArray type="Float64" Name="rho">
          9.31782703e-01 1.01250878e+00 1.09323485e+00 1.17396092e+00 9.36812047e-01 1.01559200e+00 1.09437196e+00 1.17315192e+00 9.41841390e-01 1.01867523e+00 1.09550907e+00 1.17234291e+00 9.46870734e-01 1.02175846e+00 1.09664618e+00 1.17153390e+00 
        </DataArray>
        <DataArray type="Float64" Name="rhou">
          1.95865765e-01 2.22028441e-01 2.48191118e-01 2.74353794e-01 2.73075531e-01 2.83664556e-01 2.94253581e-01 3.04842606e-01 3.50285297e-01 3.45300670e-01 3.40316044e-01 3.35331417e-01 4.27495063e-01 4.06936785e-01 3.86378507e-01 3.65820229e-01 
        </DataArray>
        <DataArray type="Float64" Name="rhov">
          -1.56906733e-02 -1.50546020e-02 -1.44185307e-02 -1.37824595e-02 -2.32450701e-02 -1.95512849e-02 -1.58574998e-02 -1.21637146e-02 -3.07994669e-02 -2.40479678e-02 -1.72964688e-02 -1.05449697e-02 -3.83538637e-02 -2.85446507e-02 -1.87354378e-02 -8.92622480e-03 
        </DataArray>
        <DataArray type="Float64" Name="E">
          2.67714031e+00 2.91292621e+00 3.14871210e+00 3.38449800e+00 2.72493341e+00 2.94857921e+00 3.17222502e+00 3.39587082e+00 2.77272651e+00 2.98423222e+00 3.19573793e+00 3.40724364e+00 2.82051960e+00 3.01988522e+00 3.21925084e+00 3.41861646e+00 
        </DataArray>
      </PointData>
    </Piece>
    <Piece NumberOfPoints="16" NumberOfCells="9">
      <Points>
        <DataArray type="Float64" NumberOfComponents="3" format="ascii">
          0.00000000e+00 5.35011990e-04 0.00000000e+00 
8.33205879e-04 5.35011990e-04 0.00000000e+00 
1.66641176e-03 5.35011990e-04 0.00000000e+00 
2.49961764e-03 5.35011990e-04 0.00000000e+00 
0.00000000e+00 6.17271871e-04 0.00000000e+00 
8.33205879e-04 6.17271871e-04 0.00000000e+00 
1.66641176e-03 6.17271871e-04 0.00000000e+00 
2.49961764e-03 6.17271871e-04 0.00000000e+00 
0.00000000e+00 6.99531753e-04 0.00000000e+00 
8.33205879e-04 6.99531753e-04 0.00000000e+00 
1.66641176e-03 6.99531753e-04 0.00000000e+00 
2.49961764e-03 6.99531753e-04 0.00000000e+00 
0.00000000e+00 7.81791692e-04 0.00000000e+00 
8.33205879e-04 7.81791692e-04 0.00000000e+00 
1.66641176e-03 7.81791692e-04 0.00000000e+00 
2.49961764e-03 7.81791692e-04 0.00000000e+00 

        </DataArray>
      </Points>
      <Cells>
        <DataArray type="Int32" Name="connectivity" format="ascii">
0 1 5 4
4 5 9 8
8 9 13 12
1 2 6 5
5 6 10 9
9 10 14 13
2 3 7 6
6 7 11 10
10 11 15 14

        </DataArray>
        <DataArray type="Int32" Name="offsets" format="ascii">
4 8 12 16 20 24 28 32 36 
        </DataArray>
        <DataArray type="UInt8" Name="types" format="ascii">
9 9 9 9 9 9 9 9 9 
        </DataArray>
      </Cells>
      <PointData>
        <DataArray type="Float64" Name="rho">
          9.53229664e-01 1.02294816e+00 1.09266666e+00 1.16238515e+00 1.02400156e+00 1.06559541e+00 1.10718927e+00 1.14878313e+00 1.09477345e+00 1.10824267e+00 1.12171188e+00 1.13518110e+00 1.16554534e+00 1.15088992e+00 1.13623450e+00 1.12157907e+00 
        </DataArray>
        <DataArray type="Float64" Name="rhou">
          4.44230518e-01 4.14634130e-01 3.85037741e-01 3.55441353e-01 6.16524043e-01 5.36506763e-01 4.56489484e-01 3.76472205e-01 7.88817568e-01 6.58379397e-01 5.27941227e-01 3.97503056e-01 9.61111093e-01 7.80252031e-01 5.99392970e-01 4.18533908e-01 
        </DataArray>
        <DataArray type="Float64" Name="rhov">
          -4.64321134e-02 -3.36464702e-02 -2.08608270e-02 -8.07518382e-03 -2.50564803e-02 -1.90742276e-02 -1.30919748e-02 -7.10972209e-03 -3.68084726e-03 -4.50198496e-03 -5.32312266e-03 -6.14426036e-03 1.76947858e-02 1.00702577e-02 2.44572951e-03 -5.17879863e-03 
        </DataArray>
        <DataArray type="Float64" Name="E">
          2.84403271e+00 3.02560167e+00 3.20717063e+00 3.38873958e+00 3.13492421e+00 3.20929699e+00 3.28366977e+00 3.35804254e+00 3.42581571e+00 3.39299231e+00 3.36016890e+00 3.32734550e+00 3.71670721e+00 3.57668763e+00 3.43666804e+00 3.29664846e+00 
        </DataArray>
      </PointData>
    </Piece>
    <Piece NumberOfPoints="16" NumberOfCells="9">
      <Points>
        <DataArray type="Float64" NumberOfComponents="3" format="ascii">
          0.00000000e+00 7.81791692e-04 0.00000000e+00 
8.33205879e-04 7.81791692e-04 0.00000000e+00 
1.66641176e-03 7.81791692e-04 0.00000000e+00 
2.49961764e-03 7.81791692e-04 0.00000000e+00 
0.00000000e+00 8.96955549e-04 0.00000000e+00 
8.33205879e-04 8.96955549e-04 0.00000000e+00 
1.66641176e-03 8.96955549e-04 0.00000000e+00 
2.49961764e-03 8.96955549e-04 0.00000000e+00 
0.00000000e+00 1.01211935e-03 0.00000000e+00 
8.33205879e-04 1.01211935e-03 0.00000000e+00 
1.66641176e-03 1.01211935e-03 0.00000000e+00 
2.49961764e-03 1.01211935e-03 0.00000000e+00 
0.00000000e+00 1.12728321e-03 0.00000000e+00 
8.33205879e-04 1.12728321e-03 0.00000000e+00 
1.66641176e-03 1.12728321e-03 0.00000000e+00 
2.49961764e-03 1.12728321e-03 0.00000000e+00 

        </DataArray>
      </Points>
      <Cells>
        <DataArray type="Int32" Name="connectivity" format="ascii">
0 1 5 4
4 5 9 8
8 9 13 12
1 2 6 5
5 6 10 9
9 10 14 13
2 3 7 6
6 7 11 10
10 11 15 14

        </DataArray>
        <DataArray type="Int32" Name="offsets" format="ascii">
4 8 12 16 20 24 28 32 36 
        </DataArray>
        <DataArray type="UInt8" Name="types" format="ascii">
9 9 9 9 9 9 9 9 9 
        </DataArray>
      </Cells>
      <PointData>
        <DataArray type="Float64" Name="rho">
          1.14150768e+00 1.13662335e+00 1.13173902e+00 1.12685469e+00 1.12101238e+00 1.12492985e+00 1.12884731e+00 1.13276478e+00 1.10051708e+00 1.11323635e+00 1.12595561e+00 1.13867488e+00 1.08002178e+00 1.10154285e+00 1.12306391e+00 1.14458498e+00 
        </DataArray>
        <DataArray type="Float64" Name="rhou">
          9.40441688e-01 7.70561110e-01 6.00680533e-01 4.30799955e-01 9.72420801e-01 8.17537909e-01 6.62655017e-01 5.07772125e-01 1.00439991e+00 8.64514708e-01 7.24629502e-01 5.84744295e-01 1.03637903e+00 9.11491507e-01 7.86603986e-01 6.61716465e-01 
        </DataArray>
        <DataArray type="Float64" Name="rhov">
          3.64413875e-02 2.16587902e-02 6.87619285e-03 -7.90640450e-03 6.00089273e-02 4.25658986e-02 2.51228698e-02 7.67984110e-03 8.35764670e-02 6.34730069e-02 4.33695468e-02 2.32660867e-02 1.07144007e-01 8.43801153e-02 6.16162238e-02 3.88523323e-02 
        </DataArray>
        <DataArray type="Float64" Name="E">
          3.64437943e+00 3.53481961e+00 3.42525979e+00 3.31569998e+00 3.61352023e+00 3.53382703e+00 3.45413383e+00 3.37444063e+00 3.58266103e+00 3.53283444e+00 3.48300786e+00 3.43318128e+00 3.55180183e+00 3.53184186e+00 3.51188189e+00 3.49192193e+00 
        </DataArray>
      </PointData>
    </Piece>
    <Piece NumberOfPoints="16" NumberOfCells="9">
      <Points>
        <DataArray type="Float64" NumberOfComponents="3" format="ascii">
          0.00000000e+00 1.12728321e-03 0.00000000e+00 
8.33205879e-04 1.12728321e-03 0.00000000e+00 
1.66641176e-03 1.12728321e-03 0.00000000e+00 
2.49961764e-03 1.12728321e-03 0.00000000e+00 
0.00000000e+00 1.28851261e-03 0.00000000e+00 
8.33205879e-04 1.28851261e-03 0.00000000e+00 
1.66641176e-03 1.28851261e-03 0.00000000e+00 
2.49961764e-03 1.28851261e-03 0.00000000e+00 
0.00000000e+00 1.44974201e-03 0.00000000e+00 
8.33205879e-04 1.44974201e-03 0.00000000e+00 
1.66641176e-03 1.44974201e-03 0.00000000e+00 
2.49961764e-03 1.44974201e-03 0.00000000e+00 
0.00000000e+00 1.61097141e-03 0.00000000e+00 
8.33205879e-04 1.61097141e-03 0.00000000e+00 
1.66641176e-03 1.61097141e-03 0.00000000e+00 
2.49961764e-03 1.61097141e-03 0.00000000e+00 

        </DataArray>
      </Points>
      <Cells>
        <DataArray type="Int32" Name="connectivity" format="ascii">
0 1 5 4
4 5 9 8
8 9 13 12
1 2 6 5
5 6 10 9
9 10 14 13
2 3 7 6
6 7 11 10
10 11 15 14

        </DataArray>
        <DataArray type="Int32" Name="offsets" format="ascii">
4 8 12 16 20 24 28 32 36 
        </DataArray>
        <DataArray type="UInt8" Name="types" format="ascii">
9 9 9 9 9 9 9 9 9 
        </DataArray>
      </Cells>
      <PointData>
        <DataArray type="Float64" Name="rho">
          1.09659778e+00 1.11236184e+00 1.12812589e+00 1.14388994e+00 1.08907198e+00 1.10685694e+00 1.12464190e+00 1.14242686e+00 1.08154617e+00 1.10135204e+00 1.12115791e+00 1.14096377e+00 1.07402037e+00 1.09584714e+00 1.11767392e+00 1.13950069e+00 
        </DataArray>
        <DataArray type="Float64" Name="rhou">
          1.04273207e+00 9.16797059e-01 7.90862046e-01 6.64927032e-01 1.04481603e+00 9.39987263e-01 8.35158493e-01 7.30329724e-01 1.04689999e+00 9.63177467e-01 8.79454941e-01 7.95732415e-01 1.04898395e+00 9.86367672e-01 9.23751389e-01 8.61135107e-01 
        </DataArray>
        <DataArray type="Float64" Name="rhov">
          1.02010631e-01 8.21657706e-02 6.23209101e-02 4.24760497e-02 1.06029081e-01 9.20890407e-02 7.81490004e-02 6.42089601e-02 1.10047531e-01 1.02012311e-01 9.39770907e-02 8.59418706e-02 1.14065981e-01 1.11935581e-01 1.09805181e-01 1.07674781e-01 
        </DataArray>
        <DataArray type="Float64" Name="E">
          3.60014751e+00 3.56456281e+00 3.52897811e+00 3.49339342e+00 3.58079547e+00 3.56500348e+00 3.54921150e+00 3.53341952e+00 3.56144342e+00 3.56544415e+00 3.56944488e+00 3.57344561e+00 3.54209138e+00 3.56588483e+00 3.58967827e+00 3.61347171e+00 
        </DataArray>
      </PointData>
    </Piece>
    <Piece NumberOfPoints="16" NumberOfCells="9">
      <Points>
        <DataArray type="Float64" NumberOfComponents="3" format="ascii">
          0.00000000e+00 1.61097141e-03 0.00000000e+00 
8.33205879e-04 1.61097141e-03 0.00000000e+00 
1.66641176e-03 1.61097141e-03 0.00000000e+00 
2.49961764e-03 1.61097141e-03 0.00000000e+00 
0.00000000e+00 1.83669257e-03 0.00000000e+00 
8.33205879e-04 1.83669257e-03 0.00000000e+00 
1.66641176e-03 1.83669257e-03 0.00000000e+00 
2.49961764e-03 1.83669257e-03 0.00000000e+00 
0.00000000e+00 2.06241361e-03 0.00000000e+00 
8.33205879e-04 2.06241361e-03 0.00000000e+00 
1.66641176e-03 2.06241361e-03 0.00000000e+00 
2.49961764e-03 2.06241361e-03 0.00000000e+00 
0.00000000e+00 2.28813477e-03 0.00000000e+00 
8.33205879e-04 2.28813477e-03 0.00000000e+00 
1.66641176e-03 2.28813477e-03 0.00000000e+00 
2.49961764e-03 2.28813477e-03 0.00000000e+00 

        </DataArray>
      </Points>
      <Cells>
        <DataArray type="Int32" Name="connectivity" format="ascii">
0 1 5 4
4 5 9 8
8 9 13 12
1 2 6 5
5 6 10 9
9 10 14 13
2 3 7 6
6 7 11 10
10 11 15 14

        </DataArray>
        <DataArray type="Int32" Name="offsets" format="ascii">
4 8 12 16 20 24 28 32 36 
        </DataArray>
        <DataArray type="UInt8" Name="types" format="ascii">
9 9 9 9 9 9 9 9 9 
        </DataArray>
      </Cells>
      <PointData>
        <DataArray type="Float64" Name="rho">
          1.07583384e+00 1.09971311e+00 1.12359237e+00 1.14747164e+00 1.06575764e+00 1.09180921e+00 1.11786079e+00 1.14391237e+00 1.05568143e+00 1.08390532e+00 1.11212921e+00 1.14035310e+00 1.04560523e+00 1.07600143e+00 1.10639763e+00 1.13679383e+00 
        </DataArray>
        <DataArray type="Float64" Name="rhou">
          1.04817223e+00 9.87727568e-01 9.27282905e-01 8.66838242e-01 1.03927983e+00 9.93505002e-01 9.47730172e-01 9.01955342e-01 1.03038743e+00 9.99282436e-01 9.68177439e-01 9.37072442e-01 1.02149503e+00 1.00505987e+00 9.88624706e-01 9.72189542e-01 
        </DataArray>
        <DataArray type="Float64" Name="rhov">
          1.12835475e-01 1.11531799e-01 1.10228122e-01 1.08924446e-01 1.09828835e-01 1.13958692e-01 1.18088550e-01 1.22218407e-01 1.06822195e-01 1.16385586e-01 1.25948977e-01 1.35512368e-01 1.03815555e-01 1.18812480e-01 1.33809404e-01 1.48806329e-01 
        </DataArray>
        <DataArray type="Float64" Name="E">
          3.54604095e+00 3.57721315e+00 3.60838535e+00 3.63955754e+00 3.51121489e+00 3.55945383e+00 3.60769278e+00 3.65593173e+00 3.47638883e+00 3.54169452e+00 3.60700021e+00 3.67230591e+00 3.44156276e+00 3.52393521e+00 3.60630765e+00 3.68868009e+00 
        </DataArray>
      </PointData>
    </Piece>
    <Piece NumberOfPoints="16" NumberOfCells="9">
      <Points>
        <DataArray type="Float64" NumberOfComponents="3" format="ascii">
          0.00000000e+00 2.28813477e-03 0.00000000e+00 
8.33205879e-04 2.28813477e-03 0.00000000e+00 
1.66641176e-03 2.28813477e-03 0.00000000e+00 
2.49961764e-03 2.28813477e-03 0.00000000e+00 
0.00000000e+00 2.60414439e-03 0.00000000e+00 
8.33205879e-04 2.60414439e-03 0.00000000e+00 
1.66641176e-03 2.60414439e-03 0.00000000e+00 
2.49961764e-03 2.60414439e-03 0.00000000e+00 
0.00000000e+00 2.92015402e-03 0.00000000e+00 
8.33205879e-04 2.92015402e-03 0.00000000e+00 
1.66641176e-03 2.92015402e-03 0.00000000e+00 
2.49961764e-03 2.92015402e-03 0.00000000e+00 
0.00000000e+00 3.23616364e-03 0.00000000e+00 
8.33205879e-04 3.23616364e-03 0.00000000e+00 
1.66641176e-03 3.23616364e-03 0.00000000e+00 
2.49961764e-03 3.23616364e-03 0.00000000e+00 

        </DataArray>
      </Points>
      <Cells>
        <DataArray type="Int32" Name="connectivity" format="ascii">
0 1 5 4
4 5 9 8
8 9 13 12
1 2 6 5
5 6 10 9
9 10 14 13
2 3 7 6
6 7 11 10
10 11 15 14

        </DataArray>
        <DataArray type="Int32" Name="offsets" format="ascii">
4 8 12 16 20 24 28 32 36 
        </DataArray>
        <DataArray type="UInt8" Name="types" format="ascii">
9 9 9 9 9 9 9 9 9 
        </DataArray>
      </Cells>
      <PointData>
        <DataArray type="Float64" Name="rho">
          1.04481238e+00 1.07771787e+00 1.11062337e+00 1.14352886e+00 1.03822971e+00 1.07148539e+00 1.10474108e+00 1.13799676e+00 1.03164704e+00 1.06525292e+00 1.09885879e+00 1.13246466e+00 1.02506437e+00 1.05902044e+00 1.09297650e+00 1.12693256e+00 
        </DataArray>
        <DataArray type="Float64" Name="rhou">
          1.02033298e+00 1.00542243e+00 9.90511868e-01 9.75601310e-01 1.01506422e+00 1.00517527e+00 9.95286315e-01 9.85397362e-01 1.00979546e+00 1.00492811e+00 1.00006076e+00 9.95193413e-01 1.00452670e+00 1.00468096e+00 1.00483521e+00 1.00498946e+00 
        </DataArray>
        <DataArray type="Float64" Name="rhov">
          1.01904079e-01 1.17303044e-01 1.32702009e-01 1.48100973e-01 9.84172557e-02 1.15543467e-01 1.32669679e-01 1.49795890e-01 9.49304323e-02 1.13783891e-01 1.32637349e-01 1.51490807e-01 9.14436090e-02 1.12024314e-01 1.32605019e-01 1.53185724e-01 
        </DataArray>
        <DataArray type="Float64" Name="E">
          3.43852365e+00 3.52881179e+00 3.61909994e+00 3.70938808e+00 3.41591770e+00 3.51115364e+00 3.60638958e+00 3.70162552e+00 3.39331175e+00 3.49349549e+00 3.59367922e+00 3.69386296e+00 3.37070580e+00 3.47583734e+00 3.58096887e+00 3.68610040e+00 
        </DataArray>
      </PointData>
    </Piece>
    <Piece NumberOfPoints="16" NumberOfCells="9">
      <Points>
        <DataArray type="Float64" NumberOfComponents="3" format="ascii">
          0.00000000e+00 3.23616364e-03 0.00000000e+00 
8.33205879e-04 3.23616364e-03 0.00000000e+00 
1.66641176e-03 3.23616364e-03 0.00000000e+00 
2.49961764e-03 3.23616364e-03 0.00000000e+00 
0.00000000e+00 3.67857702e-03 0.00000000e+00 
8.33205879e-04 3.67857702e-03 0.00000000e+00 
1.66641176e-03 3.67857702e-03 0.00000000e+00 
2.49961764e-03 3.67857702e-03 0.00000000e+00 