Variables = x, y, u, v, p

Zone, I=416, F=POINT
         -50            0            0            0     -116.551 
         -50     0.013333 -5.06703e-05  -3.5315e-08     -116.551 
         -50     0.053333  -5.0062e-05 -1.68862e-07     -116.551 
         -50         0.12 -4.89933e-05 -6.00659e-07     -116.551 
         -50     0.213332 -4.24268e-05 -1.48438e-06     -116.551 
         -50     0.333332 -3.42279e-05 -2.71027e-06     -116.551 
         -50         0.48 -2.78555e-05 -4.26258e-06     -116.551 
         -50     0.653331  -2.6187e-05 -6.11734e-06      -116.55 
         -50     0.853332 -2.84726e-05 -8.74475e-06      -116.55 
         -50         1.08 -3.11998e-05 -1.08084e-05     -116.549 
         -50      1.33333 -3.28156e-05 -1.24515e-05     -116.548 
         -50      1.61333 -3.41741e-05 -1.36189e-05     -116.546 
         -50         1.92 -3.81665e-05 -1.40662e-05     -116.544 
         -50      2.25333 -3.97766e-05 -1.43505e-05     -116.542 
         -50      2.61333 -3.99216e-05 -1.50261e-05     -116.539 
         -50            3  -4.1497e-05 -1.50481e-05     -116.535 
         -25            0           -0           -0     -111.967 
         -25     0.013333 -3.58869e-05 -1.02605e-08     -111.967 
         -25     0.053333 -3.32534e-05 -3.25467e-08     -111.967 
         -25         0.12 -3.34515e-05  -7.8448e-08     -111.967 
         -25     0.213332 -3.49033e-05 -1.29349e-07     -111.967 
         -25     0.333332 -3.86564e-05 -1.61386e-07     -111.967 
         -25         0.48 -4.30205e-05 -9.25511e-08     -111.967 
         -25     0.653331 -4.59788e-05  5.72811e-08     -111.967 
         -25     0.853332 -4.64827e-05  1.78934e-07     -111.967 
         -25         1.08 -4.43677e-05   3.2603e-07     -111.967 
         -25      1.33333 -4.04575e-05  3.71232e-07     -111.966 
         -25      1.61333 -3.67632e-05  3.65406e-07     -111.966 
         -25         1.92 -3.45827e-05  7.48838e-08     -111.965 
         -25      2.25333 -3.07315e-05 -1.72883e-07     -111.964 
         -25      2.61333 -3.01556e-05  -2.2608e-06     -111.963 
         -25            3 -3.60625e-05 -7.05032e-06     -111.961 
           0            0            0            0     -108.166 
           0     0.013333 -3.55747e-05  4.44949e-05      -108.17 
           0     0.053333 -4.99866e-05  2.22421e-05     -108.177 
           0         0.12 -4.17464e-05  2.25289e-05     -108.186 
           0     0.213332 -3.07832e-05  1.76946e-05     -108.194 
           0     0.333332 -2.26376e-05  1.42597e-05     -108.203 
           0         0.48 -1.72863e-05  1.11192e-05     -108.212 
           0     0.653331 -1.47251e-05  8.11085e-06     -108.221 
           0     0.853332 -1.47157e-05  5.17462e-06     -108.229 
           0         1.08 -1.56633e-05  2.34949e-06     -108.238 
           0      1.33333  -1.5437e-05 -3.69472e-07     -108.246 
           0      1.61333 -1.36276e-05 -2.66505e-06     -108.254 
           0         1.92 -1.02426e-05 -4.52453e-06     -108.261 
           0      2.25333 -6.33773e-06  -5.8664e-06     -108.268 
           0      2.61333 -3.49208e-06 -6.53606e-06     -108.275 
           0            3 -3.52006e-06 -6.96298e-06     -108.281 
          20            0 -9.67766e-05  0.000135711     -105.918 
          20     0.013333 -0.000108237  0.000136598     -105.918 
          20     0.053333 -0.000144276  0.000139239     -105.918 
          20         0.12 -0.000209297  0.000143604     -105.918 
          20     0.213332 -0.000307239  0.000149938     -105.918 
          20     0.333332 -0.000433021  0.000158637     -105.918 
          20         0.48 -0.000554104  0.000171292     -105.918 
          20     0.653331 -0.000615213  0.000188528     -105.917 
          20     0.853332 -0.000589139  0.000209044     -105.917 
          20         1.08 -0.000498106  0.000228935     -105.917 
          20      1.33333 -0.000384814  0.000243443     -105.917 
          20      1.61333 -0.000260502  0.000249422     -105.916 
          20         1.92  -0.00013946    0.0002454     -105.916 
          20      2.25333 -3.60894e-05  0.000231775     -105.916 
          20      2.61333  3.28082e-05  0.000209777     -105.915 
          20            3  6.47037e-05  0.000183718     -105.914 
          40            0  6.26425e-18  1.12075e-17     -103.811 
          40     0.013333    0.0130235    0.0112437     -103.807 
          40     0.053333    0.0170466    0.0142449     -103.799 
          40         0.12    0.0126425    0.0104974     -103.791 
          40     0.213332   0.00787248   0.00752217     -103.783 
          40     0.333332    0.0041891   0.00563608     -103.775 
          40         0.48   0.00169654    0.0045044     -103.767 
          40     0.653331  0.000416303   0.00391018     -103.758 
          40     0.853332  -7.0445e-05   0.00367489      -103.75 
          40         1.08 -0.000353858    0.0036289     -103.743 
          40      1.33333 -0.000669293   0.00364147     -103.735 
          40      1.61333 -0.000965383   0.00362759     -103.728 
          40         1.92  -0.00116932   0.00353658     -103.721 
          40      2.25333  -0.00124749   0.00335019     -103.714 
          40      2.61333  -0.00120566    0.0030831     -103.707 
          40            3  -0.00108591   0.00277083       -103.7 
          60            0            0            0     -101.365 
          60     0.013333   0.00142268  3.58439e-07     -101.365 
          60     0.053333   0.00482658   9.6885e-06     -101.365 
          60         0.12   0.00790549  6.85155e-05     -101.365 
          60     0.213332   0.00893018  0.000247115     -101.365 
          60     0.333332   0.00836914  0.000593198     -101.365 
          60         0.48   0.00801126    0.0011001     -101.365 
          60     0.653331   0.00867424    0.0017127     -101.365 
          60     0.853332   0.00926785   0.00233424     -101.365 
          60         1.08   0.00868247   0.00290944     -101.365 
          60      1.33333   0.00678399   0.00339609     -101.365 
          60      1.61333   0.00408092   0.00373675     -101.365 
          60         1.92   0.00140697   0.00389341     -101.365 
          60      2.25333 -0.000768464   0.00384946     -101.365 
          60      2.61333  -0.00219697   0.00364797     -101.365 
          60            3  -0.00284376   0.00333484     -101.365 
          80            0           -0           -0     -99.1607 
          80     0.013333  0.000637179  9.38258e-08     -99.1607 
          80     0.053333    0.0022703  2.79659e-06     -99.1607 
          80         0.12    0.0039959  2.03661e-05     -99.1607 
          80     0.213332   0.00505357  7.42001e-05     -99.1607 
          80     0.333332   0.00538392  0.000180566     -99.1607 
          80         0.48   0.00549711  0.000345119     -99.1606 
          80     0.653331     0.005954  0.000567815     -99.1606 
          80     0.853332   0.00668293  0.000819998     -99.1606 
          80         1.08   0.00654259   0.00102303     -99.1606 
          80      1.33333   0.00505652   0.00111825     -99.1606 
          80      1.61333    0.0032047   0.00114072     -99.1605 
          80         1.92   0.00145679   0.00111856     -99.1605 
          80      2.25333 -6.25612e-05   0.00104754     -99.1605 
          80      2.61333  -0.00117915  0.000943835     -99.1605 
          80            3  -0.00177696  0.000818182     -99.1605 
         100            0 -3.08622e-20  -4.1199e-25      -97.011 
         100     0.013333   -7.835e-06 -8.51082e-07      -97.011 
         100     0.053333  0.000244446 -1.25684e-05      -97.011 
         100         0.12   0.00100602 -5.48979e-05      -97.011 
         100     0.213332   0.00211336 -0.000139115      -97.011 
         100     0.333332   0.00304059 -0.000256279      -97.011 
         100         0.48   0.00341202 -0.000389097      -97.011 
         100     0.653331   0.00316317 -0.000528026      -97.011 
         100     0.853332   0.00251762 -0.000664156      -97.011 
         100         1.08   0.00190155 -0.000780507      -97.011 
         100      1.33333   0.00134794 -0.000877051      -97.011 
         100      1.61333  0.000783959 -0.000952907      -97.011 
         100         1.92  0.000247042 -0.000993138     -97.0109 
         100      2.25333 -0.000233696 -0.000992507     -97.0109 
         100      2.61333 -0.000585839 -0.000951492     -97.0109 
         100            3 -0.000767525 -0.000880294     -97.0109 
         150            0  2.79489e-19 -3.58086e-25     -91.7495 
         150     0.013333  0.000432592  3.43438e-07     -91.7495 
         150     0.053333   0.00149023  5.95683e-06     -91.7495 
         150         0.12   0.00243766   3.1628e-05     -91.7495 
         150     0.213332   0.00275296  9.73553e-05     -91.7495 
         150     0.333332   0.00250567  0.000214601     -91.7495 
         150         0.48   0.00213676  0.000380292     -91.7495 
         150     0.653331   0.00198438  0.000583372     -91.7495 
         150     0.853332   0.00203074  0.000805701     -91.7495 
         150         1.08   0.00194237   0.00101915     -91.7495 
         150      1.33333   0.00153993   0.00119679     -91.7495 
         150      1.61333  0.000997402    0.0013291     -91.7495 
         150         1.92  0.000483851   0.00141162     -91.7495 
         150      2.25333  4.11432e-05   0.00143505     -91.7495 
         150      2.61333 -0.000312154   0.00140095     -91.7495 
         150            3 -0.000547268    0.0013173     -91.7495 
         200            0 -3.19367e-21 -4.13625e-26      -86.559 
         200     0.013333  3.53117e-05  4.12832e-07      -86.559 
         200     0.053333   8.1292e-05  6.19938e-06      -86.559 
         200         0.12 -0.000104957  2.76915e-05      -86.559 
         200     0.213332 -0.000513733  7.19875e-05      -86.559 
         200     0.333332  -0.00090165  0.000136181      -86.559 
         200         0.48  -0.00106873  0.000211938      -86.559 
         200     0.653331 -0.000991094  0.000294212      -86.559 
         200     0.853332 -0.000751399  0.000380343      -86.559 
         200         1.08 -0.000506197  0.000462576      -86.559 
         200      1.33333 -0.000354761  0.000531382      -86.559 
         200      1.61333 -0.000240422  0.000582402      -86.559 
         200         1.92 -0.000128078  0.000612605      -86.559 
         200      2.25333 -1.71103e-05  0.000619016      -86.559 
         200      2.61333  8.19699e-05  0.000601316      -86.559 
         200            3  0.000151752  0.000562918     -86.5589 
         250            0           -0           -0     -81.3923 
         250     0.013333   -0.0002417  5.04709e-08     -81.3923 
         250     0.053333  -0.00079873  2.63564e-07     -81.3923 
         250         0.12  -0.00142911 -1.80908e-06     -81.3923 
         250     0.213332  -0.00184298 -1.31238e-05     -81.3923 
         250     0.333332  -0.00196051 -4.04145e-05     -81.3923 
         250         0.48  -0.00192457 -8.49021e-05     -81.3923 
         250     0.653331  -0.00189892 -0.000142606     -81.3923 
         250     0.853332  -0.00188437 -0.000204666     -81.3923 
         250         1.08  -0.00171671 -0.000258222     -81.3923 
         250      1.33333  -0.00135798 -0.000295847     -81.3923 
         250      1.61333 -0.000974624 -0.000321813     -81.3923 
         250         1.92 -0.000604833 -0.000338149     -81.3923 
         250      2.25333 -0.000242253 -0.000341767     -81.3922 
         250      2.61333  8.35188e-05  -0.00033297     -81.3922 
         250            3  0.000327825 -0.000312985     -81.3922 
         300            0            0            0     -76.2333 
         300     0.013333   0.00020473  2.45868e-07     -76.2333 
         300     0.053333  0.000706789  4.12918e-06     -76.2333 
         300         0.12   0.00106734   2.1333e-05     -76.2333 
         300     0.213332   0.00100009   6.4489e-05     -76.2333 
         300     0.333332  0.000597689  0.000140049     -76.2333 
         300         0.48  0.000185109   0.00024382     -76.2332 
         300     0.653331 -1.10645e-05  0.000366308     -76.2332 
         300     0.853332    1.664e-06  0.000497285     -76.2332 
         300         1.08  4.73401e-05  0.000624952     -76.2332 
         300      1.33333  9.25013e-06  0.000739379     -76.2332 
         300      1.61333  -5.1404e-05  0.000836738     -76.2333 
         300         1.92 -9.34217e-05  0.000912298     -76.2333 
         300      2.25333 -0.000123602  0.000958388     -76.2333 
         300      2.61333 -0.000144524  0.000970732     -76.2333 
         300            3 -0.000152907  0.000949255     -76.2333 
         350            0           -0           -0     -71.0785 
         350     0.013333  4.50074e-05  1.98175e-07     -71.0785 
         350     0.053333  0.000163693  3.07937e-06     -71.0785 
         350         0.12  0.000162788  1.43971e-05     -71.0785 
         350     0.213332 -6.30707e-06  3.92361e-05     -71.0785 
         350     0.333332 -0.000217059  7.73132e-05     -71.0785 
         350         0.48 -0.000318555  0.000123842     -71.0785 
         350     0.653331  -0.00026707  0.000174816     -71.0785 
         350     0.853332 -0.000105691  0.000228371     -71.0785 
         350         1.08  5.66383e-05  0.000280065     -71.0785 
         350      1.33333    0.0001007  0.000322026     -71.0785 
         350      1.61333  6.11355e-05  0.000350944     -71.0785 
         350         1.92  3.49861e-05  0.000368419     -71.0785 
         350      2.25333  1.85993e-05  0.000373385     -71.0785 
         350      2.61333   2.5524e-06   0.00036507     -71.0785 
         350            3  -1.0746e-05  0.000344084     -71.0785 
         400            0            0            0     -65.9244 
         400     0.013333  0.000155316 -6.52524e-08     -65.9244 
         400     0.053333  0.000638926 -7.66382e-07     -65.9244 
         400         0.12   0.00126051 -2.06589e-06     -65.9244 
         400     0.213332    0.0017984 -1.13086e-06     -65.9244 
         400     0.333332   0.00210062   7.0062e-06     -65.9244 
         400         0.48   0.00217489  2.63946e-05     -65.9244 
         400     0.653331   0.00213464  5.81088e-05     -65.9244 
         400     0.853332   0.00207402  0.000100076     -65.9244 
         400         1.08   0.00198247  0.000147185     -65.9244 
         400      1.33333   0.00178039  0.000192452     -65.9244 
         400      1.61333   0.00145991  0.000231483     -65.9244 
         400         1.92   0.00109236  0.000263722     -65.9244 
         400      2.25333  0.000699507  0.000287705     -65.9244 
         400      2.61333  0.000303897  0.000301702     -65.9244 
         400            3 -5.39255e-05  0.000304674     -65.9245 
         450            0           -0           -0      -60.773 
         450     0.013333 -0.000123808  3.16787e-07      -60.773 
         450     0.053333 -0.000476645   4.6031e-06      -60.773 
         450         0.12  -0.00112843  1.97511e-05      -60.773 
         450     0.213332  -0.00193862  4.93678e-05      -60.773 
         450     0.333332  -0.00263467  8.97661e-05      -60.773 
         450         0.48  -0.00303731  0.000133265      -60.773 
         450     0.653331  -0.00315876  0.000174836      -60.773 
         450     0.853332  -0.00308026  0.000214845      -60.773 
         450         1.08  -0.00283795  0.000256235      -60.773 
         450      1.33333  -0.00246423   0.00029946      -60.773 
         450      1.61333  -0.00202737  0.000340939      -60.773 
         450         1.92  -0.00155992  0.000376331      -60.773 
         450      2.25333  -0.00105692  0.000402801     -60.7729 
         450      2.61333 -0.000542214   0.00041793     -60.7729 
         450            3 -6.82132e-05  0.000420262     -60.7729 
         500            0            0            0     -55.6195 
         500     0.013333 -1.80602e-05  -1.6018e-07     -55.6195 
         500     0.053333  4.00243e-05 -2.31906e-06     -55.6195 
         500         0.12  0.000209814 -9.97717e-06     -55.6195 
         500     0.213332  0.000483626 -2.54275e-05     -55.6195 
         500     0.333332  0.000782144   -4.835e-05     -55.6195 
         500         0.48   0.00103291 -7.70615e-05     -55.6195 
         500     0.653331   0.00120567 -0.000110533     -55.6195 
         500     0.853332   0.00128036 -0.000149495     -55.6195 
         500         1.08   0.00122039 -0.000195948     -55.6195 
         500      1.33333   0.00103081  -0.00024988     -55.6195 
         500      1.61333  0.000803079 -0.000306394     -55.6195 
         500         1.92  0.000599178 -0.000358993     -55.6195 
         500      2.25333  0.000396589 -0.000403941     -55.6195 
         500      2.61333  0.000189788 -0.000437953     -55.6195 
         500            3 -1.41452e-06 -0.000458479     -55.6195 
         550            0            0            0     -50.4669 
         550     0.013333  0.000188934 -2.82359e-07     -50.4669 
         550     0.053333  0.000822711 -3.96994e-06     -50.4669 
         550         0.12   0.00176988 -1.60427e-05     -50.4669 
         550     0.213332   0.00273174 -3.64398e-05     -50.4669 
         550     0.333332   0.00336278  -5.7347e-05     -50.4669 
         550         0.48   0.00354289 -6.90396e-05     -50.4669 
         550     0.653331    0.0034081 -6.77254e-05     -50.4669 
         550     0.853332   0.00313517 -5.67429e-05     -50.4669 
         550         1.08   0.00279506 -4.17641e-05     -50.4669 
         550      1.33333   0.00240462 -2.55654e-05     -50.4669 
         550      1.61333   0.00198812 -7.94478e-06     -50.4669 
         550         1.92   0.00154494  1.12409e-05     -50.4669 
         550      2.25333   0.00106463  3.07103e-05     -50.4669 
         550      2.61333  0.000563325  4.92043e-05     -50.4669 
         550            3  8.32608e-05  6.58111e-05      -50.467 
         600            0            0            0     -45.3182 
         600     0.013333 -0.000527389  5.55585e-07     -45.3182 
         600     0.053333  -0.00198373  7.58237e-06     -45.3182 
         600         0.12    -0.004067   2.9125e-05     -45.3182 
         600     0.213332  -0.00606274  6.13009e-05     -45.3182 
         600     0.333332  -0.00728385  8.59418e-05     -45.3182 
         600         0.48  -0.00759762   8.5182e-05     -45.3182 
         600     0.653331  -0.00736749  5.60086e-05     -45.3182 
         600     0.853332  -0.00693012  1.05825e-05     -45.3182 
         600         1.08  -0.00630311 -3.31843e-05     -45.3182 
         600      1.33333  -0.00542353 -6.52877e-05     -45.3182 
         600      1.61333  -0.00442833 -8.93538e-05     -45.3182 
         600         1.92  -0.00344343 -0.000112581     -45.3182 
         600      2.25333  -0.00241794 -0.000134622     -45.3181 
         600      2.61333  -0.00134905 -0.000153337     -45.3181 
         600            3 -0.000314708 -0.000167318      -45.318 
         650            0            0            0     -40.1633 
         650     0.013333  0.000438328  -3.2872e-07     -40.1633 
         650     0.053333   0.00171902 -4.20524e-06     -40.1633 
         650         0.12    0.0034222 -1.42082e-05     -40.1633 
         650     0.213332   0.00491566 -2.31546e-05     -40.1633 
         650     0.333332   0.00572964 -1.59664e-05     -40.1633 
         650         0.48   0.00589763  1.79623e-05     -40.1633 
         650     0.653331   0.00578045  7.68803e-05     -40.1633 
         650     0.853332    0.0056267  0.000148864     -40.1633 
         650         1.08   0.00534789  0.000216228     -40.1633 
         650      1.33333   0.00472817  0.000263762     -40.1633 
         650      1.61333   0.00384378  0.000290401     -40.1633 
         650         1.92   0.00297375  0.000306953     -40.1633 
         650      2.25333   0.00211134  0.000317013     -40.1634 
         650      2.61333   0.00122371   0.00031925     -40.1634 
         650            3  0.000350849  0.000312045     -40.1635 
         700            0           -0           -0     -35.0153 
         700     0.013333 -0.000341633 -8.61997e-09     -35.0153 
         700     0.053333  -0.00115135 -5.78895e-07     -35.0153 
         700         0.12  -0.00206638  -5.5831e-06     -35.0153 
         700     0.213332  -0.00264782 -2.42006e-05     -35.0153 
         700     0.333332  -0.00271743 -6.63743e-05     -35.0153 
         700         0.48  -0.00245289 -0.000135465     -35.0153 
         700     0.653331  -0.00216098 -0.000226845     -35.0153 
         700     0.853332  -0.00201072 -0.000332114     -35.0153 
         700         1.08  -0.00194992 -0.000441314     -35.0153 
         700      1.33333  -0.00179613   -0.0005434     -35.0153 
         700      1.61333  -0.00147272 -0.000631152     -35.0153 
         700         1.92  -0.00111474 -0.000705025     -35.0153 
         700      2.25333 -0.000772573 -0.000765626     -35.0153 
         700      2.61333 -0.000436879 -0.000808987     -35.0152 
         700            3 -0.000106508 -0.000830493     -35.0152 
         750            0            0            0     -29.8635 
         750     0.013333  0.000256841 -1.30887e-07     -29.8635 
         750     0.053333   0.00102778 -1.63805e-06     -29.8635 
         750         0.12   0.00204971 -5.22796e-06     -29.8635 
         750     0.213332   0.00296609 -7.07223e-06     -29.8635 
         750     0.333332   0.00350135  5.11317e-07     -29.8635 
         750         0.48   0.00364033  2.36833e-05     -29.8635 
         750     0.653331   0.00356676  6.32144e-05     -29.8635 
         750     0.853332   0.00345447  0.000114965     -29.8635 
         750         1.08   0.00332198  0.000171377     -29.8635 
         750      1.33333   0.00306402  0.000223879     -29.8635 
         750      1.61333   0.00263849  0.000267542     -29.8635 
         750         1.92   0.00214692  0.000303753     -29.8635 
         750      2.25333   0.00163301  0.000333914     -29.8635 
         750      2.61333   0.00109642  0.000356571     -29.8636 
         750            3  0.000546713   0.00036964     -29.8636 
         800            0  6.07435e-20  3.66518e-27     -24.7144 
         800     0.013333  0.000225365 -2.89121e-08     -24.7144 
         800     0.053333   0.00088183 -2.07401e-07     -24.7144 
         800         0.12    0.0016798  7.30951e-07     -24.7144 
         800     0.213332   0.00227186  7.98441e-06     -24.7144 
         800     0.333332   0.00241904  3.00217e-05     -24.7144 
         800         0.48   0.00215036  7.34789e-05     -24.7144 
         800     0.653331   0.00169131  0.000138464     -24.7144 
         800     0.853332   0.00124923  0.000219533     -24.7144 
         800         1.08  0.000910075  0.000310775     -24.7144 
         800      1.33333  0.000694517  0.000409484     -24.7144 
         800      1.61333   0.00057824   0.00051346     -24.7144 
         800         1.92  0.000464006  0.000616874     -24.7144 
         800      2.25333  0.000320117  0.000712723     -24.7144 
         800      2.61333  0.000158033  0.000795144     -24.7144 
         800            3 -2.89556e-06  0.000859236     -24.7144 
         850            0            0            0     -19.5677 
         850     0.013333 -1.62439e-05  1.01434e-06     -19.5677 
         850     0.053333 -0.000342685  1.53333e-05     -19.5677 
         850         0.12  -0.00163545  6.99851e-05     -19.5677 
         850     0.213332  -0.00398054  0.000189168     -19.5677 
         850     0.333332  -0.00663099  0.000375252     -19.5677 
         850         0.48  -0.00861814   0.00060757     -19.5677 
         850     0.653331  -0.00950522  0.000860942     -19.5677 
         850     0.853332  -0.00943423   0.00112282     -19.5677 
         850         1.08   -0.0087157   0.00139251     -19.5677 
         850      1.33333  -0.00766029   0.00166636     -19.5677 
         850      1.61333  -0.00657546   0.00193073     -19.5677 
         850         1.92  -0.00556403    0.0021711     -19.5677 
         850      2.25333   -0.0044918   0.00237717     -19.5677 
         850      2.61333  -0.00330112   0.00253854     -19.5676 
         850            3  -0.00204206   0.00264329     -19.5676 
         900            0            0            0     -14.4199 
         900     0.013333  -0.00143358  -3.0841e-08     -14.4199 
         900     0.053333  -0.00509766 -1.90684e-06     -14.4199 
         900         0.12  -0.00946923 -1.85225e-05     -14.4199 
         900     0.213332    -0.012691 -8.23477e-05     -14.4199 
         900     0.333332   -0.0137403 -0.000233523     -14.4199 
         900         0.48   -0.0130093  -0.00049393     -14.4199 
         900     0.653331   -0.0116854 -0.000855346     -14.4199 
         900     0.853332   -0.0106854  -0.00129027     -14.4199 
         900         1.08   -0.0101388  -0.00176453     -14.4199 
         900      1.33333  -0.00956169  -0.00224233     -14.4199 
         900      1.61333  -0.00850983  -0.00269362     -14.4199 
         900         1.92  -0.00709046  -0.00310544     -14.4199 
         900      2.25333  -0.00556155  -0.00347164     -14.4198 
         900      2.61333  -0.00398073  -0.00377538     -14.4198 
         900            3   -0.0023315  -0.00399563     -14.4197 
         950            0           -0           -0     -9.26458 
         950     0.013333 -3.79997e-05 -1.39264e-06     -9.26458 
         950     0.053333  0.000374869 -2.07946e-05     -9.26458 
         950         0.12   0.00200987 -9.33743e-05     -9.26458 
         950     0.213332   0.00494753 -0.000248316     -9.26458 
         950     0.333332   0.00824739 -0.000486529     -9.26458 
         950         0.48    0.0107658 -0.000783054     -9.26458 
         950     0.653331    0.0120244  -0.00111101     -9.26457 
         950     0.853332    0.0121711  -0.00146125     -9.26457 
         950         1.08    0.0114292  -0.00184113     -9.26457 
         950      1.33333   0.00997851  -0.00225471     -9.26457 
         950      1.61333   0.00824701  -0.00268418     -9.26458 
         950         1.92   0.00674534  -0.00309479      -9.2646 
         950      2.25333   0.00536885  -0.00346274     -9.26463 
         950      2.61333   0.00393237  -0.00376961     -9.26469 
         950            3   0.00240296  -0.00399812     -9.26478 
        1000            0            0            0     -4.11652 
        1000     0.013333  0.000762544 -1.21783e-07     -4.11652 
        1000     0.053333   0.00286359 -1.06319e-06     -4.11652 
        1000         0.12   0.00553287  1.37734e-07     -4.11652 
        1000     0.213332   0.00780736  1.62928e-05     -4.11652 
        1000     0.333332   0.00904853  6.60997e-05     -4.11652 
        1000         0.48   0.00929814  0.000162163     -4.11652 
        1000     0.653331   0.00906053  0.000304322     -4.11651 
        1000     0.853332   0.00881362  0.000482866     -4.11651 
        1000         1.08   0.00869035  0.000682826     -4.11651 
        1000      1.33333   0.00844144  0.000884414     -4.11651 
        1000      1.61333   0.00773738   0.00106673     -4.11651 
        1000         1.92   0.00661566   0.00122072     -4.11653 
        1000      2.25333   0.00536905   0.00135141     -4.11656 
        1000      2.61333   0.00408862   0.00145614      -4.1166 
        1000            3   0.00273607   0.00152818     -4.11666 
