Variables = x, y, u, v, p

Zone, I=416, F=POINT
         -50            0  5.45067e-19  7.89364e-23      178.764 
         -50     0.013333  0.000470677  1.42624e-07      178.764 
         -50     0.053333  0.000440187  3.80684e-07      178.764 
         -50         0.12  0.000440938  6.95679e-07      178.763 
         -50     0.213332  0.000450583  9.82895e-07      178.763 
         -50     0.333332  0.000460097    8.723e-07      178.763 
         -50         0.48  0.000464862  1.49956e-06      178.763 
         -50     0.653331   0.00046601  2.99886e-06      178.762 
         -50     0.853332  0.000462675  4.09068e-06      178.761 
         -50         1.08  0.000456139  5.31036e-06       178.76 
         -50      1.33333  0.000448832  6.73106e-06      178.758 
         -50      1.61333  0.000442133   8.8514e-06      178.756 
         -50         1.92   0.00043555    1.074e-05      178.753 
         -50      2.25333  0.000426838  1.24763e-05      178.749 
         -50      2.61333  0.000417904  1.36738e-05      178.744 
         -50            3  0.000413605  1.50881e-05      178.737 
         -25            0           -0           -0       171.57 
         -25     0.013333  0.000347564  4.11061e-08       171.57 
         -25     0.053333  0.000335935 -6.11656e-09       171.57 
         -25         0.12  0.000351547 -2.77747e-07       171.57 
         -25     0.213332   0.00037288 -6.91469e-07       171.57 
         -25     0.333332   0.00039049 -1.01692e-06       171.57 
         -25         0.48  0.000400832  -1.3448e-06       171.57 
         -25     0.653331  0.000402054 -1.76054e-06       171.57 
         -25     0.853332  0.000390675 -2.49236e-06       171.57 
         -25         1.08  0.000371575 -3.56365e-06      171.569 
         -25      1.33333  0.000352944 -4.46327e-06      171.568 
         -25      1.61333   0.00033595 -4.74316e-06      171.567 
         -25         1.92  0.000318514 -5.01842e-06      171.566 
         -25      2.25333  0.000305299  -3.8071e-06      171.565 
         -25      2.61333  0.000298932 -1.59744e-06      171.563 
         -25            3  0.000296881 -1.44493e-06       171.56 
           0            0            0            0      165.665 
           0     0.013333  0.000846749  -0.00058913      165.672 
           0     0.053333  0.000568129 -0.000300553      165.683 
           0         0.12  0.000460107 -0.000209551      165.696 
           0     0.213332  0.000406385 -0.000162433       165.71 
           0     0.333332  0.000370919 -0.000133371      165.724 
           0         0.48    0.0003397 -0.000111246      165.738 
           0     0.653331  0.000317609  -9.3816e-05      165.752 
           0     0.853332  0.000304469  -7.9407e-05      165.766 
           0         1.08  0.000296009 -6.71738e-05       165.78 
           0      1.33333  0.000286368 -5.66494e-05      165.793 
           0      1.61333  0.000275261 -4.75895e-05      165.805 
           0         1.92  0.000266821 -3.96829e-05      165.816 
           0      2.25333  0.000260924 -3.29296e-05      165.827 
           0      2.61333   0.00025591 -2.71633e-05      165.837 
           0            3  0.000255219 -2.03481e-05      165.846 
          20            0            0            0      162.029 
          20     0.013333  0.000267425  -6.0872e-09      162.029 
          20     0.053333  0.000254182 -4.17986e-07      162.029 
          20         0.12  0.000275622 -1.95071e-06      162.029 
          20     0.213332  0.000315363 -4.98606e-06      162.029 
          20     0.333332  0.000353269 -9.35708e-06      162.029 
          20         0.48   0.00037651 -1.47535e-05      162.029 
          20     0.653331  0.000385974 -2.08701e-05      162.029 
          20     0.853332  0.000380893 -2.74111e-05      162.029 
          20         1.08  0.000358175 -3.40733e-05      162.029 
          20      1.33333  0.000327849 -3.99856e-05      162.028 
          20      1.61333  0.000295113 -4.41861e-05      162.028 
          20         1.92  0.000258581 -4.62204e-05      162.027 
          20      2.25333    0.0002312 -4.53916e-05      162.026 
          20      2.61333     0.000219 -4.19602e-05      162.025 
          20            3  0.000216411 -3.77794e-05      162.024 
          40            0            0            0      158.292 
          40     0.013333  0.000233429  2.28519e-08      158.292 
          40     0.053333   0.00017216  1.76052e-07      158.292 
          40         0.12  0.000116218  4.67018e-07      158.292 
          40     0.213332  7.83394e-05   4.0207e-07      158.292 
          40     0.333332  6.59425e-05 -7.85376e-07      158.292 
          40         0.48  6.85471e-05 -3.44892e-06      158.292 
          40     0.653331  7.55408e-05 -7.26619e-06      158.292 
          40     0.853332  8.64565e-05 -1.15799e-05      158.292 
          40         1.08  0.000105614 -1.59415e-05      158.292 
          40      1.33333  0.000135185 -1.99226e-05      158.292 
          40      1.61333  0.000172944 -2.31107e-05      158.292 
          40         1.92  0.000211016  -2.5384e-05      158.292 
          40      2.25333  0.000237243     -2.6e-05      158.291 
          40      2.61333  0.000250549 -2.56886e-05      158.291 
          40            3  0.000255703 -2.52228e-05       158.29 
          60            0           -0           -0      154.745 
          60     0.013333  0.000232226  2.47429e-08      154.745 
          60     0.053333  0.000191286  2.60289e-07      154.745 
          60         0.12  0.000153589  9.31641e-07      154.745 
          60     0.213332  0.000120255  1.93101e-06      154.745 
          60     0.333332  9.64557e-05  2.93786e-06      154.745 
          60         0.48  8.03175e-05    3.813e-06      154.745 
          60     0.653331   7.2616e-05  4.83588e-06      154.744 
          60     0.853332  8.14995e-05  6.69357e-06      154.744 
          60         1.08  0.000108808   9.6501e-06      154.744 
          60      1.33333   0.00013973  1.29926e-05      154.744 
          60      1.61333  0.000169788  1.59341e-05      154.744 
          60         1.92  0.000203745  1.81601e-05      154.744 
          60      2.25333   0.00023479  1.97721e-05      154.744 
          60      2.61333  0.000259075  2.03605e-05      154.744 
          60            3  0.000272631  1.91513e-05      154.743 
          80            0           -0           -0      151.306 
          80     0.013333  0.000241201 -1.35627e-08      151.306 
          80     0.053333  0.000246692 -2.37563e-07      151.306 
          80         0.12  0.000278919 -9.84072e-07      151.306 
          80     0.213332  0.000314785 -2.23093e-06      151.306 
          80     0.333332  0.000337037 -3.48037e-06      151.306 
          80         0.48  0.000341688 -4.21318e-06      151.306 
          80     0.653331  0.000335299 -4.32692e-06      151.306 
          80     0.853332  0.000321953 -4.00421e-06      151.306 
          80         1.08  0.000303823 -3.28896e-06      151.306 
          80      1.33333  0.000281709 -2.25156e-06      151.306 
          80      1.61333  0.000256479 -1.03506e-06      151.306 
          80         1.92  0.000231753  3.29136e-07      151.306 
          80      2.25333  0.000212611  1.67889e-06      151.306 
          80      2.61333  0.000197596  3.08512e-06      151.305 
          80            3  0.000185902  4.93355e-06      151.305 
         100            0            0            0      147.936 
         100     0.013333  0.000221981 -2.10328e-08      147.936 
         100     0.053333   0.00018979 -3.49561e-07      147.936 
         100         0.12  0.000182345 -1.60571e-06      147.936 
         100     0.213332  0.000197044 -4.32834e-06      147.936 
         100     0.333332  0.000222441 -8.62831e-06      147.936 
         100         0.48  0.000243556 -1.43173e-05      147.936 
         100     0.653331  0.000251353 -2.12411e-05      147.936 
         100     0.853332  0.000243152 -2.92179e-05      147.936 
         100         1.08  0.000228008 -3.75498e-05      147.936 
         100      1.33333  0.000217591 -4.51689e-05      147.936 
         100      1.61333  0.000210396 -5.13103e-05      147.936 
         100         1.92  0.000202525 -5.53079e-05      147.936 
         100      2.25333  0.000198537 -5.67172e-05      147.936 
         100      2.61333  0.000200347 -5.55614e-05      147.936 
         100            3  0.000207936 -5.17813e-05      147.936 
         150            0           -0           -0      139.673 
         150     0.013333  0.000229991  1.39784e-08      139.673 
         150     0.053333  0.000221017  2.04685e-07      139.673 
         150         0.12  0.000218756  9.45981e-07      139.673 
         150     0.213332  0.000210333  2.57834e-06      139.673 
         150     0.333332  0.000199645  5.13633e-06      139.673 
         150         0.48  0.000193327   8.3939e-06      139.673 
         150     0.653331  0.000194666  1.21164e-05      139.673 
         150     0.853332  0.000201138  1.60983e-05      139.673 
         150         1.08  0.000207075  2.00176e-05      139.673 
         150      1.33333  0.000208936  2.35192e-05      139.673 
         150      1.61333  0.000208105  2.63312e-05      139.673 
         150         1.92  0.000206635  2.81561e-05      139.673 
         150      2.25333   0.00020172  2.87345e-05      139.673 
         150      2.61333  0.000195833  2.82431e-05      139.673 
         150            3  0.000192893  2.68188e-05      139.673 
         200            0  5.12415e-19  3.28613e-25      131.512 
         200     0.013333  0.000212728   3.3473e-08      131.512 
         200     0.053333  0.000158863  4.67833e-07      131.512 
         200         0.12   9.4206e-05  1.90407e-06      131.512 
         200     0.213332  2.83859e-05  4.44506e-06      131.512 
         200     0.333332 -1.76412e-05  7.48828e-06      131.512 
         200         0.48 -3.80118e-05  1.03339e-05      131.512 
         200     0.653331 -3.87422e-05  1.28195e-05      131.512 
         200     0.853332 -2.35327e-05  1.53502e-05      131.512 
         200         1.08  7.90807e-06  1.82861e-05      131.512 
         200      1.33333  4.79664e-05  2.13901e-05      131.512 
         200      1.61333  8.93237e-05  2.40262e-05      131.512 
         200         1.92  0.000134344  2.58382e-05      131.512 
         200      2.25333  0.000176182  2.67808e-05      131.512 
         200      2.61333   0.00021308  2.67272e-05      131.512 
         200            3  0.000243025  2.55677e-05      131.512 
         250            0           -0           -0      123.385 
         250     0.013333  0.000227294  2.31588e-08      123.385 
         250     0.053333  0.000213997  3.44202e-07      123.385 
         250         0.12  0.000200086  1.53618e-06      123.385 
         250     0.213332  0.000173849  4.04682e-06      123.385 
         250     0.333332  0.000144179  7.86326e-06      123.385 
         250         0.48  0.000122034  1.26434e-05      123.385 
         250     0.653331  0.000112985  1.81165e-05      123.385 
         250     0.853332  0.000117805  2.42342e-05      123.385 
         250         1.08  0.000133585  3.08611e-05      123.385 
         250      1.33333  0.000151032  3.74087e-05      123.385 
         250      1.61333  0.000164832   4.3122e-05      123.385 
         250         1.92  0.000179261  4.75424e-05      123.385 
         250      2.25333  0.000192013  5.02185e-05      123.385 
         250      2.61333  0.000203336  5.10285e-05      123.385 
         250            3  0.000213659  4.99794e-05      123.385 
         300            0           -0           -0      115.269 
         300     0.013333  0.000259963  6.32378e-09      115.269 
         300     0.053333  0.000331818   1.7099e-07      115.269 
         300         0.12  0.000414808    1.265e-06      115.269 
         300     0.213332  0.000447036    4.855e-06      115.269 
         300     0.333332  0.000418182  1.23408e-05      115.269 
         300         0.48  0.000363524  2.37904e-05      115.269 
         300     0.653331  0.000320759  3.80165e-05      115.269 
         300     0.853332  0.000297006  5.34004e-05      115.269 
         300         1.08  0.000277977  6.85007e-05      115.269 
         300      1.33333  0.000255205  8.24224e-05      115.269 
         300      1.61333  0.000232295  9.47137e-05      115.269 
         300         1.92  0.000211135   0.00010458      115.269 
         300      2.25333  0.000191561  0.000110942      115.269 
         300      2.61333   0.00017424  0.000113408      115.269 
         300            3  0.000160224   0.00011195      115.269 
         350            0           -0           -0      107.157 
         350     0.013333  0.000258843 -5.87945e-08      107.157 
         350     0.053333  0.000346671 -7.96382e-07      107.157 
         350         0.12  0.000494043  -3.0384e-06      107.157 
         350     0.213332  0.000636765 -6.43914e-06      107.157 
         350     0.333332  0.000723694 -9.46867e-06      107.157 
         350         0.48  0.000750773 -1.08846e-05      107.157 
         350     0.653331  0.000745106 -1.08156e-05      107.157 
         350     0.853332  0.000718607 -1.06382e-05      107.157 
         350         1.08  0.000659562 -1.19864e-05      107.157 
         350      1.33333  0.000571357 -1.52172e-05      107.157 
         350      1.61333  0.000480332  -1.8975e-05      107.157 
         350         1.92  0.000388906 -2.22647e-05      107.157 
         350      2.25333  0.000298375 -2.50456e-05      107.157 
         350      2.61333  0.000213866 -2.69568e-05      107.157 
         350            3  0.000142147 -2.78412e-05      107.157 
         400            0           -0           -0      99.0451 
         400     0.013333  0.000211122 -4.04063e-08      99.0451 
         400     0.053333  0.000173915 -6.14288e-07      99.0451 
         400         0.12  0.000173019 -2.81468e-06      99.0451 
         400     0.213332  0.000209956 -7.60736e-06      99.0451 
         400     0.333332  0.000261645 -1.50822e-05      99.0451 
         400         0.48  0.000299013 -2.45576e-05      99.0451 
         400     0.653331  0.000310566 -3.53618e-05      99.0451 
         400     0.853332  0.000298262 -4.72005e-05      99.0451 
         400         1.08  0.000271871 -5.96938e-05      99.0451 
         400      1.33333    0.0002475 -7.19281e-05      99.0451 
         400      1.61333  0.000233861 -8.27951e-05      99.0451 
         400         1.92  0.000222916 -9.16433e-05      99.0451 
         400      2.25333  0.000212844 -9.77293e-05      99.0451 
         400      2.61333  0.000203305 -0.000100728      99.0451 
         400            3  0.000193734 -0.000100491      99.0451 
         450            0  2.47019e-19 -8.43732e-27      90.9327 
         450     0.013333  0.000190088 -2.50438e-08      90.9327 
         450     0.053333   9.6643e-05 -4.34027e-07      90.9327 
         450         0.12   2.8556e-05 -2.32966e-06      90.9327 
         450     0.213332  2.11925e-05 -7.30812e-06      90.9327 
         450     0.333332    6.812e-05 -1.63904e-05      90.9327 
         450         0.48  0.000126293 -2.92619e-05      90.9327 
         450     0.653331  0.000160271 -4.47512e-05      90.9327 
         450     0.853332  0.000164117 -6.15662e-05      90.9327 
         450         1.08  0.000158261 -7.82737e-05      90.9327 
         450      1.33333  0.000165456 -9.34764e-05      90.9327 
         450      1.61333  0.000182683  -0.00010662      90.9327 
         450         1.92  0.000196601 -0.000117431      90.9327 
         450      2.25333  0.000207923 -0.000125223      90.9327 
         450      2.61333  0.000218407 -0.000129306      90.9327 
         450            3  0.000228179 -0.000129251      90.9327 
         500            0            0            0      82.8192 
         500     0.013333  0.000219291  3.33189e-08      82.8192 
         500     0.053333  0.000183305   4.7447e-07      82.8192 
         500         0.12  0.000139154   1.9764e-06      82.8192 
         500     0.213332   8.7822e-05  4.79168e-06      82.8192 
         500     0.333332  4.66288e-05  8.54497e-06      82.8192 
         500         0.48  2.34231e-05  1.27312e-05      82.8192 
         500     0.653331  1.49844e-05  1.72735e-05      82.8192 
         500     0.853332  1.94825e-05  2.26189e-05      82.8192 
         500         1.08  4.34348e-05  2.94126e-05      82.8192 
         500      1.33333  8.39859e-05  3.75783e-05      82.8192 
         500      1.61333  0.000120863  4.58981e-05      82.8192 
         500         1.92  0.000148919  5.32384e-05      82.8192 
         500      2.25333  0.000174833  5.91324e-05      82.8192 
         500      2.61333  0.000199605  6.33185e-05      82.8192 
         500            3   0.00022041  6.55187e-05      82.8192 
         550            0           -0           -0      74.7042 
         550     0.013333  0.000217888  1.03321e-08      74.7042 
         550     0.053333  0.000183587  1.44255e-07      74.7042 
         550         0.12  0.000153806  5.73242e-07      74.7042 
         550     0.213332     0.000129   1.2671e-06      74.7042 
         550     0.333332  0.000117181  1.92355e-06      74.7042 
         550         0.48  0.000118724  2.23547e-06      74.7042 
         550     0.653331   0.00012795  2.18218e-06      74.7042 
         550     0.853332  0.000139846  2.02636e-06      74.7042 
         550         1.08  0.000154202  2.05273e-06      74.7042 
         550      1.33333  0.000169206  2.25273e-06      74.7042 
         550      1.61333  0.000179822  2.30697e-06      74.7042 
         550         1.92  0.000187744  2.12436e-06      74.7042 
         550      2.25333  0.000196031  1.74171e-06      74.7042 
         550      2.61333  0.000204991  1.26621e-06      74.7042 
         550            3  0.000213135  7.55127e-07      74.7042 
         600            0           -0           -0      66.5879 
         600     0.013333  0.000252081 -1.83053e-08      66.5879 
         600     0.053333   0.00031365 -2.36133e-07      66.5879 
         600         0.12  0.000414243 -8.04779e-07      66.5879 
         600     0.213332  0.000505168 -1.29862e-06      66.5879 
         600     0.333332  0.000552919 -7.46502e-07      66.5879 
         600         0.48  0.000555646  1.64375e-06      66.5879 
         600     0.653331   0.00053591  5.89433e-06      66.5879 
         600     0.853332    0.0005119  1.13621e-05      66.5879 
         600         1.08  0.000485057  1.71719e-05      66.5879 
         600      1.33333  0.000449934  2.27126e-05      66.5879 
         600      1.61333  0.000407527  2.77863e-05      66.5879 
         600         1.92  0.000362393  3.24911e-05      66.5879 
         600      2.25333  0.000314921   3.6494e-05      66.5879 
         600      2.61333  0.000266394  3.96221e-05      66.5879 
         600            3  0.000219959  4.16837e-05      66.5879 
         650            0            0            0      58.4705 
         650     0.013333  0.000188075  1.98322e-08      58.4705 
         650     0.053333  7.39719e-05  2.45558e-07      58.4705 
         650         0.12 -5.54233e-05  7.60261e-07      58.4705 
         650     0.213332 -0.000159817  9.23955e-07      58.4705 
         650     0.333332 -0.000207181 -4.60976e-07      58.4705 
         650         0.48  -0.00020401 -4.21757e-06      58.4705 
         650     0.653331 -0.000179948 -1.01943e-05      58.4705 
         650     0.853332  -0.00015636 -1.74538e-05      58.4705 
         650         1.08 -0.000129956 -2.47399e-05      58.4705 
         650      1.33333 -8.76508e-05 -3.10157e-05      58.4705 
         650      1.61333 -3.28608e-05 -3.61692e-05      58.4705 
         650         1.92  2.13516e-05 -4.06435e-05      58.4705 
         650      2.25333  7.53744e-05 -4.42486e-05      58.4705 
         650      2.61333  0.000130737 -4.68296e-05      58.4705 
         650            3  0.000185623 -4.81855e-05      58.4705 
         700            0            0            0      50.3531 
         700     0.013333  0.000248139 -3.52029e-08      50.3531 
         700     0.053333   0.00030601 -5.00331e-07      50.3531 
         700         0.12  0.000420654 -2.07557e-06      50.3531 
         700     0.213332  0.000552858 -4.96396e-06      50.3531 
         700     0.333332  0.000659406 -8.53559e-06      50.3531 
         700         0.48  0.000716872 -1.17908e-05      50.3531 
         700     0.653331  0.000732837 -1.41018e-05      50.3531 
         700     0.853332  0.000725417 -1.55133e-05      50.3531 
         700         1.08  0.000701953 -1.66484e-05      50.3531 
         700      1.33333  0.000657574 -1.82544e-05      50.3531 
         700      1.61333  0.000593271 -2.05917e-05      50.3531 
         700         1.92  0.000521368 -2.29415e-05      50.3531 
         700      2.25333  0.000444731 -2.51318e-05      50.3531 
         700      2.61333  0.000363888 -2.68374e-05      50.3531 
         700            3  0.000282593 -2.77938e-05      50.3531 
         750            0           -0           -0      42.2346 
         750     0.013333  0.000258318  1.43745e-08      42.2346 
         750     0.053333  0.000327113  2.48191e-07      42.2346 
         750         0.12  0.000416133  1.34363e-06      42.2346 
         750     0.213332  0.000471623  4.33671e-06      42.2346 
         750     0.333332  0.000475081  1.01793e-05      42.2346 
         750         0.48  0.000442998  1.91886e-05      42.2346 
         750     0.653331  0.000406156  3.10078e-05      42.2346 
         750     0.853332  0.000384193   4.4987e-05      42.2346 
         750         1.08  0.000378522   6.0415e-05      42.2346 
         750      1.33333  0.000376314  7.64039e-05      42.2346 
         750      1.61333  0.000363636  9.20031e-05      42.2346 
         750         1.92  0.000339557  0.000106446      42.2346 
         750      2.25333  0.000310053  0.000119085      42.2346 
         750      2.61333  0.000278087  0.000129183      42.2346 
         750            3  0.000244427  0.000136045      42.2346 
         800            0            0            0      34.1146 
         800     0.013333  0.000207075  2.62963e-08      34.1146 
         800     0.053333  0.000138582  3.73301e-07      34.1146 
         800         0.12  5.41033e-05  1.53987e-06      34.1146 
         800     0.213332 -3.27914e-05  3.63679e-06      34.1146 
         800     0.333332 -9.46634e-05  6.12112e-06      34.1146 
         800         0.48 -0.000118983  8.21878e-06      34.1146 
         800     0.653331 -0.000113772  9.56616e-06      34.1146 
         800     0.853332 -9.40888e-05  1.03968e-05      34.1146 
         800         1.08 -6.63023e-05  1.12592e-05      34.1146 
         800      1.33333 -3.01445e-05  1.25503e-05      34.1146 
         800      1.61333  1.08603e-05  1.42215e-05      34.1146 
         800         1.92  5.02579e-05  1.58704e-05      34.1146 
         800      2.25333  8.92827e-05  1.72423e-05      34.1146 
         800      2.61333  0.000129556   1.8245e-05      34.1146 
         800            3  0.000170212   1.8846e-05      34.1146 
         850            0           -0           -0      25.9936 
         850     0.013333  0.000202603  -4.5524e-08      25.9936 
         850     0.053333   0.00014569 -7.07435e-07      25.9936 
         850         0.12  0.000134758  -3.3636e-06      25.9936 
         850     0.213332  0.000192718 -9.55194e-06      25.9936 
         850     0.333332  0.000300389 -1.99965e-05      25.9936 
         850         0.48  0.000408545 -3.41888e-05      25.9936 
         850     0.653331   0.00048005 -5.09806e-05      25.9936 
         850     0.853332  0.000505209 -6.94553e-05      25.9936 
         850         1.08   0.00049206 -8.91475e-05      25.9936 
         850      1.33333   0.00045746 -0.000109464      25.9936 
         850      1.61333  0.000421112 -0.000129375      25.9936 
         850         1.92   0.00038953 -0.000147879      25.9936 
         850      2.25333  0.000356588 -0.000164045      25.9936 
         850      2.61333   0.00031999 -0.000177167      25.9936 
         850            3  0.000281256 -0.000186421      25.9936 
         900            0           -0           -0      17.8719 
         900     0.013333  0.000248599 -4.37654e-08      17.8719 
         900     0.053333  0.000312442 -6.41693e-07      17.8719 
         900         0.12  0.000450719 -2.80086e-06      17.8719 
         900     0.213332  0.000631265 -7.19035e-06      17.8719 
         900     0.333332  0.000802376  -1.3507e-05      17.8719 
         900         0.48  0.000919742 -2.06434e-05      17.8719 
         900     0.653331  0.000974389 -2.74513e-05      17.8719 
         900     0.853332  0.000983924 -3.33901e-05      17.8719 
         900         1.08   0.00096594 -3.86847e-05      17.8719 
         900      1.33333  0.000921956 -4.40383e-05      17.8719 
         900      1.61333  0.000848749 -5.00122e-05      17.8719 
         900         1.92  0.000756088 -5.62167e-05      17.8719 
         900      2.25333  0.000653343 -6.20855e-05      17.8719 
         900      2.61333  0.000543493 -6.70195e-05      17.8719 
         900            3  0.000427748 -7.06127e-05      17.8719 
         950            0           -0           -0      9.74934 
         950     0.013333   0.00030374  -7.9235e-08      9.74934 
         950     0.053333  0.000524239 -1.12805e-06      9.74934 
         950         0.12  0.000884163  -4.6642e-06      9.74934 
         950     0.213332   0.00127881 -1.09661e-05      9.74934 
         950     0.333332    0.0015795 -1.80368e-05      9.74934 
         950         0.48   0.00171342 -2.27691e-05      9.74934 
         950     0.653331    0.0017039 -2.32007e-05      9.74934 
         950     0.853332   0.00161962 -1.95485e-05      9.74934 
         950         1.08   0.00150781 -1.34387e-05      9.74934 
         950      1.33333   0.00138064  -6.3621e-06      9.74934 
         950      1.61333   0.00123987  1.06816e-06      9.74934 
         950         1.92   0.00108692   8.8427e-06      9.74934 
         950      2.25333  0.000918206  1.66773e-05      9.74933 
         950      2.61333  0.000734894  2.42829e-05      9.74933 
         950            3  0.000542552  3.14092e-05      9.74932 
        1000            0  3.14774e-19  6.40263e-24      1.62559 
        1000     0.013333  0.000374592  1.18794e-07      1.62559 
        1000     0.053333  0.000727761  1.77764e-06      1.62559 
        1000         0.12   0.00110989   9.2461e-06      1.62559 
        1000     0.213332   0.00130382  2.92046e-05      1.62559 
        1000     0.333332   0.00123225  6.74356e-05      1.62559 
        1000         0.48  0.000986633  0.000125203      1.62559 
        1000     0.653331  0.000731321  0.000199218      1.62559 
        1000     0.853332  0.000579441  0.000284521      1.62559 
        1000         1.08  0.000539587  0.000376348      1.62559 
        1000      1.33333   0.00053574  0.000469993      1.62559 
        1000      1.61333  0.000486752  0.000561229      1.62559 
        1000         1.92   0.00039359  0.000647361      1.62559 
        1000      2.25333  0.000291166  0.000726413      1.62558 
        1000      2.61333  0.000192002  0.000795274      1.62557 
        1000            3  9.21647e-05  0.000850238      1.62556 
