Variables = x, y, u, v, p

Zone, I=416, F=POINT
         -50            0 -2.93208e-19 -2.49393e-23     -56.1024 
         -50     0.013333 -0.000268462  -7.2732e-08     -56.1024 
         -50     0.053333 -0.000244345 -3.78548e-07     -56.1024 
         -50         0.12  -0.00023393 -1.19097e-06     -56.1024 
         -50     0.213332 -0.000221944 -2.68855e-06     -56.1024 
         -50     0.333332 -0.000208963 -4.75501e-06     -56.1023 
         -50         0.48  -0.00019926 -7.64998e-06     -56.1022 
         -50     0.653331  -0.00019681 -1.11072e-05      -56.102 
         -50     0.853332  -0.00019925 -1.43461e-05     -56.1018 
         -50         1.08 -0.000200989 -1.75915e-05     -56.1014 
         -50      1.33333 -0.000203903 -2.05609e-05     -56.1008 
         -50      1.61333 -0.000209477 -2.28188e-05     -56.1001 
         -50         1.92 -0.000216237 -2.41949e-05     -56.0991 
         -50      2.25333 -0.000220428  -2.6493e-05     -56.0978 
         -50      2.61333 -0.000228178 -3.13883e-05     -56.0962 
         -50            3 -0.000239726  -3.6734e-05     -56.0942 
         -25            0           -0           -0     -53.8486 
         -25     0.013333 -0.000196092 -1.20448e-08     -53.8486 
         -25     0.053333 -0.000182502   8.1203e-08     -53.8486 
         -25         0.12 -0.000189067  4.98051e-07     -53.8486 
         -25     0.213332 -0.000201141  1.28389e-06     -53.8485 
         -25     0.333332 -0.000209656  2.26898e-06     -53.8485 
         -25         0.48 -0.000211281  3.35886e-06     -53.8485 
         -25     0.653331 -0.000206105  4.58134e-06     -53.8484 
         -25     0.853332 -0.000195245   5.9319e-06     -53.8483 
         -25         1.08 -0.000183076  7.29732e-06     -53.8482 
         -25      1.33333 -0.000173792    8.343e-06     -53.8479 
         -25      1.61333 -0.000168234  9.09135e-06     -53.8477 
         -25         1.92 -0.000162614  8.31202e-06     -53.8473 
         -25      2.25333 -0.000151565  9.56051e-06     -53.8468 
         -25      2.61333 -0.000139484  9.85514e-06     -53.8462 
         -25            3 -0.000138161  1.93915e-06     -53.8454 
           0            0            0            0     -51.9973 
           0     0.013333 -0.000569014   0.00033863     -51.9995 
           0     0.053333 -0.000345168  0.000181931     -52.0031 
           0         0.12 -0.000264863  0.000121986     -52.0071 
           0     0.213332 -0.000210297  9.45398e-05     -52.0114 
           0     0.333332 -0.000169137  7.49382e-05     -52.0159 
           0         0.48 -0.000142541  5.81989e-05     -52.0203 
           0     0.653331 -0.000131722   4.3368e-05     -52.0248 
           0     0.853332 -0.000131434  2.99506e-05     -52.0291 
           0         1.08 -0.000133711  1.80277e-05     -52.0333 
           0      1.33333 -0.000134845  7.87254e-06     -52.0373 
           0      1.61333 -0.000137086  -2.0771e-07     -52.0412 
           0         1.92 -0.000140018  -5.9711e-06     -52.0448 
           0      2.25333 -0.000137054 -9.24632e-06     -52.0481 
           0      2.61333 -0.000127807   -9.826e-06     -52.0512 
           0            3 -0.000121152 -1.06379e-05      -52.054 
          20            0            0            0     -50.8575 
          20     0.013333 -0.000170658 -2.60204e-08     -50.8575 
          20     0.053333 -0.000199265 -2.64242e-07     -50.8575 
          20         0.12 -0.000238919 -1.21099e-06     -50.8575 
          20     0.213332 -0.000261844 -3.51779e-06     -50.8575 
          20     0.333332 -0.000264468  -7.6736e-06     -50.8575 
          20         0.48 -0.000257403 -1.38407e-05     -50.8575 
          20     0.653331 -0.000250849 -2.18028e-05     -50.8575 
          20     0.853332 -0.000245865 -3.09223e-05     -50.8574 
          20         1.08 -0.000235865 -3.99968e-05     -50.8573 
          20      1.33333 -0.000215766 -4.77154e-05     -50.8572 
          20      1.61333 -0.000187657 -5.31652e-05     -50.8571 
          20         1.92  -0.00015977 -5.56758e-05     -50.8569 
          20      2.25333 -0.000130729 -5.47578e-05     -50.8566 
          20      2.61333 -0.000108573 -5.24275e-05     -50.8563 
          20            3 -0.000103078   -5.069e-05     -50.8559 
          40            0            0            0      -49.686 
          40     0.013333 -0.000150397  4.72273e-08      -49.686 
          40     0.053333 -0.000170954  7.31266e-07      -49.686 
          40         0.12 -0.000234193  3.09796e-06      -49.686 
          40     0.213332 -0.000311393  7.46693e-06      -49.686 
          40     0.333332 -0.000367685  1.29594e-05     -49.6859 
          40         0.48  -0.00039037  1.84909e-05     -49.6859 
          40     0.653331   -0.0003857  2.37997e-05     -49.6859 
          40     0.853332 -0.000359922  2.91755e-05     -49.6859 
          40         1.08 -0.000319997  3.43603e-05     -49.6859 
          40      1.33333 -0.000274273  3.86749e-05     -49.6858 
          40      1.61333 -0.000224113  4.14356e-05     -49.6858 
          40         1.92 -0.000167672  4.21613e-05     -49.6857 
          40      2.25333  -0.00011951  4.11522e-05     -49.6856 
          40      2.61333 -8.60531e-05  3.83869e-05     -49.6855 
          40            3 -6.93337e-05  3.43384e-05     -49.6853 
          60            0           -0           -0     -48.5735 
          60     0.013333 -0.000128848  6.04651e-08     -48.5735 
          60     0.053333 -0.000111413   9.2336e-07     -48.5735 
          60         0.12  -0.00013683  4.05511e-06     -48.5735 
          60     0.213332 -0.000196038  1.03772e-05     -48.5735 
          60     0.333332 -0.000256562  1.95381e-05     -48.5735 
          60         0.48 -0.000292605  3.06931e-05     -48.5735 
          60     0.653331 -0.000294012  4.35526e-05     -48.5735 
          60     0.853332 -0.000261013  5.80147e-05     -48.5735 
          60         1.08 -0.000216477  7.26652e-05     -48.5735 
          60      1.33333 -0.000185514  8.53498e-05     -48.5734 
          60      1.61333 -0.000163081  9.47078e-05     -48.5734 
          60         1.92 -0.000138049  9.97119e-05     -48.5733 
          60      2.25333 -0.000121906  9.98163e-05     -48.5733 
          60      2.61333 -0.000115389    9.554e-05     -48.5732 
          60            3 -0.000112375   8.9421e-05     -48.5731 
          80            0           -0           -0     -47.4953 
          80     0.013333 -0.000122041   1.9154e-08     -47.4953 
          80     0.053333 -8.53876e-05  3.10957e-07     -47.4953 
          80         0.12 -6.39724e-05  1.42584e-06     -47.4953 
          80     0.213332 -5.89219e-05  3.82753e-06     -47.4953 
          80     0.333332 -6.24684e-05  7.60298e-06     -47.4953 
          80         0.48 -6.45982e-05  1.26244e-05     -47.4953 
          80     0.653331 -5.96799e-05  1.87956e-05     -47.4953 
          80     0.853332 -4.94439e-05  2.58189e-05     -47.4953 
          80         1.08 -4.68343e-05  3.27444e-05     -47.4953 
          80      1.33333 -5.96381e-05   3.8454e-05     -47.4953 
          80      1.61333 -7.90462e-05  4.25879e-05     -47.4953 
          80         1.92 -9.93082e-05  4.46469e-05     -47.4952 
          80      2.25333  -0.00011766  4.46316e-05     -47.4952 
          80      2.61333 -0.000133697  4.25034e-05     -47.4951 
          80            3 -0.000147891  3.87304e-05     -47.4951 
         100            0            0            0     -46.4388 
         100     0.013333 -0.000136042  2.32858e-09     -46.4388 
         100     0.053333 -0.000136113   2.9088e-08     -46.4388 
         100         0.12 -0.000145818  1.42352e-08     -46.4388 
         100     0.213332 -0.000148973 -3.31658e-07     -46.4388 
         100     0.333332 -0.000141926 -1.32591e-06     -46.4388 
         100         0.48 -0.000130747 -2.97625e-06     -46.4388 
         100     0.653331 -0.000121283 -4.98034e-06     -46.4388 
         100     0.853332 -0.000114029 -7.01188e-06     -46.4388 
         100         1.08 -0.000109224 -8.99042e-06     -46.4388 
         100      1.33333 -0.000107453 -1.09106e-05     -46.4388 
         100      1.61333 -0.000107258 -1.26442e-05     -46.4388 
         100         1.92 -0.000110347 -1.39246e-05     -46.4387 
         100      2.25333  -0.00011465 -1.46725e-05     -46.4387 
         100      2.61333 -0.000121081  -1.5023e-05     -46.4387 
         100            3 -0.000129863 -1.48357e-05     -46.4386 
         150            0           -0           -0     -43.8477 
         150     0.013333 -0.000133503 -6.25316e-08     -43.8477 
         150     0.053333 -0.000118666 -9.22553e-07     -43.8477 
         150         0.12 -7.82033e-05 -4.05583e-06     -43.8477 
         150     0.213332 -9.68718e-06  -1.0411e-05     -43.8477 
         150     0.333332   5.4164e-05 -1.95509e-05     -43.8477 
         150         0.48   8.7506e-05 -3.03478e-05     -43.8477 
         150     0.653331  8.65614e-05 -4.21701e-05     -43.8477 
         150     0.853332  5.81518e-05 -5.48503e-05     -43.8477 
         150         1.08  1.82762e-05 -6.75776e-05     -43.8477 
         150      1.33333   -1.576e-05 -7.89111e-05     -43.8477 
         150      1.61333 -4.63557e-05 -8.77578e-05     -43.8477 
         150         1.92 -8.17405e-05 -9.32152e-05     -43.8477 
         150      2.25333 -0.000113265  -9.4844e-05     -43.8477 
         150      2.61333 -0.000138913 -9.27034e-05     -43.8477 
         150            3 -0.000157383 -8.72957e-05     -43.8477 
         200            0 -2.73712e-19 -1.06205e-25     -41.2883 
         200     0.013333 -0.000118368 -3.61251e-08     -41.2883 
         200     0.053333 -7.39172e-05 -5.13271e-07     -41.2883 
         200         0.12 -1.43407e-05  -2.1324e-06     -41.2883 
         200     0.213332  5.01262e-05 -5.11614e-06     -41.2883 
         200     0.333332  9.65283e-05 -8.90347e-06     -41.2883 
         200         0.48  0.000115548 -1.27105e-05     -41.2883 
         200     0.653331   0.00011336 -1.62217e-05     -41.2883 
         200     0.853332  9.62347e-05 -1.96928e-05     -41.2883 
         200         1.08  6.54133e-05 -2.34368e-05     -41.2883 
         200      1.33333   2.7075e-05 -2.72695e-05     -41.2883 
         200      1.61333 -1.23195e-05 -3.05089e-05     -41.2883 
         200         1.92 -5.55325e-05 -3.28218e-05     -41.2883 
         200      2.25333 -9.48036e-05 -3.38361e-05     -41.2883 
         200      2.61333  -0.00012569 -3.35209e-05     -41.2883 
         200            3 -0.000147716 -3.21641e-05     -41.2883 
         250            0           -0           -0     -38.7394 
         250     0.013333 -0.000139745 -6.26555e-08     -38.7394 
         250     0.053333 -0.000142595 -9.46322e-07     -38.7394 
         250         0.12 -0.000117276 -4.29053e-06     -38.7394 
         250     0.213332 -4.88507e-05 -1.14365e-05     -38.7394 
         250     0.333332  3.05035e-05 -2.23339e-05     -38.7394 
         250         0.48  8.37196e-05 -3.58661e-05     -38.7394 
         250     0.653331  9.75995e-05 -5.10734e-05     -38.7394 
         250     0.853332  7.69948e-05  -6.7538e-05     -38.7394 
         250         1.08  3.79958e-05 -8.44904e-05     -38.7394 
         250      1.33333  2.26631e-06  -0.00010045     -38.7394 
         250      1.61333  -2.6058e-05 -0.000113996     -38.7394 
         250         1.92 -5.79424e-05 -0.000123964     -38.7394 
         250      2.25333  -8.7317e-05 -0.000129547     -38.7394 
         250      2.61333 -0.000111993 -0.000130287     -38.7394 
         250            3 -0.000132546 -0.000126369     -38.7394 
         300            0           -0           -0     -36.1936 
         300     0.013333 -0.000140762 -2.72463e-08     -36.1936 
         300     0.053333 -0.000156271 -4.20415e-07     -36.1936 
         300         0.12 -0.000169048 -1.96154e-06     -36.1936 
         300     0.213332 -0.000159251   -5.397e-06     -36.1936 
         300     0.333332 -0.000135484 -1.08898e-05     -36.1936 
         300         0.48 -0.000115645 -1.80611e-05     -36.1936 
         300     0.653331 -0.000110139 -2.65061e-05     -36.1936 
         300     0.853332  -0.00011977 -3.59911e-05     -36.1936 
         300         1.08 -0.000135825 -4.59744e-05     -36.1936 
         300      1.33333 -0.000142802 -5.53619e-05     -36.1936 
         300      1.61333 -0.000138091 -6.32152e-05     -36.1936 
         300         1.92 -0.000131831 -6.91467e-05     -36.1936 
         300      2.25333 -0.000125323 -7.25731e-05     -36.1936 
         300      2.61333 -0.000119603  -7.3396e-05     -36.1936 
         300            3 -0.000115734 -7.16686e-05     -36.1936 
         350            0           -0           -0     -33.6486 
         350     0.013333 -0.000130208  1.93314e-08     -33.6486 
         350     0.053333 -0.000131839  2.85934e-07     -33.6486 
         350         0.12 -0.000159787  1.25883e-06     -33.6486 
         350     0.213332  -0.00020222  3.24113e-06     -33.6486 
         350     0.333332 -0.000241681  6.07719e-06     -33.6486 
         350         0.48 -0.000265458  9.29939e-06     -33.6486 
         350     0.653331 -0.000272641  1.25459e-05     -33.6486 
         350     0.853332 -0.000267537  1.57365e-05     -33.6486 
         350         1.08 -0.000253789  1.88956e-05     -33.6486 
         350      1.33333 -0.000234227  2.19528e-05     -33.6486 
         350      1.61333 -0.000210868  2.47454e-05     -33.6486 
         350         1.92 -0.000183912  2.70007e-05     -33.6486 
         350      2.25333 -0.000155227  2.85286e-05     -33.6486 
         350      2.61333 -0.000126773  2.91625e-05     -33.6486 
         350            3 -0.000101163  2.88347e-05     -33.6486 
         400            0           -0           -0     -31.1035 
         400     0.013333  -0.00010457  8.89547e-09     -31.1035 
         400     0.053333 -3.84532e-05  1.74494e-07     -31.1035 
         400         0.12  1.57441e-05  1.04948e-06     -31.1035 
         400     0.213332  3.45775e-05  3.57599e-06     -31.1035 
         400     0.333332  1.79472e-05   8.4798e-06     -31.1035 
         400         0.48 -1.05936e-05  1.56962e-05     -31.1035 
         400     0.653331 -2.93452e-05  2.45302e-05     -31.1035 
         400     0.853332  -3.4572e-05  3.41009e-05     -31.1035 
         400         1.08 -3.80399e-05  4.34901e-05     -31.1035 
         400      1.33333 -5.03883e-05  5.19386e-05     -31.1035 
         400      1.61333 -6.81865e-05  5.91536e-05     -31.1035 
         400         1.92 -8.51666e-05  6.50725e-05     -31.1035 
         400      2.25333  -0.00010119  6.90121e-05     -31.1035 
         400      2.61333 -0.000115277  7.07875e-05     -31.1035 
         400            3 -0.000125811  7.03642e-05     -31.1035 
         450            0   -1.317e-19  4.28037e-27     -28.5577 
         450     0.013333 -0.000104382 -5.02868e-08     -28.5577 
         450     0.053333 -2.03632e-05  -7.0853e-07     -28.5577 
         450         0.12   9.6815e-05 -2.88521e-06     -28.5577 
         450     0.213332   0.00021797 -6.69889e-06     -28.5577 
         450     0.333332  0.000300264 -1.10992e-05     -28.5577 
         450         0.48  0.000329229 -1.48296e-05     -28.5577 
         450     0.653331  0.000320979  -1.7547e-05     -28.5577 
         450     0.853332  0.000291753 -1.99421e-05     -28.5577 
         450         1.08  0.000242917 -2.29262e-05     -28.5577 
         450      1.33333  0.000179779 -2.65774e-05     -28.5577 
         450      1.61333  0.000117104 -3.00195e-05     -28.5577 
         450         1.92  5.44676e-05 -3.26327e-05     -28.5577 
         450      2.25333 -1.00667e-05 -3.43517e-05     -28.5577 
         450      2.61333  -7.4409e-05 -3.50348e-05     -28.5577 
         450            3  -0.00013377 -3.45712e-05     -28.5577 
         500            0            0            0     -26.0114 
         500     0.013333 -0.000157748 -7.57829e-09     -26.0114 
         500     0.053333  -0.00022133 -1.61281e-07     -26.0114 
         500         0.12 -0.000298963 -1.03062e-06     -26.0114 
         500     0.213332  -0.00034417 -3.65133e-06     -26.0114 
         500     0.333332 -0.000346166 -8.89342e-06     -26.0114 
         500         0.48 -0.000327025 -1.68134e-05     -26.0114 
         500     0.653331 -0.000313342 -2.67805e-05     -26.0114 
         500     0.853332 -0.000313313 -3.79145e-05     -26.0114 
         500         1.08 -0.000314038 -4.91149e-05     -26.0114 
         500      1.33333  -0.00029659  -5.9174e-05     -26.0114 
         500      1.61333 -0.000261225 -6.75006e-05     -26.0114 
         500         1.92 -0.000223129 -7.42211e-05     -26.0114 
         500      2.25333 -0.000184554 -7.88954e-05     -26.0114 
         500      2.61333 -0.000146055 -8.12666e-05     -26.0114 
         500            3 -0.000110875 -8.11565e-05     -26.0114 
         550            0           -0           -0      -23.464 
         550     0.013333 -0.000127687  2.63023e-08      -23.464 
         550     0.053333 -0.000123703  3.80583e-07      -23.464 
         550         0.12 -0.000146264   1.6237e-06      -23.464 
         550     0.213332 -0.000184172  4.04412e-06      -23.464 
         550     0.333332 -0.000219806  7.39944e-06      -23.464 
         550         0.48 -0.000242322   1.1268e-05      -23.464 
         550     0.653331 -0.000251974  1.55586e-05      -23.464 
         550     0.853332 -0.000248832  2.06155e-05      -23.464 
         550         1.08 -0.000229262  2.68208e-05      -23.464 
         550      1.33333 -0.000199286  3.38792e-05      -23.464 
         550      1.61333 -0.000174932  4.07916e-05      -23.464 
         550         1.92  -0.00015723  4.67532e-05      -23.464 
         550      2.25333 -0.000140288   5.1616e-05      -23.464 
         550      2.61333 -0.000122424  5.50188e-05      -23.464 
         550            3 -0.000105179  5.66582e-05      -23.464 
         600            0           -0           -0     -20.9158 
         600     0.013333 -0.000106688  4.33926e-08     -20.9158 
         600     0.053333 -5.68549e-05  6.85759e-07     -20.9158 
         600         0.12 -5.02762e-05  3.32228e-06     -20.9158 
         600     0.213332 -0.000110411  9.56256e-06     -20.9158 
         600     0.333332 -0.000214563  2.01206e-05     -20.9158 
         600         0.48 -0.000311909   3.4314e-05     -20.9158 
         600     0.653331 -0.000367657  5.07801e-05     -20.9158 
         600     0.853332 -0.000377987  6.84348e-05     -20.9158 
         600         1.08 -0.000358249  8.65103e-05     -20.9158 
         600      1.33333 -0.000330331  0.000104089     -20.9158 
         600      1.61333 -0.000306196  0.000120183     -20.9158 
         600         1.92  -0.00027802  0.000134262     -20.9158 
         600      2.25333 -0.000244169  0.000145575     -20.9158 
         600      2.61333 -0.000206767  0.000153306     -20.9158 
         600            3 -0.000168203  0.000156791     -20.9158 
         650            0            0            0     -18.3672 
         650     0.013333 -0.000216978 -1.92799e-09     -18.3672 
         650     0.053333 -0.000436782 -1.25839e-07     -18.3672 
         650         0.12 -0.000706539 -1.23536e-06     -18.3672 
         650     0.213332 -0.000899157 -5.52372e-06     -18.3672 
         650     0.333332 -0.000948833 -1.57401e-05     -18.3672 
         650         0.48 -0.000883381 -3.34521e-05     -18.3672 
         650     0.653331 -0.000780257 -5.82219e-05     -18.3672 
         650     0.853332 -0.000697512 -8.83274e-05     -18.3672 
         650         1.08  -0.00064541 -0.000121661     -18.3672 
         650      1.33333  -0.00059908 -0.000156001     -18.3672 
         650      1.61333 -0.000532815 -0.000189264     -18.3672 
         650         1.92  -0.00044778 -0.000219774     -18.3672 
         650      2.25333 -0.000353889 -0.000246079     -18.3672 
         650      2.61333 -0.000256974 -0.000266544     -18.3672 
         650            3 -0.000161635 -0.000279707     -18.3672 
         700            0            0            0     -15.8174 
         700     0.013333 -5.80797e-05 -1.62648e-07     -15.8174 
         700     0.053333  0.000185001 -2.35965e-06     -15.8174 
         700         0.12  0.000592105 -1.01006e-05     -15.8174 
         700     0.213332   0.00108186   -2.515e-05     -15.8174 
         700     0.333332   0.00149447 -4.54106e-05     -15.8174 
         700         0.48    0.0017223 -6.65957e-05     -15.8174 
         700     0.653331   0.00177487 -8.58234e-05     -15.8174 
         700     0.853332   0.00171542 -0.000103293     -15.8174 
         700         1.08   0.00157964 -0.000121065     -15.8174 
         700      1.33333   0.00138154 -0.000140281     -15.8174 
         700      1.61333   0.00115333 -0.000159833     -15.8174 
         700         1.92  0.000918246 -0.000177568     -15.8174 
         700      2.25333  0.000667962 -0.000192058     -15.8174 
         700      2.61333  0.000401565 -0.000202386     -15.8174 
         700            3  0.000133964 -0.000207787     -15.8175 
         750            0           -0           -0     -13.2684 
         750     0.013333    -4.94e-05  1.52093e-07     -13.2684 
         750     0.053333  0.000118446  2.34287e-06     -13.2684 
         750         0.12  0.000191219  1.09969e-05     -13.2684 
         750     0.213332  7.62735e-05  3.07775e-05     -13.2684 
         750     0.333332  -0.00017624  6.35958e-05     -13.2684 
         750         0.48 -0.000434173  0.000107822     -13.2684 
         750     0.653331 -0.000599511  0.000160482     -13.2684 
         750     0.853332 -0.000643506  0.000219693     -13.2684 
         750         1.08 -0.000578615  0.000284576     -13.2684 
         750      1.33333 -0.000455978  0.000352909     -13.2684 
         750      1.61333 -0.000353144  0.000420038     -13.2684 
         750         1.92 -0.000293877  0.000481333     -13.2684 
         750      2.25333 -0.000245801  0.000534049     -13.2684 
         750      2.61333 -0.000194663  0.000575236     -13.2684 
         750            3 -0.000144809  0.000602046     -13.2684 
         800            0            0            0     -10.7182 
         800     0.013333 -0.000187347  3.07224e-08     -10.7182 
         800     0.053333 -0.000343739  4.10565e-07     -10.7182 
         800         0.12 -0.000576891  1.52307e-06     -10.7182 
         800     0.213332 -0.000811718  3.01883e-06     -10.7182 
         800     0.333332 -0.000983139   3.6841e-06     -10.7182 
         800         0.48  -0.00106877  2.16145e-06     -10.7182 
         800     0.653331  -0.00109022 -2.28051e-06     -10.7182 
         800     0.853332  -0.00108248 -9.55921e-06     -10.7182 
         800         1.08  -0.00106299 -1.88055e-05     -10.7182 
         800      1.33333  -0.00101928 -2.84886e-05     -10.7182 
         800      1.61333 -0.000930194 -3.68768e-05     -10.7182 
         800         1.92  -0.00080313 -4.34471e-05     -10.7182 
         800      2.25333 -0.000659443 -4.83916e-05     -10.7182 
         800      2.61333 -0.000508256 -5.18471e-05     -10.7182 
         800            3 -0.000351792 -5.37222e-05     -10.7182 
         850            0           -0           -0     -8.16701 
         850     0.013333 -0.000193891  7.57131e-09     -8.16701 
         850     0.053333 -0.000359221  5.51733e-08     -8.16701 
         850         0.12 -0.000580505 -1.57252e-07     -8.16701 
         850     0.213332  -0.00076616 -1.80096e-06     -8.16701 
         850     0.333332 -0.000855928 -6.65865e-06     -8.16701 
         850         0.48 -0.000851243 -1.60745e-05     -8.16701 
         850     0.653331  -0.00079885 -3.01991e-05     -8.16701 
         850     0.853332 -0.000744828 -4.81725e-05     -8.16701 
         850         1.08 -0.000704871 -6.86148e-05     -8.16701 
         850      1.33333 -0.000665182 -9.00278e-05     -8.16701 
         850      1.61333 -0.000607885  -0.00011106     -8.16701 
         850         1.92 -0.000533121 -0.000130866     -8.16701 
         850      2.25333 -0.000447086 -0.000148836     -8.16701 
         850      2.61333  -0.00035411  -0.00016399     -8.16701 
         850            3 -0.000257273 -0.000175366       -8.167 
         900            0           -0           -0     -5.61529 
         900     0.013333 -0.000188378 -5.27896e-08     -5.61529 
         900     0.053333 -0.000317955 -8.51258e-07     -5.61529 
         900         0.12 -0.000439904 -4.26235e-06     -5.61529 
         900     0.213332  -0.00046135 -1.28368e-05     -5.61529 
         900     0.333332 -0.000367955 -2.85131e-05     -5.61529 
         900         0.48 -0.000219377 -5.14857e-05     -5.61529 
         900     0.653331 -8.97998e-05 -8.03885e-05     -5.61529 
         900     0.853332  -1.7495e-05 -0.000113457     -5.61529 
         900         1.08 -1.53554e-06 -0.000149298     -5.61529 
         900      1.33333 -1.90307e-05 -0.000186677     -5.61529 
         900      1.61333 -4.13886e-05 -0.000224055     -5.61529 
         900         1.92 -5.26225e-05 -0.000259659     -5.61529 
         900      2.25333 -5.88679e-05 -0.000291794     -5.61529 
         900      2.61333 -6.49794e-05   -0.0003188     -5.61528 
         900            3 -7.14209e-05 -0.000339035     -5.61528 
         950            0           -0           -0     -3.06282 
         950     0.013333  -9.8979e-05 -1.21533e-07     -3.06282 
         950     0.053333   2.8782e-05 -1.80181e-06     -3.06282 
         950         0.12  0.000278938 -7.99243e-06     -3.06282 
         950     0.213332  0.000632322 -2.08852e-05     -3.06282 
         950     0.333332  0.000981729 -3.99676e-05     -3.06282 
         950         0.48   0.00121887 -6.24414e-05     -3.06282 
         950     0.653331   0.00131256 -8.55896e-05     -3.06282 
         950     0.853332   0.00129621 -0.000108569     -3.06282 
         950         1.08   0.00120734 -0.000132164     -3.06282 
         950      1.33333   0.00106849 -0.000157035     -3.06282 
         950      1.61333  0.000906415  -0.00018236     -3.06282 
         950         1.92  0.000745435 -0.000206374     -3.06282 
         950      2.25333  0.000579753 -0.000227612     -3.06283 
         950      2.61333  0.000403995 -0.000244947     -3.06283 
         950            3  0.000220265 -0.000257342     -3.06284 
        1000            0 -9.74733e-20  3.89029e-24        -0.51 
        1000     0.013333 -1.02161e-05  3.79527e-08        -0.51 
        1000     0.053333  0.000303344  5.95693e-07        -0.51 
        1000         0.12  0.000658263  3.62124e-06        -0.51 
        1000     0.213332  0.000907564  1.29961e-05        -0.51 
        1000     0.333332  0.000973588  3.28116e-05    -0.509999 
        1000         0.48  0.000894744  6.46984e-05    -0.509999 
        1000     0.653331  0.000774558   0.00010718    -0.509999 
        1000     0.853332  0.000695143  0.000157171    -0.509998 
        1000         1.08  0.000666123  0.000211159    -0.509998 
        1000      1.33333  0.000632401   0.00026541    -0.509999 
        1000      1.61333  0.000540107  0.000316826        -0.51 
        1000         1.92  0.000405286  0.000364313    -0.510004 
        1000      2.25333  0.000262145  0.000407425    -0.510009 
        1000      2.61333  0.000119842  0.000444705    -0.510017 
        1000            3 -2.54319e-05  0.000474185    -0.510029 
