Variables = x, y, u, v, p

Zone, I=20800, F=POINT
         -50            0            0            0    0.0416023 
         -50     0.000234  5.05409e-08 -1.75864e-11    0.0416023 
         -50     0.000939   2.0125e-07 -1.55697e-11    0.0416023 
         -50     0.002113  4.47048e-07  1.70632e-10    0.0416023 
         -50     0.003759  7.80903e-07  8.14642e-10    0.0416023 
         -50     0.005872  1.19134e-06  2.29153e-09    0.0416023 
         -50     0.008457  1.66626e-06  5.08031e-09    0.0416023 
         -50      0.01151  2.18958e-06  9.74128e-09    0.0416023 
         -50     0.015036  2.74483e-06  1.69223e-08    0.0416023 
         -50     0.019031   3.3126e-06  2.73132e-08    0.0416023 
         -50     0.023493  3.87301e-06  4.16374e-08    0.0416023 
         -50     0.028429  4.40693e-06  6.06648e-08    0.0416023 
         -50     0.033831   4.8939e-06  8.51054e-08    0.0416023 
         -50     0.039706  5.31613e-06  1.15709e-07    0.0416023 
         -50     0.046047  5.65666e-06  1.53121e-07    0.0416023 
         -50     0.052863    5.902e-06  1.98035e-07    0.0416023 
         -50      0.06015  6.04095e-06  2.50995e-07    0.0416023 
         -50       0.0679   6.0655e-06  3.12369e-07    0.0416023 
         -50     0.076126   5.9695e-06  3.82414e-07    0.0416023 
         -50     0.084816  5.74771e-06  4.60753e-07    0.0416023 
         -50     0.093982  5.40474e-06  5.48471e-07    0.0416023 
         -50     0.103611  4.94003e-06  6.44502e-07    0.0416023 
         -50     0.113718  4.35989e-06  7.47889e-07    0.0416023 
         -50     0.124286  3.67389e-06  8.57748e-07    0.0416023 
         -50     0.135333  2.89068e-06  9.73905e-07    0.0416023 
         -50      0.14685  2.02156e-06  1.09613e-06    0.0416023 
         -50     0.158827  1.07881e-06  1.22423e-06    0.0416023 
         -50     0.171284  7.29629e-08   1.3582e-06    0.0416023 
         -50     0.184201  -9.8168e-07  1.49748e-06    0.0416023 
         -50     0.197599 -2.07363e-06  1.64199e-06    0.0416023 
         -50     0.211455 -3.18763e-06  1.79207e-06    0.0416023 
         -50     0.225792 -4.31276e-06  1.95099e-06    0.0416023 
         -50       0.2406 -5.43772e-06  2.12704e-06    0.0416023 
         -50     0.255865 -6.55987e-06  2.32115e-06    0.0416023 
         -50     0.271613 -7.66551e-06  2.53357e-06    0.0416023 
         -50     0.287818 -8.74255e-06  2.80893e-06    0.0416023 
         -50     0.304506 -9.79267e-06  3.16471e-06    0.0416023 
         -50      0.32165 -1.08087e-05  3.60862e-06    0.0416023 
         -50     0.339278 -1.17819e-05  4.14014e-06    0.0416023 
         -50     0.357377 -1.26967e-05  4.74776e-06    0.0416022 
         -50      0.37593 -1.35346e-05  5.40987e-06    0.0416022 
         -50     0.394968 -1.42779e-05  6.09767e-06    0.0416022 
         -50     0.414461 -1.49062e-05  6.77304e-06    0.0416022 
         -50      0.43444  -1.5403e-05  7.39549e-06    0.0416022 
         -50     0.454872 -1.57536e-05  7.92189e-06    0.0416022 
         -50     0.475791 -1.59495e-05  8.31552e-06    0.0416021 
         -50     0.497163 -1.59863e-05   8.5494e-06    0.0416021 
         -50     0.519021 -1.58649e-05  8.61717e-06    0.0416021 
         -50      0.54135 -1.55888e-05  8.54166e-06    0.0416021 
         -50     0.564131 -1.51598e-05  8.38825e-06    0.0416021 
         -50       0.5874   -1.457e-05  8.27854e-06    0.0416021 
         -50     0.611121 -1.38231e-05  8.45657e-06    0.0416021 
         -50      0.63533  -1.3161e-05  9.25908e-06     0.041602 
         -50      0.65999 -1.23036e-05   9.9722e-06     0.041602 
         -50     0.685139 -1.12962e-05  1.06075e-05    0.0416019 
         -50     0.710759 -1.01826e-05  1.11753e-05    0.0416019 
         -50     0.736828 -9.00421e-06  1.16861e-05    0.0416019 
         -50     0.763387 -7.79531e-06  1.21516e-05    0.0416019 
         -50     0.790396 -6.58976e-06  1.25818e-05    0.0416018 
         -50     0.817896 -5.41323e-06  1.29876e-05    0.0416018 
         -50     0.845843 -4.29033e-06  1.33774e-05    0.0416018 
         -50     0.874283 -3.23714e-06  1.37606e-05    0.0416018 
         -50      0.90317 -2.26845e-06  1.41435e-05    0.0416018 
         -50     0.932551 -1.39109e-06  1.45325e-05    0.0416017 
         -50     0.962401  -6.0988e-07  1.49316e-05    0.0416017 
         -50     0.992697   7.4855e-08  1.53426e-05    0.0416017 
         -50      1.02349  6.67978e-07  1.57669e-05    0.0416017 
         -50      1.05472  1.17529e-06  1.62021e-05    0.0416017 
         -50      1.08645  1.60675e-06  1.66455e-05    0.0416016 
         -50      1.11863  1.97234e-06  1.70913e-05    0.0416016 
         -50       1.1513  2.28405e-06  1.75331e-05    0.0416016 
         -50      1.18444   2.5528e-06  1.79624e-05    0.0416016 
         -50      1.21802  2.78855e-06  1.83696e-05    0.0416015 
         -50      1.25211  2.99979e-06  1.87463e-05    0.0416015 
         -50      1.28663  3.19143e-06   1.9083e-05    0.0416015 
         -50      1.32165   3.3654e-06  1.93735e-05    0.0416015 
         -50      1.35712   3.5188e-06  1.96133e-05    0.0416014 
         -50      1.39308  3.64461e-06  1.98036e-05    0.0416014 
         -50      1.42951  3.73066e-06  1.99517e-05    0.0416014 
         -50      1.46638  3.76039e-06  2.00741e-05    0.0416013 
         -50      1.50375  3.71349e-06  2.01994e-05    0.0416013 
         -50      1.54156  3.70123e-06  2.03983e-05    0.0416013 
         -50      1.57987  3.70049e-06  2.05711e-05    0.0416012 
         -50      1.61863  3.70265e-06  2.07133e-05    0.0416012 
         -50      1.65788  3.70545e-06  2.08263e-05    0.0416011 
         -50      1.69757  3.70687e-06  2.09113e-05    0.0416011 
         -50      1.73776  3.70516e-06  2.09699e-05    0.0416011 
         -50      1.77842  3.69882e-06  2.10031e-05     0.041601 
         -50      1.81952   3.6866e-06  2.10123e-05     0.041601 
         -50      1.86113   3.6675e-06  2.09988e-05    0.0416009 
         -50      1.90316  3.64085e-06  2.09637e-05    0.0416009 
         -50      1.94571   3.6061e-06  2.09084e-05    0.0416008 
         -50      1.98869  3.56309e-06   2.0834e-05    0.0416007 
         -50      2.03217  3.51174e-06  2.07416e-05    0.0416007 
         -50      2.07612  3.45228e-06  2.06324e-05    0.0416006 
         -50      2.12051  3.38518e-06  2.05075e-05    0.0416005 
         -50       2.1654  3.31091e-06  2.03678e-05    0.0416005 
         -50      2.21073  3.23031e-06  2.02145e-05    0.0416004 
         -50      2.25656  3.14413e-06  2.00484e-05    0.0416003 
         -50      2.30283  3.05344e-06  1.98706e-05    0.0416002 
         -50       2.3496  2.95914e-06  1.96818e-05    0.0416001 
         -50      2.39685  2.86237e-06   1.9483e-05       0.0416 
         -50      2.44452  2.76429e-06  1.92752e-05    0.0415999 
         -50      2.49271   2.6658e-06  1.90588e-05    0.0415998 
         -50      2.54132  2.56805e-06   1.8835e-05    0.0415997 
         -50      2.59044  2.47182e-06  1.86042e-05    0.0415996 
         -50         2.64  2.37806e-06  1.83674e-05    0.0415995 
         -50      2.69006  2.28728e-06  1.81251e-05    0.0415993 
         -50      2.74056  2.20012e-06  1.78784e-05    0.0415992 
         -50      2.79156  2.11676e-06  1.76274e-05    0.0415991 
         -50      2.84304  2.03737e-06  1.73731e-05    0.0415989 
         -50      2.89494  1.96193e-06  1.71163e-05    0.0415988 
         -50      2.94735     1.89e-06  1.68573e-05    0.0415986 
         -50       3.0002  1.82119e-06  1.65971e-05    0.0415984 
         -50      3.05355  1.75472e-06  1.63359e-05    0.0415983 
         -50      3.10733  1.68985e-06  1.60747e-05    0.0415981 
         -50      3.16163  1.62556e-06  1.58137e-05    0.0415979 
         -50      3.21639  1.56091e-06  1.55536e-05    0.0415977 
         -50      3.27158  1.49505e-06  1.52951e-05    0.0415975 
         -50      3.32729  1.42708e-06  1.50381e-05    0.0415973 
         -50      3.38342  1.35659e-06  1.47834e-05    0.0415971 
         -50      3.44007   1.2834e-06  1.45309e-05    0.0415969 
         -50      3.49714  1.20812e-06   1.4281e-05    0.0415966 
         -50      3.55472  1.13197e-06  1.40332e-05    0.0415964 
         -50      3.61273  1.05745e-06  1.37877e-05    0.0415961 
         -50      3.67125  9.88189e-07  1.35435e-05    0.0415959 
         -50      3.73025  9.29649e-07  1.33001e-05    0.0415956 
         -50      3.78967  8.91307e-07  1.30547e-05    0.0415954 
         -50      3.84961  8.55119e-07  1.28182e-05    0.0415951 
         -50      3.90996  8.17699e-07  1.25904e-05    0.0415948 
         -50      3.97084  7.67557e-07  1.23621e-05    0.0415945 
         -50      4.03214  7.17119e-07  1.21357e-05    0.0415942 
         -50      4.09395  6.68651e-07  1.19115e-05    0.0415939 
         -50      4.15624  6.22419e-07  1.16898e-05    0.0415936 
         -50      4.21895  5.78558e-07  1.14711e-05    0.0415933 
         -50      4.28217  5.36995e-07   1.1255e-05    0.0415929 
         -50      4.34582  4.97702e-07  1.10421e-05    0.0415926 
         -50      4.40998  4.60452e-07  1.08322e-05    0.0415922 
         -50      4.47457  4.25092e-07  1.06257e-05    0.0415919 
         -50      4.53968  3.91318e-07  1.04224e-05    0.0415915 
         -50      4.60525  3.58898e-07  1.02224e-05    0.0415911 
         -50      4.67125  3.27595e-07  1.00259e-05    0.0415907 
         -50      4.73777   2.9712e-07  9.83257e-06    0.0415903 
         -50       4.8047  2.67312e-07  9.64257e-06    0.0415899 
         -50      4.87216   2.3796e-07  9.45549e-06    0.0415895 
         -50      4.94003  2.09004e-07  9.27147e-06    0.0415891 
         -50      5.00843  1.80351e-07  9.09007e-06    0.0415887 
         -50      5.07724  1.52071e-07  8.91142e-06    0.0415882 
         -50      5.14658  1.24206e-07  8.73515e-06    0.0415878 
         -50      5.21639  9.69325e-08  8.56139e-06    0.0415873 
         -50      5.28661  7.04797e-08  8.39036e-06    0.0415868 
         -50      5.35736  4.50527e-08  8.22206e-06    0.0415863 
         -50      5.42852  2.09584e-08  8.05726e-06    0.0415858 
         -50      5.50021 -1.58327e-09  7.89649e-06    0.0415853 
         -50      5.57231 -2.23228e-08  7.74115e-06    0.0415848 
         -50      5.64493 -4.11669e-08  7.59264e-06    0.0415843 
         -50      5.71803 -5.68529e-08   7.4321e-06    0.0415837 
         -50      5.79154 -7.30873e-08  7.28008e-06    0.0415832 
         -50      5.86558 -8.96303e-08  7.13356e-06    0.0415826 
         -50      5.94003  -1.0603e-07  6.99084e-06     0.041582 
         -50      6.01501 -1.21842e-07  6.85046e-06    0.0415815 
         -50       6.0904 -1.36628e-07  6.71187e-06    0.0415809 
         -50      6.16632 -1.50137e-07  6.57448e-06    0.0415803 
         -50      6.24271 -1.62278e-07  6.43829e-06    0.0415796 
         -50       6.3195 -1.73201e-07  6.30353e-06     0.041579 
         -50      6.39683 -1.83319e-07  6.17032e-06    0.0415784 
         -50      6.47457 -1.93222e-07  6.03944e-06    0.0415777 
         -50      6.55284 -2.03683e-07  5.91162e-06     0.041577 
         -50      6.63152 -2.15481e-07  5.78854e-06    0.0415764 
         -50      6.71073  -2.2932e-07  5.67227e-06    0.0415757 
         -50      6.79034 -2.40635e-07  5.55098e-06     0.041575 
         -50      6.87049 -2.50304e-07  5.42821e-06    0.0415742 
         -50      6.95111 -2.59911e-07  5.30916e-06    0.0415735 
         -50      7.03214 -2.69224e-07  5.19355e-06    0.0415728 
         -50       7.1137 -2.78059e-07  5.08093e-06     0.041572 
         -50      7.19566 -2.86243e-07  4.97127e-06    0.0415712 
         -50      7.27816 -2.93674e-07  4.86425e-06    0.0415705 
         -50      7.36106  -3.0027e-07  4.75991e-06    0.0415697 
         -50      7.44451 -3.06016e-07  4.65797e-06    0.0415689 
         -50      7.52842 -3.10909e-07  4.55837e-06     0.041568 
         -50      7.61273 -3.14964e-07    4.461e-06    0.0415672 
         -50      7.69758 -3.18194e-07  4.36545e-06    0.0415663 
         -50      7.78283 -3.20554e-07  4.27152e-06    0.0415655 
         -50      7.86862 -3.21921e-07  4.17861e-06    0.0415646 
         -50      7.95481 -3.22022e-07  4.08624e-06    0.0415637 
         -50      8.04155 -3.20384e-07  3.99349e-06    0.0415628 
         -50      8.12868 -3.21647e-07  3.90767e-06    0.0415619 
         -50      8.21635 -3.22271e-07  3.82366e-06     0.041561 
         -50      8.30449 -3.21428e-07  3.74018e-06      0.04156 
         -50      8.39303 -3.19743e-07  3.65796e-06     0.041559 
         -50      8.48211  -3.1777e-07  3.57731e-06    0.0415581 
         -50      8.57159 -3.15995e-07  3.49854e-06    0.0415571 
         -50      8.66161 -3.14816e-07  3.42151e-06     0.041556 
         -50      8.75203  -3.1454e-07  3.34613e-06     0.041555 
         -50      8.84299 -3.15355e-07  3.27202e-06     0.041554 
         -50      8.93443 -3.17315e-07  3.19893e-06    0.0415529 
         -50      9.02626 -3.20312e-07  3.12678e-06    0.0415519 
         -50      9.11863  -3.2405e-07  3.05558e-06    0.0415508 
         -50      9.21139 -3.27996e-07  2.98606e-06    0.0415497 
         -50      9.30471 -3.31359e-07  2.91943e-06    0.0415485 
         -50      9.39841 -3.31716e-07   2.8537e-06    0.0415474 
         -50      9.49267 -3.30481e-07  2.78712e-06    0.0415463 
         -50      9.58739  -3.2948e-07  2.72283e-06    0.0415451 
         -50      9.68251  -3.2861e-07  2.66072e-06    0.0415439 
         -50      9.77817 -3.27778e-07  2.60052e-06    0.0415427 
         -50      9.87422 -3.26912e-07  2.54215e-06    0.0415415 
         -50      9.97083 -3.25949e-07  2.48533e-06    0.0415402 
         -50      10.0678 -3.24845e-07  2.42998e-06     0.041539 
         -50      10.1654 -3.23568e-07  2.37583e-06    0.0415377 
         -50      10.2633   -3.221e-07  2.32282e-06    0.0415364 
         -50      10.3618 -3.20434e-07  2.27071e-06    0.0415351 
         -50      10.4607 -3.18577e-07  2.21942e-06    0.0415338 
         -50      10.5601  -3.1655e-07  2.16891e-06    0.0415325 
         -50        10.66 -3.14377e-07  2.11902e-06    0.0415311 
         -50      10.7603 -3.12096e-07  2.06981e-06    0.0415297 
         -50      10.8611 -3.09746e-07  2.02118e-06    0.0415283 
         -50      10.9623 -3.07376e-07  1.97324e-06    0.0415269 
         -50      11.0641  -3.0503e-07  1.92596e-06    0.0415255 
         -50      11.1663 -3.02758e-07  1.87946e-06     0.041524 
         -50       11.269 -3.00604e-07  1.83386e-06    0.0415226 
         -50      11.3721 -2.98602e-07  1.78921e-06    0.0415211 
         -50      11.4757 -2.96779e-07  1.74568e-06    0.0415196 
         -50      11.5798 -2.95143e-07  1.70331e-06     0.041518 
         -50      11.6844 -2.93687e-07  1.66225e-06    0.0415165 
         -50      11.7894 -2.92377e-07  1.62249e-06    0.0415149 
         -50       11.895  -2.9115e-07  1.58407e-06    0.0415134 
         -50      12.0009 -2.89909e-07  1.54694e-06    0.0415118 
         -50      12.1073  -2.8851e-07  1.51088e-06    0.0415101 
         -50      12.2142 -2.86768e-07  1.47568e-06    0.0415085 
         -50      12.3216 -2.84434e-07  1.44085e-06    0.0415068 
         -50      12.4294 -2.81203e-07  1.40583e-06    0.0415051 
         -50      12.5378 -2.76686e-07  1.36976e-06    0.0415034 
         -50      12.6465 -2.71168e-07  1.33565e-06    0.0415017 
         -50      12.7558 -2.63423e-07  1.30655e-06       0.0415 
         -50      12.8656  -2.6286e-07  1.27397e-06    0.0414982 
         -50      12.9757 -2.62608e-07  1.23881e-06    0.0414964 
         -50      13.0864 -2.65873e-07  1.20865e-06    0.0414946 
         -50      13.1975 -2.66367e-07  1.17971e-06    0.0414928 
         -50      13.3092 -2.64864e-07  1.15168e-06     0.041491 
         -50      13.4212 -2.62008e-07  1.12442e-06    0.0414891 
         -50      13.5338 -2.58322e-07  1.09772e-06    0.0414872 
         -50      13.6468 -2.54229e-07  1.07149e-06    0.0414853 
         -50      13.7603 -2.50056e-07   1.0457e-06    0.0414834 
         -50      13.8743 -2.46032e-07  1.02025e-06    0.0414814 
         -50      13.9886 -2.42325e-07  9.95184e-07    0.0414795 
         -50      14.1036 -2.39021e-07  9.70466e-07    0.0414775 
         -50      14.2189 -2.36162e-07  9.46161e-07    0.0414754 
         -50      14.3348 -2.33732e-07  9.22267e-07    0.0414734 
         -50       14.451 -2.31688e-07  8.98862e-07    0.0414713 
         -50      14.5678 -2.29949e-07  8.75951e-07    0.0414693 
         -50      14.6851 -2.28419e-07  8.53591e-07    0.0414672 
         -50      14.8028 -2.26994e-07  8.31832e-07     0.041465 
         -50       14.921 -2.25558e-07  8.10661e-07    0.0414629 
         -50      15.0396  -2.2401e-07  7.90122e-07    0.0414607 
         -50      15.1588 -2.22252e-07  7.70177e-07    0.0414585 
         -50      15.2783  -2.2021e-07   7.5084e-07    0.0414563 
         -50      15.3984 -2.17827e-07  7.32042e-07    0.0414541 
         -50       15.519 -2.15078e-07   7.1375e-07    0.0414518 
         -50        15.64 -2.11972e-07  6.95912e-07    0.0414495 
         -50      15.7615 -2.08544e-07  6.78424e-07    0.0414472 
         -50      15.8834 -2.04875e-07  6.61226e-07    0.0414449 
         -50      16.0058 -2.01071e-07  6.44204e-07    0.0414425 
         -50      16.1286 -1.97286e-07  6.27295e-07    0.0414402 
         -50       16.252 -1.93693e-07  6.10392e-07    0.0414378 
         -50      16.3759 -1.90506e-07  5.93446e-07    0.0414353 
         -50      16.5002 -1.87962e-07  5.76432e-07    0.0414329 
         -50       16.625 -1.86305e-07  5.59322e-07    0.0414304 
         -50      16.7501   -1.903e-07  5.43688e-07    0.0414279 
         -50      16.8759 -1.96322e-07  5.29843e-07    0.0414254 
         -50       17.002 -1.98365e-07  5.16122e-07    0.0414229 
         -50      17.1287  -1.9758e-07  5.02593e-07    0.0414203 
         -50      17.2557 -1.94895e-07  4.89347e-07    0.0414177 
         -50      17.3834 -1.91038e-07  4.76411e-07    0.0414151 
         -50      17.5115 -1.86575e-07  4.63827e-07    0.0414125 
         -50      17.6399 -1.81925e-07  4.51621e-07    0.0414098 
         -50       17.769 -1.77374e-07  4.39772e-07    0.0414071 
         -50      17.8984  -1.7312e-07   4.2829e-07    0.0414044 
         -50      18.0284 -1.69264e-07  4.17134e-07    0.0414017 
         -50      18.1587  -1.6586e-07  4.06295e-07    0.0413989 
         -50      18.2896 -1.62902e-07   3.9572e-07    0.0413961 
         -50       18.421 -1.60364e-07  3.85383e-07    0.0413933 
         -50      18.5528 -1.58203e-07  3.75255e-07    0.0413905 
         -50      18.6851 -1.56366e-07  3.65287e-07    0.0413877 
         -50      18.8178 -1.54813e-07  3.55467e-07    0.0413848 
         -50      18.9511  -1.5351e-07   3.4576e-07    0.0413819 
         -50      19.0847 -1.52445e-07  3.36175e-07    0.0413789 
         -50      19.2189  -1.5162e-07  3.26703e-07     0.041376 
         -50      19.3535 -1.51055e-07  3.17386e-07     0.041373 
         -50      19.4886 -1.50779e-07  3.08254e-07      0.04137 
         -50      19.6242 -1.50825e-07  2.99388e-07     0.041367 
         -50      19.7602 -1.51214e-07  2.90895e-07    0.0413639 
         -50      19.8968 -1.51942e-07  2.82895e-07    0.0413608 
         -50      20.0337 -1.52952e-07  2.75569e-07    0.0413577 
         -50      20.1712 -1.54115e-07  2.69116e-07    0.0413546 
         -50      20.3091 -1.55036e-07  2.63746e-07    0.0413514 
         -50      20.4475 -1.53813e-07  2.58904e-07    0.0413483 
         -50      20.5864 -1.50352e-07  2.53982e-07    0.0413451 
         -50      20.7257 -1.45021e-07  2.48211e-07    0.0413418 
         -50      20.8655 -1.38309e-07  2.40524e-07    0.0413386 
         -50      21.0058 -1.30853e-07   2.2956e-07    0.0413353 
         -50      21.1465 -1.23407e-07  2.13568e-07     0.041332 
         -50      21.2877 -1.19548e-07  2.06294e-07    0.0413286 
         -50      21.4294 -1.21696e-07  2.07983e-07    0.0413253 
         -50      21.5716 -1.25487e-07  2.01905e-07    0.0413219 
         -50      21.7142 -1.29554e-07  1.92909e-07    0.0413185 
         -50      21.8573 -1.32868e-07  1.84428e-07    0.0413151 
         -50      22.0008 -1.33017e-07  1.79123e-07    0.0413116 
         -50      22.1449 -1.28208e-07  1.75715e-07    0.0413081 
         -50      22.2893 -1.22824e-07  1.71956e-07    0.0413046 
         -50      22.4344 -1.17512e-07  1.67913e-07    0.0413011 
         -50      22.5797 -1.12755e-07  1.63685e-07    0.0412975 
         -50      22.7257 -1.08861e-07  1.59366e-07    0.0412939 
         -50      22.8721 -1.06001e-07  1.55054e-07    0.0412903 
         -50      23.0189 -1.04215e-07  1.50833e-07    0.0412867 
         -50      23.1663 -1.03431e-07  1.46758e-07     0.041283 
         -50       23.314 -1.03492e-07   1.4287e-07    0.0412793 
         -50      23.4623 -1.04173e-07  1.39166e-07    0.0412756 
         -50       23.611 -1.05203e-07  1.35628e-07    0.0412719 
         -50      23.7602 -1.06288e-07  1.32195e-07    0.0412681 
         -50        23.91 -1.07138e-07  1.28791e-07    0.0412643 
         -50        24.06 -1.07488e-07  1.25326e-07    0.0412605 
         -50      24.2107 -1.07131e-07  1.21691e-07    0.0412567 
         -50      24.3617  -1.0594e-07  1.17797e-07    0.0412528 
         -50      24.5133 -1.03898e-07  1.13568e-07    0.0412489 
         -50      24.6653 -1.01134e-07  1.08984e-07     0.041245 
         -50      24.8178 -9.79432e-08  1.04081e-07     0.041241 
         -50      24.9708 -9.48318e-08  9.90008e-08    0.0412371 
         -50      25.1242 -9.25466e-08  9.40182e-08    0.0412331 
         -50      25.2781 -9.21037e-08  8.95614e-08    0.0412291 
         -50      25.4324 -9.48342e-08   8.6282e-08     0.041225 
         -50      25.5873 -9.48339e-08  8.12455e-08     0.041221 
         -50      25.7426 -9.48411e-08  7.86515e-08    0.0412169 
         -50      25.8984  -9.4342e-08  7.77248e-08    0.0412128 
         -50      26.0546 -9.27145e-08  7.74982e-08    0.0412086 
         -50      26.2114 -8.97783e-08  7.72396e-08    0.0412044 
         -50      26.3686 -8.57995e-08  7.64763e-08    0.0412002 
         -50      26.5262 -8.14336e-08  7.49962e-08     0.041196 
         -50      26.6844 -7.75992e-08  7.28187e-08    0.0411918 
         -50      26.8429 -7.53291e-08  7.01565e-08    0.0411875 
         -50       27.002  -7.5515e-08  6.73283e-08    0.0411832 
         -50      27.1615  -7.8618e-08  6.46738e-08    0.0411789 
         -50      27.3216 -8.42995e-08  6.24057e-08    0.0411746 
         -50      27.4821 -9.09629e-08   6.0464e-08    0.0411702 
         -50       27.643 -9.23853e-08  5.90835e-08    0.0411658 
         -50      27.8044 -9.03605e-08  5.80944e-08    0.0411614 
         -50      27.9663 -8.75058e-08  5.71303e-08     0.041157 
         -50      28.1287 -8.41941e-08  5.61398e-08    0.0411525 
         -50      28.2914  -8.0731e-08  5.50896e-08     0.041148 
         -50      28.4548 -7.73428e-08   5.3956e-08    0.0411435 
         -50      28.6185 -7.42053e-08  5.27299e-08     0.041139 
         -50      28.7828   -7.143e-08  5.14076e-08    0.0411344 
         -50      28.9475 -6.90898e-08  4.99958e-08    0.0411298 
         -50      29.1126 -6.72164e-08  4.85073e-08    0.0411252 
         -50      29.2784 -6.58047e-08  4.69555e-08    0.0411206 
         -50      29.4444 -6.48283e-08  4.53614e-08    0.0411159 
         -50       29.611 -6.42368e-08  4.37424e-08    0.0411112 
         -50       29.778 -6.39681e-08  4.21209e-08    0.0411065 
         -50      29.9456 -6.39495e-08  4.05136e-08    0.0411018 
         -50      30.1137 -6.41052e-08  3.89385e-08    0.0410971 
         -50      30.2821 -6.43592e-08   3.7411e-08    0.0410923 
         -50      30.4511 -6.46406e-08  3.59391e-08    0.0410875 
         -50      30.6204  -6.4886e-08  3.45317e-08    0.0410827 
         -50      30.7903 -6.50437e-08  3.31884e-08    0.0410778 
         -50      30.9606 -6.50746e-08  3.19088e-08     0.041073 
         -50      31.1315  -6.4955e-08  3.06835e-08    0.0410681 
         -50      31.3028 -6.46771e-08   2.9502e-08    0.0410632 
         -50      31.4745   -6.425e-08  2.83497e-08    0.0410582 
         -50      31.6468 -6.36973e-08  2.72062e-08    0.0410533 
         -50      31.8194 -6.30592e-08  2.60525e-08    0.0410483 
         -50      31.9926 -6.23859e-08   2.4865e-08    0.0410433 
         -50      32.1662 -6.17396e-08  2.36241e-08    0.0410383 
         -50      32.3404 -6.11853e-08  2.23088e-08    0.0410332 
         -50      32.5149 -6.07907e-08  2.09065e-08    0.0410282 
         -50        32.69  -6.0616e-08   1.9407e-08    0.0410231 
         -50      32.8655 -6.07099e-08  1.78127e-08     0.041018 
         -50      33.0414  -6.1099e-08  1.61391e-08    0.0410128 
         -50       33.218 -6.17802e-08  1.44135e-08    0.0410077 
         -50      33.3948 -6.27074e-08  1.26884e-08    0.0410025 
         -50      33.5723 -6.37833e-08  1.10349e-08    0.0409973 
         -50        33.75 -6.48405e-08  9.55793e-09    0.0409921 
         -50      33.9284 -6.56329e-08   8.3914e-09    0.0409869 
         -50      34.1073 -6.58128e-08  7.71202e-09    0.0409816 
         -50      34.2865 -6.49183e-08  7.74014e-09    0.0409763 
         -50      34.4663 -6.23487e-08    8.748e-09     0.040971 
         -50      34.6465 -5.73521e-08  1.10644e-08    0.0409657 
         -50      34.8272 -4.89831e-08  1.50899e-08    0.0409604 
         -50      35.0083 -4.46111e-08  1.37279e-08     0.040955 
         -50        35.19 -4.28055e-08  8.08313e-09    0.0409496 
         -50      35.3721 -3.66722e-08  2.95832e-09    0.0409442 
         -50      35.5546 -3.17857e-08 -1.90184e-09    0.0409388 
         -50      35.7377  -5.2516e-08 -3.90691e-09    0.0409334 
         -50      35.9211 -6.15804e-08 -4.92737e-09    0.0409279 
         -50      36.1052 -6.18971e-08 -5.26557e-09    0.0409224 
         -50      36.2895 -5.59687e-08 -5.18444e-09    0.0409169 
         -50      36.4745 -4.59234e-08 -4.91069e-09    0.0409114 
         -50      36.6598 -3.35736e-08 -4.63485e-09    0.0409059 
         -50      36.8457 -2.07177e-08 -4.52093e-09    0.0409003 
         -50      37.0321 -1.42376e-08 -4.66891e-09    0.0408947 
         -50      37.2188 -9.35548e-09 -4.81994e-09    0.0408891 
         -50      37.4062 -6.26374e-09 -5.03032e-09    0.0408835 
         -50      37.5938 -5.01353e-09 -5.33312e-09    0.0408779 
         -50      37.7821 -5.52196e-09 -5.74345e-09    0.0408722 
         -50      37.9707  -7.6058e-09 -6.25999e-09    0.0408666 
         -50      38.1599 -1.10084e-08 -6.87104e-09    0.0408609 
         -50      38.3496 -1.54143e-08 -7.55495e-09    0.0408552 
         -50      38.5396 -2.04715e-08 -8.28414e-09    0.0408495 
         -50      38.7302 -2.58278e-08 -9.02978e-09    0.0408437 
         -50      38.9211 -3.11196e-08 -9.76018e-09     0.040838 
         -50      39.1127 -3.60215e-08 -1.04476e-08    0.0408322 
         -50      39.3046 -4.02279e-08 -1.10659e-08    0.0408264 
         -50      39.4971 -4.34959e-08 -1.15958e-08    0.0408206 
         -50      39.6899 -4.56292e-08 -1.20231e-08    0.0408148 
         -50      39.8833 -4.65064e-08 -1.23425e-08     0.040809 
         -50      40.0772 -4.60724e-08 -1.25556e-08    0.0408031 
         -50      40.2714 -4.43513e-08 -1.26729e-08    0.0407973 
         -50      40.4663 -4.14373e-08 -1.27131e-08    0.0407914 
         -50      40.6615 -3.75045e-08 -1.27022e-08    0.0407855 
         -50      40.8573 -3.27834e-08 -1.26731e-08    0.0407796 
         -50      41.0534  -2.7576e-08 -1.26635e-08    0.0407736 
         -50      41.2501 -2.22151e-08 -1.27142e-08    0.0407677 
         -50      41.4473  -1.7077e-08  -1.2867e-08    0.0407617 
         -50      41.6448  -1.2549e-08 -1.31607e-08    0.0407557 
         -50      41.8429 -8.99702e-09 -1.36291e-08    0.0407497 
         -50      42.0414 -6.76175e-09 -1.42949e-08    0.0407437 
         -50      42.2405 -6.10691e-09 -1.51677e-08    0.0407377 
         -50      42.4399 -7.19739e-09 -1.62346e-08    0.0407317 
         -50      42.6399 -1.00563e-08 -1.74599e-08    0.0407256 
         -50      42.8404  -1.4518e-08 -1.87726e-08    0.0407196 
         -50      43.0412 -2.01766e-08 -2.00613e-08    0.0407135 
         -50      43.2426 -2.63509e-08 -2.11697e-08    0.0407074 
         -50      43.4444 -3.19936e-08 -2.18808e-08    0.0407013 
         -50      43.6467 -3.56628e-08 -2.19136e-08    0.0406952 
         -50      43.8494 -3.54211e-08 -2.09092e-08    0.0406891 
         -50      44.0527 -2.87763e-08 -1.84185e-08    0.0406829 
         -50      44.2563 -1.26823e-08  -1.4073e-08    0.0406768 
         -50      44.4606   2.1368e-09 -1.54948e-08    0.0406706 
         -50      44.6653  9.77437e-09 -1.58177e-08    0.0406644 
         -50      44.8704  1.12676e-08 -1.54333e-08    0.0406582 
         -50       45.076  7.78201e-09 -1.46679e-08     0.040652 
         -50       45.282  5.84275e-10 -1.37761e-08    0.0406458 
         -50      45.4886 -9.00633e-09 -1.29278e-08    0.0406396 
         -50      45.6955 -1.96081e-08 -1.22044e-08    0.0406334 
         -50       45.903 -2.98671e-08 -1.15853e-08    0.0406271 
         -50      46.1111 -3.84346e-08 -1.09434e-08    0.0406208 
         -50      46.3194  -4.4036e-08 -1.00362e-08    0.0406146 
         -50      46.5283 -4.55159e-08 -8.49533e-09    0.0406083 
         -50      46.7376  -4.1856e-08 -5.82604e-09     0.040602 
         -50      46.9475 -3.22219e-08 -1.38889e-09    0.0405957 
         -50      47.1577 -1.60338e-08  5.58737e-09    0.0405894 
         -50      47.3685  -9.0262e-09  8.72659e-09    0.0405831 
         -50      47.5798 -2.25355e-08  1.81417e-09    0.0405767 
         -50      47.7914 -3.09268e-08 -3.61498e-09    0.0405704 
         -50      48.0037 -3.56064e-08 -7.61227e-09    0.0405641 