Variables = x, y, u, v, p

Zone, I=20800, F=POINT
         -50            0            0            0    0.0403796 
         -50     0.000234 -1.21635e-08 -8.52614e-11    0.0403796 
         -50     0.000939 -5.23524e-08 -2.41349e-10    0.0403796 
         -50     0.002113 -1.30556e-07 -1.68417e-10    0.0403796 
         -50     0.003759 -2.62198e-07  6.23921e-10    0.0403796 
         -50     0.005872 -4.65059e-07  2.79797e-09    0.0403796 
         -50     0.008457 -7.58528e-07  7.18124e-09    0.0403796 
         -50      0.01151 -1.15987e-06  1.47259e-08    0.0403796 
         -50     0.015036 -1.68508e-06  2.65164e-08    0.0403796 
         -50     0.019031  -2.3463e-06  4.36975e-08    0.0403796 
         -50     0.023493 -3.15388e-06  6.74643e-08    0.0403796 
         -50     0.028429 -4.11922e-06  9.90863e-08    0.0403796 
         -50     0.033831 -5.25117e-06  1.39725e-07    0.0403796 
         -50     0.039706  -6.5619e-06  1.90583e-07    0.0403796 
         -50     0.046047 -8.05884e-06  2.52639e-07    0.0403796 
         -50     0.052863 -9.74763e-06  3.26869e-07    0.0403796 
         -50      0.06015 -1.16208e-05  4.13934e-07    0.0403796 
         -50       0.0679 -1.36584e-05  5.14236e-07    0.0403796 
         -50     0.076126 -1.58446e-05  6.28336e-07    0.0403796 
         -50     0.084816 -1.81818e-05   7.5656e-07    0.0403796 
         -50     0.093982 -2.06288e-05  8.98118e-07    0.0403796 
         -50     0.103611 -2.31675e-05   1.0522e-06    0.0403796 
         -50     0.113718 -2.57737e-05  1.21918e-06    0.0403796 
         -50     0.124286 -2.84139e-05   1.3983e-06    0.0403796 
         -50     0.135333 -3.10636e-05  1.58884e-06    0.0403796 
         -50      0.14685 -3.36924e-05  1.78925e-06    0.0403796 
         -50     0.158827 -3.62714e-05   1.9978e-06    0.0403796 
         -50     0.171284 -3.87805e-05  2.21338e-06    0.0403796 
         -50     0.184201 -4.11936e-05  2.43453e-06    0.0403796 
         -50     0.197599 -4.34952e-05  2.66102e-06    0.0403796 
         -50     0.211455 -4.56651e-05  2.89221e-06    0.0403796 
         -50     0.225792  -4.7694e-05    3.128e-06    0.0403796 
         -50       0.2406 -4.95723e-05  3.36616e-06    0.0403796 
         -50     0.255865 -5.12974e-05  3.60178e-06    0.0403796 
         -50     0.271613 -5.28708e-05  3.85964e-06    0.0403796 
         -50     0.287818 -5.42905e-05  4.14918e-06    0.0403796 
         -50     0.304506 -5.55624e-05  4.46918e-06    0.0403795 
         -50      0.32165 -5.66873e-05  4.81648e-06    0.0403795 
         -50     0.339278 -5.76692e-05  5.18748e-06    0.0403795 
         -50     0.357377 -5.85086e-05  5.57581e-06    0.0403795 
         -50      0.37593 -5.92052e-05  5.97268e-06    0.0403795 
         -50     0.394968 -5.97598e-05  6.36798e-06    0.0403795 
         -50     0.414461 -6.01705e-05  6.74831e-06    0.0403794 
         -50      0.43444  -6.0436e-05  7.10042e-06    0.0403794 
         -50     0.454872 -6.05536e-05  7.41068e-06    0.0403794 
         -50     0.475791 -6.05203e-05  7.67031e-06    0.0403794 
         -50     0.497163 -6.03326e-05  7.87787e-06    0.0403794 
         -50     0.519021  -5.9985e-05  8.04743e-06    0.0403794 
         -50      0.54135 -5.94707e-05  8.21632e-06    0.0403793 
         -50     0.564131 -5.87799e-05  8.45757e-06    0.0403793 
         -50       0.5874 -5.78957e-05  8.89636e-06    0.0403793 
         -50     0.611121 -5.68137e-05  9.69783e-06    0.0403793 
         -50      0.63533 -5.56182e-05  1.03847e-05    0.0403792 
         -50      0.65999 -5.41098e-05  1.09748e-05    0.0403792 
         -50     0.685139 -5.23319e-05  1.14852e-05    0.0403792 
         -50     0.710759 -5.03318e-05  1.19315e-05    0.0403791 
         -50     0.736828 -4.81578e-05  1.23287e-05    0.0403791 
         -50     0.763387  -4.5852e-05   1.2692e-05    0.0403791 
         -50     0.790396 -4.34618e-05  1.30346e-05    0.0403791 
         -50     0.817896 -4.10254e-05  1.33691e-05    0.0403791 
         -50     0.845843 -3.85855e-05  1.37054e-05    0.0403791 
         -50     0.874283 -3.61732e-05   1.4053e-05    0.0403791 
         -50      0.90317 -3.38231e-05  1.44177e-05    0.0403791 
         -50     0.932551 -3.15569e-05  1.48044e-05    0.0403791 
         -50     0.962401 -2.93967e-05  1.52148e-05    0.0403791 
         -50     0.992697 -2.73582e-05  1.56478e-05    0.0403792 
         -50      1.02349 -2.54455e-05  1.61012e-05    0.0403792 
         -50      1.05472 -2.36631e-05  1.65686e-05    0.0403792 
         -50      1.08645 -2.20028e-05  1.70431e-05    0.0403792 
         -50      1.11863 -2.04558e-05  1.75144e-05    0.0403792 
         -50       1.1513 -1.90029e-05  1.79721e-05    0.0403792 
         -50      1.18444 -1.76241e-05   1.8404e-05    0.0403792 
         -50      1.21802  -1.6296e-05  1.87979e-05    0.0403792 
         -50      1.25211 -1.49906e-05  1.91434e-05    0.0403793 
         -50      1.28663 -1.36856e-05  1.94314e-05    0.0403793 
         -50      1.32165 -1.23583e-05  1.96574e-05    0.0403794 
         -50      1.35712 -1.09983e-05  1.98218e-05    0.0403794 
         -50      1.39308 -9.60287e-06  1.99333e-05    0.0403795 
         -50      1.42951 -8.19041e-06  2.00106e-05    0.0403796 
         -50      1.46638 -6.80331e-06  2.00858e-05    0.0403796 
         -50      1.50375 -5.51204e-06   2.0208e-05    0.0403797 
         -50      1.54156 -4.18711e-06  2.03832e-05    0.0403797 
         -50      1.57987 -2.87177e-06  2.05245e-05    0.0403798 
         -50      1.61863 -1.58362e-06  2.06322e-05    0.0403799 
         -50      1.65788 -3.25855e-07  2.07087e-05      0.04038 
         -50      1.69757    8.945e-07  2.07559e-05    0.0403801 
         -50      1.73776  2.07481e-06   2.0776e-05    0.0403801 
         -50      1.77842  3.20982e-06  2.07708e-05    0.0403802 
         -50      1.81952  4.29471e-06  2.07422e-05    0.0403803 
         -50      1.86113  5.32776e-06  2.06916e-05    0.0403804 
         -50      1.90316  6.30421e-06  2.06209e-05    0.0403805 
         -50      1.94571  7.22295e-06  2.05312e-05    0.0403806 
         -50      1.98869  8.08027e-06  2.04241e-05    0.0403806 
         -50      2.03217  8.87583e-06  2.03006e-05    0.0403807 
         -50      2.07612  9.60757e-06  2.01618e-05    0.0403808 
         -50      2.12051  1.02742e-05  2.00089e-05    0.0403809 
         -50       2.1654  1.08764e-05  1.98426e-05     0.040381 
         -50      2.21073  1.14132e-05   1.9664e-05     0.040381 
         -50      2.25656  1.18862e-05  1.94735e-05    0.0403811 
         -50      2.30283  1.22956e-05  1.92721e-05    0.0403812 
         -50       2.3496  1.26435e-05  1.90602e-05    0.0403813 
         -50      2.39685  1.29314e-05  1.88385e-05    0.0403813 
         -50      2.44452  1.31614e-05  1.86078e-05    0.0403814 
         -50      2.49271  1.33365e-05  1.83684e-05    0.0403814 
         -50      2.54132  1.34594e-05  1.81212e-05    0.0403815 
         -50      2.59044  1.35335e-05  1.78666e-05    0.0403815 
         -50         2.64  1.35622e-05  1.76055e-05    0.0403815 
         -50      2.69006  1.35494e-05  1.73383e-05    0.0403816 
         -50      2.74056  1.34989e-05  1.70661e-05    0.0403816 
         -50      2.79156  1.34146e-05  1.67895e-05    0.0403816 
         -50      2.84304  1.33007e-05  1.65095e-05    0.0403816 
         -50      2.89494  1.31614e-05  1.62273e-05    0.0403816 
         -50      2.94735  1.30004e-05  1.59436e-05    0.0403816 
         -50       3.0002  1.28218e-05  1.56598e-05    0.0403816 
         -50      3.05355  1.26291e-05  1.53766e-05    0.0403816 
         -50      3.10733  1.24259e-05  1.50956e-05    0.0403815 
         -50      3.16163   1.2215e-05  1.48174e-05    0.0403815 
         -50      3.21639  1.19992e-05  1.45432e-05    0.0403814 
         -50      3.27158  1.17808e-05   1.4274e-05    0.0403814 
         -50      3.32729  1.15611e-05  1.40102e-05    0.0403813 
         -50      3.38342  1.13412e-05  1.37524e-05    0.0403812 
         -50      3.44007  1.11211e-05  1.35001e-05    0.0403812 
         -50      3.49714  1.09005e-05  1.32533e-05    0.0403811 
         -50      3.55472  1.06777e-05  1.30102e-05     0.040381 
         -50      3.61273  1.04508e-05  1.27691e-05    0.0403809 
         -50      3.67125   1.0216e-05  1.25267e-05    0.0403807 
         -50      3.73025   9.9692e-06  1.22786e-05    0.0403806 
         -50      3.78967  9.74062e-06  1.20401e-05    0.0403805 
         -50      3.84961  9.52477e-06   1.1814e-05    0.0403803 
         -50      3.90996  9.30899e-06  1.15933e-05    0.0403802 
         -50      3.97084   9.0856e-06  1.13706e-05      0.04038 
         -50      4.03214  8.86486e-06  1.11518e-05    0.0403798 
         -50      4.09395  8.64842e-06  1.09371e-05    0.0403796 
         -50      4.15624  8.43683e-06  1.07262e-05    0.0403794 
         -50      4.21895  8.23042e-06  1.05191e-05    0.0403792 
         -50      4.28217   8.0289e-06  1.03153e-05     0.040379 
         -50      4.34582  7.83246e-06   1.0115e-05    0.0403788 
         -50      4.40998   7.6406e-06  9.91787e-06    0.0403785 
         -50      4.47457  7.45335e-06  9.72434e-06    0.0403783 
         -50      4.53968  7.27011e-06  9.53409e-06     0.040378 
         -50      4.60525  7.09072e-06  9.34731e-06    0.0403778 
         -50      4.67125  6.91501e-06  9.16413e-06    0.0403775 
         -50      4.73777  6.74244e-06  8.98423e-06    0.0403772 
         -50       4.8047  6.57308e-06   8.8078e-06    0.0403769 
         -50      4.87216  6.40651e-06  8.63443e-06    0.0403766 
         -50      4.94003  6.24292e-06  8.46424e-06    0.0403762 
         -50      5.00843  6.08204e-06  8.29675e-06    0.0403759 
         -50      5.07724  5.92416e-06  8.13204e-06    0.0403756 
         -50      5.14658  5.76913e-06  7.96968e-06    0.0403752 
         -50      5.21639  5.61715e-06   7.8097e-06    0.0403748 
         -50      5.28661  5.46841e-06  7.65227e-06    0.0403745 
         -50      5.35736  5.32262e-06  7.49737e-06    0.0403741 
         -50      5.42852  5.17983e-06  7.34576e-06    0.0403737 
         -50      5.50021  5.03937e-06  7.19812e-06    0.0403732 
         -50      5.57231  4.90067e-06  7.05609e-06    0.0403728 
         -50      5.64493  4.76225e-06  6.92151e-06    0.0403724 
         -50      5.71803  4.63918e-06  6.77557e-06    0.0403719 
         -50      5.79154  4.51569e-06  6.63834e-06    0.0403714 
         -50      5.86558  4.39242e-06  6.50635e-06     0.040371 
         -50      5.94003  4.27046e-06  6.37761e-06    0.0403705 
         -50      6.01501  4.15053e-06  6.25056e-06      0.04037 
         -50       6.0904  4.03367e-06  6.12482e-06    0.0403695 
         -50      6.16632  3.92039e-06   6.0002e-06    0.0403689 
         -50      6.24271  3.81126e-06   5.8772e-06    0.0403684 
         -50       6.3195  3.70656e-06   5.7565e-06    0.0403678 
         -50      6.39683  3.60601e-06  5.63842e-06    0.0403673 
         -50      6.47457  3.50923e-06  5.52332e-06    0.0403667 
         -50      6.55284  3.41514e-06  5.41054e-06    0.0403661 
         -50      6.63152  3.32248e-06  5.29874e-06    0.0403655 
         -50      6.71073  3.22924e-06  5.18486e-06    0.0403649 
         -50      6.79034  3.13667e-06  5.07836e-06    0.0403643 
         -50      6.87049  3.04636e-06  4.97624e-06    0.0403636 
         -50      6.95111  2.95796e-06  4.87445e-06    0.0403629 
         -50      7.03214  2.87174e-06   4.7737e-06    0.0403623 
         -50       7.1137  2.78771e-06  4.67433e-06    0.0403616 
         -50      7.19566  2.70609e-06  4.57689e-06    0.0403609 
         -50      7.27816  2.62676e-06   4.4815e-06    0.0403602 
         -50      7.36106  2.54983e-06  4.38851e-06    0.0403594 
         -50      7.44451  2.47508e-06  4.29784e-06    0.0403587 
         -50      7.52842  2.40245e-06  4.20959e-06    0.0403579 
         -50      7.61273  2.33186e-06  4.12374e-06    0.0403572 
         -50      7.69758  2.26301e-06  4.04001e-06    0.0403564 
         -50      7.78283  2.19588e-06  3.95835e-06    0.0403556 
         -50      7.86862  2.13021e-06  3.87837e-06    0.0403548 
         -50      7.95481  2.06603e-06  3.79994e-06    0.0403539 
         -50      8.04155  2.00325e-06  3.72265e-06    0.0403531 
         -50      8.12868  1.94195e-06  3.64824e-06    0.0403522 
         -50      8.21635   1.8824e-06  3.57517e-06    0.0403514 
         -50      8.30449  1.82498e-06  3.50321e-06    0.0403505 
         -50      8.39303  1.76993e-06  3.43259e-06    0.0403496 
         -50      8.48211  1.71715e-06  3.36329e-06    0.0403486 
         -50      8.57159  1.66664e-06  3.29539e-06    0.0403477 
         -50      8.66161  1.61808e-06  3.22875e-06    0.0403468 
         -50      8.75203  1.57122e-06  3.16339e-06    0.0403458 
         -50      8.84299  1.52563e-06  3.09917e-06    0.0403448 
         -50      8.93443  1.48093e-06  3.03614e-06    0.0403438 
         -50      9.02626  1.43678e-06   2.9745e-06    0.0403428 
         -50      9.11863  1.39277e-06  2.91446e-06    0.0403418 
         -50      9.21139  1.34873e-06  2.85669e-06    0.0403407 
         -50      9.30471  1.30452e-06  2.80201e-06    0.0403397 
         -50      9.39841  1.26325e-06  2.74583e-06    0.0403386 
         -50      9.49267  1.22581e-06  2.68774e-06    0.0403375 
         -50      9.58739  1.18968e-06  2.63261e-06    0.0403364 
         -50      9.68251  1.15484e-06  2.57994e-06    0.0403352 
         -50      9.77817  1.12118e-06  2.52915e-06    0.0403341 
         -50      9.87422  1.08871e-06  2.47995e-06    0.0403329 
         -50      9.97083  1.05732e-06  2.43193e-06    0.0403317 
         -50      10.0678  1.02703e-06  2.38493e-06    0.0403305 
         -50      10.1654  9.97758e-07  2.33868e-06    0.0403293 
         -50      10.2633  9.69513e-07  2.29313e-06    0.0403281 
         -50      10.3618  9.42221e-07  2.24815e-06    0.0403268 
         -50      10.4607   9.1588e-07  2.20375e-06    0.0403256 
         -50      10.5601  8.90486e-07  2.15999e-06    0.0403243 
         -50        10.66  8.65976e-07  2.11687e-06     0.040323 
         -50      10.7603   8.4237e-07  2.07453e-06    0.0403217 
         -50      10.8611  8.19611e-07  2.03304e-06    0.0403203 
         -50      10.9623   7.9772e-07  1.99256e-06     0.040319 
         -50      11.0641  7.76643e-07  1.95318e-06    0.0403176 
         -50      11.1663  7.56381e-07  1.91504e-06    0.0403162 
         -50       11.269  7.36928e-07  1.87829e-06    0.0403148 
         -50      11.3721  7.18231e-07  1.84295e-06    0.0403133 
         -50      11.4757  7.00295e-07  1.80913e-06    0.0403119 
         -50      11.5798   6.8306e-07  1.77679e-06    0.0403104 
         -50      11.6844  6.66517e-07  1.74593e-06    0.0403089 
         -50      11.7894  6.50597e-07  1.71638e-06    0.0403074 
         -50       11.895  6.35258e-07  1.68796e-06    0.0403059 
         -50      12.0009  6.20451e-07  1.66041e-06    0.0403043 
         -50      12.1073  6.06075e-07  1.63328e-06    0.0403028 
         -50      12.2142  5.92064e-07   1.6061e-06    0.0403012 
         -50      12.3216  5.78289e-07  1.57816e-06    0.0402996 
         -50      12.4294  5.64648e-07   1.5487e-06     0.040298 
         -50      12.5378  5.50972e-07   1.5167e-06    0.0402963 
         -50      12.6465  5.34473e-07  1.48522e-06    0.0402947 
         -50      12.7558  5.09877e-07  1.45579e-06     0.040293 
         -50      12.8656   5.0544e-07  1.43053e-06    0.0402913 
         -50      12.9757  4.96878e-07  1.40698e-06    0.0402896 
         -50      13.0864  4.84619e-07  1.38852e-06    0.0402878 
         -50      13.1975  4.73222e-07  1.36791e-06     0.040286 
         -50      13.3092  4.62507e-07  1.34584e-06    0.0402843 
         -50      13.4212  4.52368e-07  1.32293e-06    0.0402825 
         -50      13.5338  4.42705e-07  1.29962e-06    0.0402806 
         -50      13.6468  4.33472e-07  1.27626e-06    0.0402788 
         -50      13.7603  4.24644e-07  1.25315e-06    0.0402769 
         -50      13.8743  4.16191e-07  1.23043e-06     0.040275 
         -50      13.9886  4.08123e-07  1.20825e-06    0.0402731 
         -50      14.1036  4.00429e-07  1.18664e-06    0.0402712 
         -50      14.2189  3.93124e-07  1.16564e-06    0.0402692 
         -50      14.3348  3.86197e-07  1.14523e-06    0.0402672 
         -50       14.451  3.79654e-07  1.12538e-06    0.0402653 
         -50      14.5678  3.73472e-07  1.10603e-06    0.0402632 
         -50      14.6851  3.67634e-07  1.08714e-06    0.0402612 
         -50      14.8028  3.62111e-07  1.06867e-06    0.0402591 
         -50       14.921  3.56852e-07  1.05057e-06    0.0402571 
         -50      15.0396  3.51817e-07  1.03283e-06     0.040255 
         -50      15.1588  3.46943e-07  1.01542e-06    0.0402528 
         -50      15.2783  3.42182e-07  9.98375e-07    0.0402507 
         -50      15.3984  3.37477e-07  9.81686e-07    0.0402485 
         -50       15.519  3.32796e-07  9.65403e-07    0.0402463 
         -50        15.64  3.28127e-07   9.4958e-07    0.0402441 
         -50      15.7615  3.23479e-07   9.3423e-07    0.0402419 
         -50      15.8834  3.18922e-07  9.19407e-07    0.0402396 
         -50      16.0058  3.14569e-07  9.05088e-07    0.0402373 
         -50      16.1286  3.10626e-07  8.91258e-07     0.040235 
         -50       16.252   3.0738e-07  8.77792e-07    0.0402327 
         -50      16.3759  3.05246e-07  8.64519e-07    0.0402303 
         -50      16.5002  3.04774e-07  8.51152e-07     0.040228 
         -50       16.625  3.06683e-07  8.37234e-07    0.0402256 
         -50      16.7501  3.01742e-07  8.21427e-07    0.0402231 
         -50      16.8759  2.90149e-07  8.05874e-07    0.0402207 
         -50       17.002  2.83312e-07  7.92024e-07    0.0402182 
         -50      17.1287  2.79839e-07  7.79365e-07    0.0402157 
         -50      17.2557  2.78602e-07  7.67528e-07    0.0402132 
         -50      17.3834  2.78686e-07  7.56192e-07    0.0402107 
         -50      17.5115   2.7938e-07   7.4514e-07    0.0402081 
         -50      17.6399  2.80154e-07  7.34222e-07    0.0402055 
         -50       17.769  2.80633e-07   7.2332e-07    0.0402029 
         -50      17.8984  2.80579e-07  7.12399e-07    0.0402003 
         -50      18.0284  2.79873e-07  7.01425e-07    0.0401977 
         -50      18.1587  2.78488e-07  6.90434e-07     0.040195 
         -50      18.2896  2.76473e-07  6.79446e-07    0.0401923 
         -50       18.421  2.73937e-07  6.68525e-07    0.0401895 
         -50      18.5528  2.71031e-07  6.57739e-07    0.0401868 
         -50      18.6851  2.67921e-07  6.47136e-07     0.040184 
         -50      18.8178  2.64789e-07  6.36791e-07    0.0401812 
         -50      18.9511  2.61801e-07  6.26739e-07    0.0401784 
         -50      19.0847  2.59112e-07  6.17036e-07    0.0401756 
         -50      19.2189  2.56839e-07   6.0769e-07    0.0401727 
         -50      19.3535  2.55062e-07  5.98725e-07    0.0401698 
         -50      19.4886  2.53809e-07  5.90117e-07    0.0401669 
         -50      19.6242  2.53057e-07  5.81849e-07    0.0401639 
         -50      19.7602  2.52723e-07  5.73889e-07     0.040161 
         -50      19.8968  2.52665e-07  5.66174e-07     0.040158 
         -50      20.0337  2.52684e-07  5.58664e-07     0.040155 
         -50      20.1712  2.52527e-07  5.51293e-07    0.0401519 
         -50      20.3091  2.50784e-07  5.44015e-07    0.0401488 
         -50      20.4475  2.45745e-07  5.37556e-07    0.0401458 
         -50      20.5864  2.42027e-07  5.32014e-07    0.0401426 
         -50      20.7257  2.39834e-07  5.26587e-07    0.0401395 
         -50      20.8655  2.39347e-07  5.20183e-07    0.0401363 
         -50      21.0058  2.40718e-07  5.11412e-07    0.0401332 
         -50      21.1465  2.44073e-07  4.98475e-07    0.0401299 
         -50      21.2877  2.51456e-07   4.8943e-07    0.0401267 
         -50      21.4294  2.53853e-07  4.87309e-07    0.0401234 
         -50      21.5716  2.50805e-07  4.82113e-07    0.0401202 
         -50      21.7142  2.46876e-07  4.76304e-07    0.0401169 
         -50      21.8573   2.4417e-07  4.71398e-07    0.0401135 
         -50      22.0008  2.40963e-07  4.66599e-07    0.0401102 
         -50      22.1449  2.35434e-07  4.58941e-07    0.0401068 
         -50      22.2893  2.32412e-07  4.51264e-07    0.0401034 
         -50      22.4344   2.3164e-07  4.43833e-07    0.0400999 
         -50      22.5797  2.32726e-07  4.36833e-07    0.0400965 
         -50      22.7257  2.35184e-07   4.3034e-07     0.040093 
         -50      22.8721  2.38482e-07  4.24377e-07    0.0400895 
         -50      23.0189  2.42078e-07  4.18904e-07    0.0400859 
         -50      23.1663  2.45471e-07  4.13826e-07    0.0400824 
         -50       23.314  2.48214e-07  4.09033e-07    0.0400788 
         -50      23.4623   2.4996e-07   4.0438e-07    0.0400752 
         -50       23.611  2.50466e-07  3.99735e-07    0.0400716 
         -50      23.7602  2.49619e-07  3.94954e-07    0.0400679 
         -50        23.91  2.47436e-07  3.89928e-07    0.0400642 
         -50        24.06  2.44073e-07  3.84575e-07    0.0400605 
         -50      24.2107  2.39804e-07  3.78846e-07    0.0400568 
         -50      24.3617  2.35025e-07  3.72757e-07     0.040053 
         -50      24.5133  2.30205e-07  3.66369e-07    0.0400492 
         -50      24.6653  2.25879e-07  3.59832e-07    0.0400454 
         -50      24.8178  2.22578e-07  3.53352e-07    0.0400416 
         -50      24.9708  2.20799e-07  3.47237e-07    0.0400377 
         -50      25.1242  2.20924e-07  3.41884e-07    0.0400339 
         -50      25.2781  2.23149e-07  3.37771e-07      0.04003 
         -50      25.4324   2.2739e-07  3.35491e-07     0.040026 
         -50      25.5873  2.35804e-07   3.2855e-07    0.0400221 
         -50      25.7426  2.38356e-07  3.24159e-07    0.0400181 
         -50      25.8984  2.36796e-07  3.21525e-07    0.0400141 
         -50      26.0546  2.33157e-07   3.1952e-07    0.0400101 
         -50      26.2114  2.28974e-07   3.1738e-07     0.040006 
         -50      26.3686  2.25229e-07  3.14701e-07     0.040002 
         -50      26.5262  2.22335e-07  3.11393e-07    0.0399979 
         -50      26.6844  2.20216e-07  3.07597e-07    0.0399937 
         -50      26.8429  2.18484e-07  3.03605e-07    0.0399896 
         -50       27.002  2.16679e-07  2.99701e-07    0.0399854 
         -50      27.1615   2.1464e-07  2.96018e-07    0.0399812 
         -50      27.3216  2.12939e-07  2.92314e-07     0.039977 
         -50      27.4821   2.1346e-07  2.87749e-07    0.0399728 
         -50       27.643  2.13393e-07  2.82884e-07    0.0399685 
         -50      27.8044  2.11959e-07  2.78795e-07    0.0399642 
         -50      27.9663   2.1136e-07    2.749e-07    0.0399599 
         -50      28.1287  2.11347e-07  2.71203e-07    0.0399556 
         -50      28.2914  2.11706e-07  2.67717e-07    0.0399512 
         -50      28.4548  2.12257e-07  2.64436e-07    0.0399468 
         -50      28.6185   2.1285e-07  2.61362e-07    0.0399424 
         -50      28.7828  2.13365e-07  2.58482e-07     0.039938 
         -50      28.9475  2.13708e-07  2.55788e-07    0.0399335 
         -50      29.1126   2.1381e-07  2.53267e-07    0.0399291 
         -50      29.2784  2.13626e-07  2.50899e-07    0.0399246 
         -50      29.4444  2.13128e-07  2.48668e-07      0.03992 
         -50       29.611  2.12308e-07   2.4655e-07    0.0399155 
         -50       29.778  2.11174e-07  2.44527e-07    0.0399109 
         -50      29.9456  2.09746e-07  2.42573e-07    0.0399063 
         -50      30.1137  2.08056e-07  2.40667e-07    0.0399017 
         -50      30.2821  2.06147e-07  2.38787e-07    0.0398971 
         -50      30.4511  2.04066e-07  2.36908e-07    0.0398924 
         -50      30.6204  2.01868e-07  2.35012e-07    0.0398877 
         -50      30.7903  1.99608e-07  2.33074e-07     0.039883 
         -50      30.9606  1.97346e-07   2.3108e-07    0.0398783 
         -50      31.1315  1.95137e-07  2.29009e-07    0.0398736 
         -50      31.3028  1.93036e-07   2.2685e-07    0.0398688 
         -50      31.4745  1.91096e-07  2.24592e-07     0.039864 
         -50      31.6468  1.89356e-07  2.22224e-07    0.0398592 
         -50      31.8194  1.87857e-07  2.19744e-07    0.0398544 
         -50      31.9926  1.86622e-07  2.17147e-07    0.0398495 
         -50      32.1662   1.8567e-07  2.14439e-07    0.0398446 
         -50      32.3404  1.85004e-07  2.11622e-07    0.0398397 
         -50      32.5149  1.84617e-07  2.08712e-07    0.0398348 
         -50        32.69  1.84485e-07  2.05719e-07    0.0398299 
         -50      32.8655   1.8457e-07  2.02665e-07    0.0398249 
         -50      33.0414  1.84819e-07  1.99578e-07    0.0398199 
         -50       33.218  1.85161e-07  1.96482e-07    0.0398149 
         -50      33.3948  1.85509e-07  1.93415e-07    0.0398099 
         -50      33.5723  1.85758e-07  1.90412e-07    0.0398048 
         -50        33.75  1.85787e-07  1.87522e-07    0.0397998 
         -50      33.9284  1.85456e-07  1.84788e-07    0.0397947 
         -50      34.1073  1.84608e-07  1.82267e-07    0.0397896 
         -50      34.2865  1.83071e-07  1.80017e-07    0.0397844 
         -50      34.4663  1.80656e-07  1.78096e-07    0.0397793 
         -50      34.6465   1.7716e-07  1.76575e-07    0.0397741 
         -50      34.8272  1.72363e-07  1.75518e-07    0.0397689 
         -50      35.0083  1.70075e-07  1.74159e-07    0.0397637 
         -50        35.19  1.71108e-07  1.72713e-07    0.0397585 
         -50      35.3721  1.73918e-07  1.71665e-07    0.0397532 
         -50      35.5546  1.78275e-07  1.71132e-07     0.039748 
         -50      35.7377  1.76364e-07   1.7194e-07    0.0397427 
         -50      35.9211  1.74433e-07  1.72066e-07    0.0397374 
         -50      36.1052  1.72552e-07  1.71681e-07    0.0397321 
         -50      36.2895  1.70779e-07   1.7092e-07    0.0397267 
         -50      36.4745  1.69142e-07  1.69884e-07    0.0397214 
         -50      36.6598  1.67658e-07  1.68648e-07     0.039716 
         -50      36.8457  1.66499e-07   1.6717e-07    0.0397106 
         -50      37.0321  1.68305e-07  1.64235e-07    0.0397052 
         -50      37.2188  1.69737e-07   1.6134e-07    0.0396997 
         -50      37.4062  1.70764e-07  1.58495e-07    0.0396943 
         -50      37.5938  1.71373e-07  1.55718e-07    0.0396888 
         -50      37.7821   1.7158e-07  1.53019e-07    0.0396833 
         -50      37.9707  1.71415e-07   1.5042e-07    0.0396778 
         -50      38.1599  1.70921e-07  1.47933e-07    0.0396723 
         -50      38.3496  1.70154e-07  1.45576e-07    0.0396668 
         -50      38.5396  1.69177e-07  1.43365e-07    0.0396612 
         -50      38.7302  1.68052e-07   1.4131e-07    0.0396557 
         -50      38.9211  1.66847e-07  1.39426e-07    0.0396501 
         -50      39.1127  1.65622e-07  1.37717e-07    0.0396445 
         -50      39.3046  1.64438e-07  1.36192e-07    0.0396388 
         -50      39.4971  1.63343e-07  1.34852e-07    0.0396332 
         -50      39.6899  1.62381e-07  1.33697e-07    0.0396276 
         -50      39.8833   1.6158e-07  1.32721e-07    0.0396219 
         -50      40.0772  1.60963e-07  1.31917e-07    0.0396162 
         -50      40.2714  1.60534e-07  1.31274e-07    0.0396105 
         -50      40.4663  1.60288e-07  1.30777e-07    0.0396048 
         -50      40.6615  1.60206e-07  1.30407e-07    0.0395991 
         -50      40.8573  1.60255e-07  1.30143e-07    0.0395933 
         -50      41.0534  1.60391e-07  1.29961e-07    0.0395875 
         -50      41.2501  1.60562e-07  1.29835e-07    0.0395818 
         -50      41.4473  1.60704e-07  1.29738e-07     0.039576 
         -50      41.6448  1.60748e-07  1.29641e-07    0.0395702 
         -50      41.8429  1.60623e-07  1.29516e-07    0.0395644 
         -50      42.0414  1.60258e-07  1.29334e-07    0.0395585 
         -50      42.2405  1.59585e-07  1.29069e-07    0.0395527 
         -50      42.4399  1.58549e-07  1.28701e-07    0.0395468 
         -50      42.6399  1.57103e-07  1.28208e-07    0.0395409 
         -50      42.8404  1.55227e-07  1.27579e-07    0.0395351 
         -50      43.0412  1.52929e-07   1.2681e-07    0.0395292 
         -50      43.2426  1.50245e-07  1.25903e-07    0.0395232 
         -50      43.4444  1.47263e-07  1.24875e-07    0.0395173 
         -50      43.6467  1.44116e-07  1.23753e-07    0.0395114 
         -50      43.8494  1.41008e-07  1.22582e-07    0.0395054 
         -50      44.0527  1.38205e-07  1.21422e-07    0.0394995 
         -50      44.2563  1.36131e-07  1.20336e-07    0.0394935 
         -50      44.4606  1.37529e-07  1.18691e-07    0.0394875 
         -50      44.6653  1.39256e-07   1.1747e-07    0.0394815 
         -50      44.8704  1.40938e-07  1.16553e-07    0.0394755 
         -50       45.076  1.42277e-07   1.1585e-07    0.0394695 
         -50       45.282  1.43039e-07  1.15304e-07    0.0394634 
         -50      45.4886  1.43077e-07  1.14881e-07    0.0394574 
         -50      45.6955  1.42331e-07  1.14574e-07    0.0394513 
         -50       45.903  1.40837e-07  1.14394e-07    0.0394452 
         -50      46.1111  1.38732e-07  1.14372e-07    0.0394392 
         -50      46.3194  1.36266e-07  1.14556e-07    0.0394331 
         -50      46.5283  1.33797e-07  1.15003e-07     0.039427 
         -50      46.7376  1.31809e-07  1.15783e-07    0.0394209 
         -50      46.9475  1.30908e-07   1.1697e-07    0.0394147 
         -50      47.1577  1.31832e-07   1.1864e-07    0.0394086 
         -50      47.3685  1.32498e-07  1.18751e-07    0.0394025 
         -50      47.5798  1.29279e-07  1.15727e-07    0.0393963 
         -50      47.7914  1.26303e-07  1.13117e-07    0.0393902 
         -50      48.0037  1.23664e-07  1.10944e-07     0.039384 