Variables = x, y, u, v, p

Zone, I=20800, F=POINT
         -50            0            0            0  -0.00447324 
         -50     0.000234  5.88851e-08  8.60112e-11  -0.00447324 
         -50     0.000939  2.33573e-07  3.65923e-10  -0.00447324 
         -50     0.002113  5.15866e-07  9.02652e-10  -0.00447324 
         -50     0.003759  8.95062e-07  1.80804e-09  -0.00447324 
         -50     0.005872  1.35671e-06  3.24041e-09  -0.00447324 
         -50     0.008457   1.8885e-06   5.4183e-09  -0.00447324 
         -50      0.01151   2.4775e-06  8.60761e-09  -0.00447324 
         -50     0.015036  3.11437e-06  1.31329e-08  -0.00447324 
         -50     0.019031  3.78936e-06  1.93496e-08  -0.00447324 
         -50     0.023493  4.49307e-06  2.76428e-08  -0.00447324 
         -50     0.028429  5.21543e-06  3.84367e-08  -0.00447324 
         -50     0.033831  5.94059e-06  5.21418e-08  -0.00447324 
         -50     0.039706  6.65114e-06  6.92291e-08  -0.00447324 
         -50     0.046047  7.32622e-06  9.01746e-08  -0.00447323 
         -50     0.052863  7.94922e-06  1.15571e-07  -0.00447323 
         -50      0.06015  8.50945e-06  1.46034e-07  -0.00447323 
         -50       0.0679  9.00466e-06  1.82149e-07  -0.00447323 
         -50     0.076126  9.43096e-06   2.2437e-07  -0.00447323 
         -50     0.084816   9.7517e-06  2.72362e-07  -0.00447323 
         -50     0.093982  9.99186e-06  3.28788e-07  -0.00447323 
         -50     0.103611  1.01337e-05   3.9405e-07  -0.00447323 
         -50     0.113718  1.01778e-05  4.67264e-07  -0.00447323 
         -50     0.124286  1.01267e-05  5.48373e-07  -0.00447323 
         -50     0.135333  9.98421e-06  6.38468e-07  -0.00447323 
         -50      0.14685  9.75591e-06  7.38929e-07  -0.00447322 
         -50     0.158827   9.4492e-06  8.51026e-07  -0.00447322 
         -50     0.171284  9.07214e-06  9.75572e-07  -0.00447322 
         -50     0.184201  8.63527e-06  1.11168e-06  -0.00447322 
         -50     0.197599  8.14911e-06  1.25739e-06  -0.00447322 
         -50     0.211455  7.62665e-06  1.40935e-06  -0.00447322 
         -50     0.225792  7.07954e-06  1.56584e-06  -0.00447322 
         -50       0.2406  6.51985e-06  1.72998e-06  -0.00447322 
         -50     0.255865  5.95584e-06  1.90235e-06  -0.00447322 
         -50     0.271613  5.40329e-06  2.05136e-06  -0.00447322 
         -50     0.287818  4.87337e-06  2.18525e-06  -0.00447322 
         -50     0.304506  4.36776e-06  2.30867e-06  -0.00447321 
         -50      0.32165  3.89003e-06  2.42884e-06  -0.00447321 
         -50     0.339278  3.44254e-06  2.55528e-06  -0.00447321 
         -50     0.357377  3.02923e-06  2.69754e-06  -0.00447321 
         -50      0.37593  2.65449e-06  2.86368e-06  -0.00447321 
         -50     0.394968   2.3223e-06  3.05896e-06  -0.00447321 
         -50     0.414461  2.03831e-06  3.28293e-06  -0.00447321 
         -50      0.43444  1.80769e-06  3.52927e-06  -0.00447322 
         -50     0.454872  1.63667e-06  3.78344e-06  -0.00447322 
         -50     0.475791  1.53082e-06  4.02438e-06  -0.00447322 
         -50     0.497163  1.49565e-06  4.22466e-06  -0.00447322 
         -50     0.519021  1.53524e-06  4.35568e-06  -0.00447321 
         -50      0.54135  1.65162e-06  4.39326e-06   -0.0044732 
         -50     0.564131   1.8431e-06  4.32893e-06  -0.00447318 
         -50       0.5874  2.10324e-06  4.18483e-06  -0.00447316 
         -50     0.611121  2.40967e-06  4.07585e-06  -0.00447314 
         -50      0.63533  2.68122e-06  4.42405e-06  -0.00447311 
         -50      0.65999     2.99e-06  4.79655e-06  -0.00447309 
         -50     0.685139  3.32133e-06  5.18976e-06  -0.00447307 
         -50     0.710759  3.66005e-06  5.59807e-06  -0.00447307 
         -50     0.736828  3.99134e-06  6.01472e-06  -0.00447306 
         -50     0.763387  4.30192e-06  6.43311e-06  -0.00447307 
         -50     0.790396  4.57848e-06   6.8448e-06  -0.00447308 
         -50     0.817896  4.80984e-06  7.24222e-06  -0.00447309 
         -50     0.845843  4.98556e-06  7.61658e-06   -0.0044731 
         -50     0.874283   5.0976e-06  7.96066e-06  -0.00447311 
         -50      0.90317   5.1395e-06  8.26677e-06  -0.00447313 
         -50     0.932551  5.10723e-06  8.52935e-06  -0.00447315 
         -50     0.962401  4.99907e-06   8.7435e-06  -0.00447316 
         -50     0.992697  4.81602e-06  8.90631e-06  -0.00447317 
         -50      1.02349  4.56124e-06  9.01731e-06  -0.00447319 
         -50      1.05472  4.24117e-06  9.07799e-06   -0.0044732 
         -50      1.08645  3.86378e-06  9.09262e-06   -0.0044732 
         -50      1.11863  3.44049e-06  9.06789e-06  -0.00447321 
         -50       1.1513  2.98334e-06  9.01294e-06  -0.00447321 
         -50      1.18444  2.50689e-06  8.93913e-06  -0.00447321 
         -50      1.21802  2.02653e-06  8.85945e-06   -0.0044732 
         -50      1.25211  1.55644e-06  8.78744e-06   -0.0044732 
         -50      1.28663  1.11122e-06  8.73643e-06  -0.00447319 
         -50      1.32165  7.01476e-07  8.71751e-06  -0.00447318 
         -50      1.35712  3.35095e-07  8.73773e-06  -0.00447318 
         -50      1.39308  1.26233e-08  8.79728e-06  -0.00447317 
         -50      1.42951 -2.72951e-07  8.88619e-06  -0.00447317 
         -50      1.46638 -5.39933e-07  8.98011e-06  -0.00447318 
         -50      1.50375 -8.21718e-07  9.03571e-06   -0.0044732 
         -50      1.54156 -1.04718e-06  9.01257e-06   -0.0044732 
         -50      1.57987 -1.25486e-06  8.98355e-06  -0.00447321 
         -50      1.61863 -1.45028e-06   8.9505e-06  -0.00447322 
         -50      1.65788 -1.63381e-06  8.91268e-06  -0.00447322 
         -50      1.69757 -1.80524e-06  8.86957e-06  -0.00447323 
         -50      1.73776  -1.9649e-06  8.82062e-06  -0.00447324 
         -50      1.77842 -2.11274e-06  8.76546e-06  -0.00447325 
         -50      1.81952 -2.24869e-06  8.70389e-06  -0.00447327 
         -50      1.86113 -2.37306e-06  8.63561e-06  -0.00447328 
         -50      1.90316 -2.48571e-06  8.56066e-06  -0.00447329 
         -50      1.94571 -2.58692e-06  8.47893e-06   -0.0044733 
         -50      1.98869 -2.67661e-06  8.39066e-06  -0.00447332 
         -50      2.03217 -2.75506e-06  8.29588e-06  -0.00447333 
         -50      2.07612 -2.82232e-06  8.19494e-06  -0.00447334 
         -50      2.12051 -2.87853e-06  8.08825e-06  -0.00447336 
         -50       2.1654 -2.92397e-06  7.97603e-06  -0.00447337 
         -50      2.21073 -2.95881e-06   7.8589e-06  -0.00447338 
         -50      2.25656  -2.9834e-06  7.73716e-06   -0.0044734 
         -50      2.30283 -2.99801e-06  7.61151e-06  -0.00447341 
         -50       2.3496 -3.00306e-06  7.48229e-06  -0.00447342 
         -50      2.39685 -2.99896e-06   7.3501e-06  -0.00447343 
         -50      2.44452 -2.98622e-06  7.21561e-06  -0.00447344 
         -50      2.49271 -2.96536e-06  7.07908e-06  -0.00447345 
         -50      2.54132 -2.93704e-06  6.94123e-06  -0.00447346 
         -50      2.59044 -2.90189e-06  6.80225e-06  -0.00447347 
         -50         2.64 -2.86067e-06  6.66276e-06  -0.00447348 
         -50      2.69006 -2.81413e-06  6.52285e-06  -0.00447348 
         -50      2.74056 -2.76316e-06  6.38301e-06  -0.00447349 
         -50      2.79156 -2.70855e-06  6.24318e-06  -0.00447349 
         -50      2.84304 -2.65126e-06  6.10361e-06   -0.0044735 
         -50      2.89494 -2.59225e-06  5.96442e-06   -0.0044735 
         -50      2.94735 -2.53235e-06  5.82536e-06  -0.00447351 
         -50       3.0002 -2.47255e-06  5.68657e-06  -0.00447351 
         -50      3.05355  -2.4136e-06  5.54769e-06  -0.00447351 
         -50      3.10733 -2.35636e-06  5.40877e-06  -0.00447351 
         -50      3.16163  -2.3014e-06  5.26943e-06  -0.00447351 
         -50      3.21639 -2.24924e-06  5.12966e-06  -0.00447351 
         -50      3.27158 -2.20023e-06  4.98949e-06  -0.00447351 
         -50      3.32729 -2.15429e-06   4.8488e-06   -0.0044735 
         -50      3.38342 -2.11119e-06  4.70806e-06   -0.0044735 
         -50      3.44007 -2.07016e-06  4.56757e-06   -0.0044735 
         -50      3.49714 -2.03007e-06  4.42843e-06  -0.00447349 
         -50      3.55472 -1.98908e-06  4.29172e-06  -0.00447348 
         -50      3.61273 -1.94481e-06  4.15954e-06  -0.00447347 
         -50      3.67125 -1.89393e-06  4.03424e-06  -0.00447346 
         -50      3.73025 -1.83229e-06  3.91935e-06  -0.00447345 
         -50      3.78967  -1.7768e-06  3.80625e-06  -0.00447344 
         -50      3.84961 -1.72746e-06  3.68873e-06  -0.00447343 
         -50      3.90996 -1.67619e-06  3.57174e-06  -0.00447341 
         -50      3.97084 -1.63762e-06  3.45845e-06   -0.0044734 
         -50      4.03214 -1.59975e-06  3.34671e-06  -0.00447338 
         -50      4.09395 -1.56056e-06  3.23631e-06  -0.00447337 
         -50      4.15624  -1.5203e-06  3.12766e-06  -0.00447335 
         -50      4.21895 -1.47922e-06  3.02106e-06  -0.00447333 
         -50      4.28217 -1.43749e-06  2.91654e-06  -0.00447331 
         -50      4.34582  -1.3954e-06  2.81436e-06  -0.00447328 
         -50      4.40998 -1.35308e-06  2.71442e-06  -0.00447326 
         -50      4.47457 -1.31077e-06  2.61691e-06  -0.00447324 
         -50      4.53968 -1.26855e-06  2.52164e-06  -0.00447321 
         -50      4.60525 -1.22658e-06  2.42864e-06  -0.00447318 
         -50      4.67125 -1.18495e-06  2.33793e-06  -0.00447315 
         -50      4.73777 -1.14366e-06  2.24928e-06  -0.00447313 
         -50       4.8047 -1.10278e-06  2.16274e-06   -0.0044731 
         -50      4.87216 -1.06223e-06   2.0781e-06  -0.00447306 
         -50      4.94003 -1.02208e-06  1.99544e-06  -0.00447303 
         -50      5.00843 -9.82238e-07  1.91455e-06    -0.004473 
         -50      5.07724 -9.42787e-07  1.83555e-06  -0.00447296 
         -50      5.14658 -9.03728e-07   1.7583e-06  -0.00447292 
         -50      5.21639 -8.65242e-07  1.68291e-06  -0.00447288 
         -50      5.28661 -8.27627e-07  1.60949e-06  -0.00447284 
         -50      5.35736 -7.91258e-07  1.53802e-06   -0.0044728 
         -50      5.42852 -7.56845e-07  1.46876e-06  -0.00447276 
         -50      5.50021 -7.25266e-07  1.40176e-06  -0.00447272 
         -50      5.57231 -6.97854e-07  1.33731e-06  -0.00447267 
         -50      5.64493 -6.76277e-07  1.27554e-06  -0.00447262 
         -50      5.71803 -6.40375e-07  1.21338e-06  -0.00447258 
         -50      5.79154 -6.08338e-07  1.15329e-06  -0.00447253 
         -50      5.86558 -5.79296e-07  1.09468e-06  -0.00447247 
         -50      5.94003 -5.52285e-07  1.03745e-06  -0.00447242 
         -50      6.01501 -5.26181e-07  9.81487e-07  -0.00447237 
         -50       6.0904 -5.00004e-07  9.27019e-07  -0.00447231 
         -50      6.16632 -4.72862e-07  8.74126e-07  -0.00447226 
         -50      6.24271 -4.44205e-07  8.23007e-07   -0.0044722 
         -50       6.3195 -4.13864e-07  7.73768e-07  -0.00447214 
         -50      6.39683 -3.82058e-07  7.26255e-07  -0.00447208 
         -50      6.47457  -3.4963e-07  6.80287e-07  -0.00447202 
         -50      6.55284 -3.17898e-07  6.35305e-07  -0.00447195 
         -50      6.63152 -2.88883e-07  5.90659e-07  -0.00447189 
         -50      6.71073 -2.65123e-07  5.45301e-07  -0.00447182 
         -50      6.79034 -2.42362e-07  5.03534e-07  -0.00447175 
         -50      6.87049  -2.1913e-07   4.6372e-07  -0.00447168 
         -50      6.95111 -1.97418e-07  4.24224e-07  -0.00447161 
         -50      7.03214 -1.77184e-07  3.85392e-07  -0.00447154 
         -50       7.1137 -1.58305e-07  3.47411e-07  -0.00447146 
         -50      7.19566 -1.40699e-07  3.10532e-07  -0.00447139 
         -50      7.27816  -1.2421e-07  2.74835e-07  -0.00447131 
         -50      7.36106 -1.08721e-07  2.40469e-07  -0.00447123 
         -50      7.44451 -9.40528e-08   2.0743e-07  -0.00447115 
         -50      7.52842  -8.0042e-08  1.75753e-07  -0.00447107 
         -50      7.61273 -6.64952e-08   1.4543e-07  -0.00447098 
         -50      7.69758 -5.31427e-08  1.16328e-07   -0.0044709 
         -50      7.78283 -3.96943e-08    8.836e-08  -0.00447081 
         -50      7.86862 -2.57255e-08   6.1278e-08  -0.00447072 
         -50      7.95481 -1.07318e-08   3.4843e-08  -0.00447063 
         -50      8.04155  6.00359e-09  8.62907e-09  -0.00447054 
         -50      8.12868  1.86497e-08 -1.59012e-08  -0.00447044 
         -50      8.21635  2.95862e-08 -3.98356e-08  -0.00447035 
         -50      8.30449  4.05878e-08 -6.30399e-08  -0.00447025 
         -50      8.39303  5.17804e-08 -8.50549e-08  -0.00447015 
         -50      8.48211  6.32063e-08  -1.0568e-07  -0.00447005 
         -50      8.57159  7.47693e-08 -1.24835e-07  -0.00446995 
         -50      8.66161  8.63196e-08 -1.42666e-07  -0.00446984 
         -50      8.75203  9.76013e-08  -1.5937e-07  -0.00446973 
         -50      8.84299  1.08353e-07 -1.75259e-07  -0.00446963 
         -50      8.93443  1.18279e-07 -1.90583e-07  -0.00446952 
         -50      9.02626  1.27124e-07 -2.05476e-07  -0.00446941 
         -50      9.11863  1.34747e-07 -2.19878e-07  -0.00446929 
         -50      9.21139  1.41136e-07 -2.33314e-07  -0.00446918 
         -50      9.30471  1.46534e-07 -2.44823e-07  -0.00446906 
         -50      9.39841  1.52049e-07 -2.55118e-07  -0.00446895 
         -50      9.49267  1.59583e-07 -2.66329e-07  -0.00446882 
         -50      9.58739  1.68238e-07 -2.77064e-07   -0.0044687 
         -50      9.68251  1.77208e-07 -2.87217e-07  -0.00446858 
         -50      9.77817  1.85919e-07 -2.96745e-07  -0.00446845 
         -50      9.87422   1.9396e-07 -3.05609e-07  -0.00446832 
         -50      9.97083  2.01105e-07 -3.13828e-07  -0.00446819 
         -50      10.0678   2.0724e-07 -3.21413e-07  -0.00446806 
         -50      10.1654  2.12383e-07 -3.28416e-07  -0.00446793 
         -50      10.2633   2.1662e-07 -3.34872e-07   -0.0044678 
         -50      10.3618   2.2011e-07 -3.40841e-07  -0.00446766 
         -50      10.4607  2.23047e-07 -3.46365e-07  -0.00446752 
         -50      10.5601  2.25642e-07 -3.51481e-07  -0.00446738 
         -50        10.66  2.28112e-07 -3.56229e-07  -0.00446724 
         -50      10.7603  2.30651e-07 -3.60617e-07  -0.00446709 
         -50      10.8611  2.33428e-07 -3.64659e-07  -0.00446694 
         -50      10.9623  2.36558e-07 -3.68336e-07   -0.0044668 
         -50      11.0641  2.40117e-07 -3.71631e-07  -0.00446665 
         -50      11.1663   2.4411e-07 -3.74503e-07  -0.00446649 
         -50       11.269  2.48484e-07 -3.76906e-07  -0.00446634 
         -50      11.3721  2.53135e-07 -3.78797e-07  -0.00446618 
         -50      11.4757  2.57896e-07 -3.80126e-07  -0.00446602 
         -50      11.5798  2.62571e-07 -3.80865e-07  -0.00446586 
         -50      11.6844  2.66924e-07 -3.81002e-07   -0.0044657 
         -50      11.7894  2.70733e-07 -3.80562e-07  -0.00446553 
         -50       11.895   2.7379e-07 -3.79621e-07  -0.00446537 
         -50      12.0009  2.75952e-07 -3.78326e-07   -0.0044652 
         -50      12.1073  2.77183e-07 -3.76905e-07  -0.00446503 
         -50      12.2142  2.77595e-07 -3.75706e-07  -0.00446485 
         -50      12.3216  2.77515e-07 -3.75208e-07  -0.00446468 
         -50      12.4294  2.77547e-07  -3.7606e-07   -0.0044645 
         -50      12.5378  2.78654e-07 -3.79111e-07  -0.00446432 
         -50      12.6465  2.77733e-07 -3.84378e-07  -0.00446414 
         -50      12.7558  2.64807e-07 -3.94173e-07  -0.00446395 
         -50      12.8656  2.71693e-07 -3.76869e-07  -0.00446377 
         -50      12.9757  2.74304e-07 -3.65283e-07  -0.00446358 
         -50      13.0864  2.70295e-07 -3.61206e-07  -0.00446339 
         -50      13.1975  2.67879e-07 -3.58154e-07   -0.0044632 
         -50      13.3092  2.66579e-07 -3.55639e-07    -0.004463 
         -50      13.4212  2.66005e-07 -3.53296e-07   -0.0044628 
         -50      13.5338  2.65835e-07 -3.50853e-07   -0.0044626 
         -50      13.6468   2.6582e-07 -3.48127e-07   -0.0044624 
         -50      13.7603   2.6577e-07 -3.45013e-07   -0.0044622 
         -50      13.8743  2.65553e-07 -3.41458e-07  -0.00446199 
         -50      13.9886  2.65087e-07 -3.37471e-07  -0.00446178 
         -50      14.1036  2.64336e-07 -3.33085e-07  -0.00446157 
         -50      14.2189  2.63299e-07 -3.28376e-07  -0.00446136 
         -50      14.3348  2.62007e-07 -3.23423e-07  -0.00446114 
         -50       14.451  2.60518e-07 -3.18328e-07  -0.00446093 
         -50      14.5678  2.58907e-07 -3.13178e-07  -0.00446071 
         -50      14.6851   2.5726e-07 -3.08064e-07  -0.00446048 
         -50      14.8028  2.55672e-07 -3.03066e-07  -0.00446026 
         -50       14.921  2.54232e-07 -2.98233e-07  -0.00446003 
         -50      15.0396  2.53025e-07 -2.93606e-07   -0.0044598 
         -50      15.1588  2.52121e-07 -2.89193e-07  -0.00445957 
         -50      15.2783  2.51571e-07 -2.84989e-07  -0.00445934 
         -50      15.3984  2.51397e-07 -2.80955e-07   -0.0044591 
         -50       15.519  2.51591e-07 -2.77046e-07  -0.00445886 
         -50        15.64  2.52106e-07 -2.73201e-07  -0.00445862 
         -50      15.7615  2.52852e-07  -2.6935e-07  -0.00445838 
         -50      15.8834  2.53689e-07 -2.65439e-07  -0.00445813 
         -50      16.0058  2.54426e-07 -2.61422e-07  -0.00445788 
         -50      16.1286   2.5481e-07 -2.57302e-07  -0.00445763 
         -50       16.252  2.54527e-07 -2.53125e-07  -0.00445738 
         -50      16.3759  2.53195e-07 -2.49021e-07  -0.00445712 
         -50      16.5002  2.50367e-07 -2.45225e-07  -0.00445686 
         -50       16.625  2.45513e-07 -2.42094e-07   -0.0044566 
         -50      16.7501  2.34817e-07  -2.3937e-07  -0.00445633 
         -50      16.8759  2.24608e-07  -2.3585e-07  -0.00445607 
         -50       17.002  2.19704e-07 -2.32022e-07   -0.0044558 
         -50      17.1287  2.18292e-07 -2.27945e-07  -0.00445553 
         -50      17.2557  2.18947e-07 -2.23692e-07  -0.00445526 
         -50      17.3834   2.2058e-07 -2.19319e-07  -0.00445498 
         -50      17.5115   2.2239e-07 -2.14889e-07   -0.0044547 
         -50      17.6399  2.23832e-07  -2.1046e-07  -0.00445442 
         -50       17.769  2.24574e-07 -2.06071e-07  -0.00445414 
         -50      17.8984  2.24458e-07 -2.01765e-07  -0.00445385 
         -50      18.0284  2.23464e-07 -1.97563e-07  -0.00445356 
         -50      18.1587   2.2168e-07 -1.93488e-07  -0.00445327 
         -50      18.2896  2.19262e-07 -1.89537e-07  -0.00445298 
         -50       18.421  2.16413e-07 -1.85706e-07  -0.00445268 
         -50      18.5528  2.13353e-07 -1.81977e-07  -0.00445238 
         -50      18.6851  2.10291e-07 -1.78312e-07  -0.00445208 
         -50      18.8178   2.0742e-07 -1.74672e-07  -0.00445177 
         -50      18.9511  2.04878e-07 -1.70999e-07  -0.00445147 
         -50      19.0847  2.02763e-07 -1.67235e-07  -0.00445116 
         -50      19.2189  2.01102e-07 -1.63301e-07  -0.00445085 
         -50      19.3535  1.99866e-07  -1.5913e-07  -0.00445053 
         -50      19.4886  1.98962e-07 -1.54636e-07  -0.00445021 
         -50      19.6242  1.98248e-07 -1.49746e-07  -0.00444989 
         -50      19.7602  1.97546e-07 -1.44391e-07  -0.00444957 
         -50      19.8968  1.96658e-07 -1.38499e-07  -0.00444925 
         -50      20.0337  1.95405e-07 -1.32033e-07  -0.00444892 
         -50      20.1712  1.93649e-07 -1.24951e-07  -0.00444859 
         -50      20.3091  1.90276e-07  -1.1823e-07  -0.00444825 
         -50      20.4475  1.84532e-07 -1.14602e-07  -0.00444792 
         -50      20.5864  1.81007e-07 -1.11167e-07  -0.00444758 
         -50      20.7257  1.79506e-07 -1.08108e-07  -0.00444724 
         -50      20.8655  1.79867e-07 -1.05734e-07  -0.00444689 
         -50      21.0058  1.82008e-07 -1.04538e-07  -0.00444655 
         -50      21.1465  1.85974e-07 -1.05234e-07   -0.0044462 
         -50      21.2877  1.94439e-07 -1.00131e-07  -0.00444585 
         -50      21.4294  1.93897e-07 -9.14326e-08   -0.0044455 
         -50      21.5716  1.84842e-07 -8.83362e-08  -0.00444514 
         -50      21.7142   1.7483e-07 -8.77096e-08  -0.00444478 
         -50      21.8573  1.67687e-07  -8.7774e-08  -0.00444442 
         -50      22.0008  1.61682e-07 -8.55374e-08  -0.00444406 
         -50      22.1449  1.53405e-07 -7.92426e-08  -0.00444368 
         -50      22.2893  1.48521e-07 -7.42651e-08  -0.00444331 
         -50      22.4344  1.46421e-07  -7.0398e-08  -0.00444294 
         -50      22.5797  1.46459e-07 -6.73874e-08  -0.00444256 
         -50      22.7257  1.47976e-07 -6.49445e-08  -0.00444218 
         -50      22.8721  1.50345e-07 -6.27954e-08   -0.0044418 
         -50      23.0189  1.52991e-07 -6.07004e-08  -0.00444142 
         -50      23.1663  1.55437e-07 -5.84711e-08  -0.00444103 
         -50       23.314  1.57299e-07 -5.59975e-08  -0.00444064 
         -50      23.4623  1.58322e-07 -5.32421e-08  -0.00444025 
         -50       23.611  1.58372e-07 -5.02572e-08  -0.00443986 
         -50      23.7602   1.5744e-07 -4.71619e-08  -0.00443946 
         -50        23.91  1.55637e-07 -4.41444e-08  -0.00443906 
         -50        24.06  1.53176e-07 -4.14321e-08  -0.00443866 
         -50      24.2107  1.50336e-07  -3.9254e-08  -0.00443826 
         -50      24.3617   1.4745e-07 -3.78139e-08  -0.00443785 
         -50      24.5133  1.44832e-07 -3.72257e-08  -0.00443744 
         -50      24.6653   1.4275e-07 -3.74606e-08  -0.00443703 
         -50      24.8178  1.41333e-07 -3.82698e-08  -0.00443661 
         -50      24.9708  1.40515e-07 -3.90993e-08  -0.00443619 
         -50      25.1242  1.39933e-07  -3.8993e-08  -0.00443577 
         -50      25.2781  1.38821e-07 -3.64807e-08  -0.00443535 
         -50      25.4324  1.35904e-07 -2.94603e-08  -0.00443492 
         -50      25.5873   1.3518e-07 -2.53924e-08  -0.00443449 
         -50      25.7426  1.30194e-07 -2.21047e-08  -0.00443406 
         -50      25.8984  1.24056e-07 -1.88059e-08  -0.00443363 
         -50      26.0546  1.19475e-07 -1.54591e-08  -0.00443319 
         -50      26.2114  1.17898e-07 -1.21848e-08  -0.00443275 
         -50      26.3686  1.19521e-07 -9.24165e-09  -0.00443231 
         -50      26.5262  1.23405e-07 -6.95803e-09  -0.00443186 
         -50      26.6844  1.27795e-07 -5.64564e-09  -0.00443141 
         -50      26.8429  1.30575e-07 -5.50386e-09  -0.00443097 
         -50       27.002  1.29941e-07 -6.47995e-09  -0.00443051 
         -50      27.1615  1.25242e-07 -8.11117e-09  -0.00443006 
         -50      27.3216  1.18031e-07  -9.3416e-09   -0.0044296 
         -50      27.4821  1.13358e-07 -8.29579e-09  -0.00442914 
         -50       27.643  1.08454e-07 -7.14575e-09  -0.00442868 
         -50      27.8044  1.02972e-07 -6.88754e-09  -0.00442821 
         -50      27.9663  1.00596e-07 -5.90004e-09  -0.00442775 
         -50      28.1287  1.00404e-07 -4.38842e-09  -0.00442728 
         -50      28.2914   1.0163e-07 -2.53093e-09   -0.0044268 
         -50      28.4548  1.03653e-07 -4.72102e-10  -0.00442633 
         -50      28.6185  1.05973e-07  1.66378e-09  -0.00442585 
         -50      28.7828  1.08212e-07  3.78321e-09  -0.00442537 
         -50      28.9475  1.10091e-07  5.80954e-09  -0.00442489 
         -50      29.1126  1.11419e-07  7.68632e-09   -0.0044244 
         -50      29.2784   1.1209e-07  9.37937e-09  -0.00442391 
         -50      29.4444  1.12057e-07  1.08645e-08  -0.00442342 
         -50       29.611  1.11332e-07  1.21363e-08  -0.00442293 
         -50       29.778  1.09971e-07  1.31965e-08  -0.00442243 
         -50      29.9456  1.08062e-07  1.40604e-08  -0.00442194 
         -50      30.1137  1.05719e-07  1.47483e-08  -0.00442144 
         -50      30.2821  1.03074e-07  1.52871e-08  -0.00442093 
         -50      30.4511  1.00258e-07  1.57093e-08  -0.00442043 
         -50      30.6204  9.74117e-08   1.6048e-08  -0.00441992 
         -50      30.7903  9.46563e-08  1.63386e-08  -0.00441941 
         -50      30.9606  9.21098e-08  1.66147e-08   -0.0044189 
         -50      31.1315  8.98624e-08   1.6909e-08  -0.00441838 
         -50      31.3028  8.79872e-08  1.72499e-08  -0.00441787 
         -50      31.4745  8.65298e-08  1.76613e-08  -0.00441735 
         -50      31.6468  8.55038e-08  1.81623e-08  -0.00441683 
         -50      31.8194  8.48974e-08  1.87641e-08   -0.0044163 
         -50      31.9926   8.4667e-08  1.94722e-08  -0.00441578 
         -50      32.1662  8.47431e-08   2.0282e-08  -0.00441525 
         -50      32.3404   8.5031e-08  2.11827e-08  -0.00441472 
         -50      32.5149  8.54157e-08  2.21523e-08  -0.00441418 
         -50        32.69  8.57689e-08  2.31626e-08  -0.00441365 
         -50      32.8655  8.59548e-08  2.41742e-08  -0.00441311 
         -50      33.0414  8.58407e-08  2.51393e-08  -0.00441257 
         -50       33.218  8.53075e-08  2.60041e-08  -0.00441203 
         -50      33.3948  8.42638e-08  2.67048e-08  -0.00441148 
         -50      33.5723  8.26568e-08  2.71734e-08  -0.00441093 
         -50        33.75  8.04965e-08   2.7335e-08  -0.00441038 
         -50      33.9284  7.78642e-08  2.71121e-08  -0.00440983 
         -50      34.1073  7.49447e-08  2.64242e-08  -0.00440928 
         -50      34.2865  7.20459e-08  2.51928e-08  -0.00440872 
         -50      34.4663  6.96165e-08  2.33383e-08  -0.00440816 
         -50      34.6465  6.82897e-08  2.07915e-08   -0.0044076 
         -50      34.8272  6.89011e-08  1.74838e-08  -0.00440704 
         -50      35.0083   7.1572e-08  1.64842e-08  -0.00440647 
         -50        35.19  7.68216e-08  1.88873e-08  -0.00440591 
         -50      35.3721  8.61335e-08  2.25868e-08  -0.00440534 
         -50      35.5546  9.43988e-08  2.64656e-08  -0.00440478 
         -50      35.7377  7.71162e-08  2.70679e-08   -0.0044042 
         -50      35.9211  6.67046e-08  2.82251e-08  -0.00440363 
         -50      36.1052  6.14322e-08  2.98152e-08  -0.00440305 
         -50      36.2895  5.98148e-08  3.17014e-08  -0.00440247 
         -50      36.4745  6.05618e-08  3.37454e-08  -0.00440189 
         -50      36.6598  6.25761e-08  3.57999e-08  -0.00440131 
         -50      36.8457  6.51094e-08   3.7723e-08  -0.00440073 
         -50      37.0321  7.04763e-08  3.93526e-08  -0.00440014 
         -50      37.2188  7.54664e-08  4.07215e-08  -0.00439955 
         -50      37.4062  7.96615e-08  4.18646e-08  -0.00439896 
         -50      37.5938  8.27871e-08  4.28161e-08  -0.00439837 
         -50      37.7821  8.47143e-08   4.3615e-08  -0.00439777 
         -50      37.9707  8.54187e-08  4.42975e-08  -0.00439717 
         -50      38.1599   8.4971e-08  4.49005e-08  -0.00439658 
         -50      38.3496   8.3511e-08  4.54565e-08  -0.00439598 
         -50      38.5396  8.12333e-08  4.59942e-08  -0.00439537 
         -50      38.7302  7.83606e-08  4.65383e-08  -0.00439477 
         -50      38.9211  7.51414e-08  4.71062e-08  -0.00439416 
         -50      39.1127   7.1817e-08  4.77105e-08  -0.00439356 
         -50      39.3046   6.8628e-08   4.8355e-08  -0.00439295 
         -50      39.4971  6.57817e-08  4.90387e-08  -0.00439234 
         -50      39.6899  6.34618e-08  4.97511e-08  -0.00439172 
         -50      39.8833  6.18024e-08  5.04772e-08  -0.00439111 
         -50      40.0772  6.08956e-08  5.11941e-08  -0.00439049 
         -50      40.2714  6.07784e-08  5.18731e-08  -0.00438988 
         -50      40.4663  6.14333e-08  5.24829e-08  -0.00438926 
         -50      40.6615  6.27874e-08  5.29866e-08  -0.00438864 
         -50      40.8573  6.47185e-08  5.33477e-08  -0.00438801 
         -50      41.0534  6.70517e-08  5.35284e-08  -0.00438739 
         -50      41.2501  6.95789e-08  5.34942e-08  -0.00438677 
         -50      41.4473  7.20567e-08  5.32155e-08  -0.00438614 
         -50      41.6448  7.42249e-08  5.26711e-08  -0.00438551 
         -50      41.8429  7.58282e-08  5.18498e-08  -0.00438488 
         -50      42.0414  7.66239e-08  5.07577e-08  -0.00438425 
         -50      42.2405  7.64142e-08  4.94167e-08  -0.00438361 
         -50      42.4399  7.50676e-08  4.78763e-08  -0.00438298 
         -50      42.6399  7.25466e-08  4.62096e-08  -0.00438234 
         -50      42.8404  6.89463e-08  4.45274e-08   -0.0043817 
         -50      43.0412  6.45317e-08    4.298e-08  -0.00438107 
         -50      43.2426  5.97652e-08  4.17601e-08  -0.00438042 
         -50      43.4444   5.5376e-08  4.11172e-08  -0.00437978 
         -50      43.6467  5.23822e-08  4.13579e-08  -0.00437914 
         -50      43.8494  5.21689e-08  4.28572e-08  -0.00437849 
         -50      44.0527  5.65332e-08  4.60694e-08  -0.00437785 
         -50      44.2563  6.77122e-08  5.11808e-08   -0.0043772 
         -50      44.4606  7.93865e-08  4.38365e-08  -0.00437655 
         -50      44.6653  8.66092e-08  3.88192e-08   -0.0043759 
         -50      44.8704  8.98421e-08  3.56697e-08  -0.00437525 
         -50       45.076  8.96362e-08  3.39634e-08   -0.0043746 
         -50       45.282  8.66107e-08  3.33337e-08  -0.00437394 
         -50      45.4886  8.14453e-08   3.3469e-08  -0.00437329 
         -50      45.6955  7.48889e-08  3.41261e-08  -0.00437263 
         -50       45.903  6.77203e-08  3.51399e-08  -0.00437197 
         -50      46.1111  6.07734e-08  3.64304e-08  -0.00437131 
         -50      46.3194  5.49131e-08  3.80128e-08  -0.00437065 
         -50      46.5283  5.10127e-08  4.00123e-08  -0.00436999 
         -50      46.7376  4.99754e-08  4.26649e-08  -0.00436933 
         -50      46.9475  5.27046e-08  4.63412e-08  -0.00436867 
         -50      47.1577  6.00994e-08  5.15392e-08    -0.004368 
         -50      47.3685  6.21914e-08  5.38671e-08  -0.00436734 
         -50      47.5798  5.06019e-08  4.91917e-08  -0.00436667 
         -50      47.7914  4.24457e-08  4.55107e-08    -0.004366 
         -50      48.0037  3.70496e-08  4.27592e-08  -0.00436533 