Variables = x, y, u, v, p

Zone, I=20800, F=POINT
         -50            0            0            0   0.00703732 
         -50     0.000234 -7.99076e-08  5.31424e-11   0.00703732 
         -50     0.000939 -3.19959e-07  2.15918e-10   0.00703732 
         -50     0.002113  -7.1737e-07  4.93845e-10   0.00703732 
         -50     0.003759 -1.26961e-06  8.91311e-10   0.00703732 
         -50     0.005872 -1.96995e-06   1.4005e-09   0.00703732 
         -50     0.008457 -2.81346e-06  1.99718e-09   0.00703732 
         -50      0.01151 -3.79057e-06  2.62883e-09   0.00703732 
         -50     0.015036 -4.89294e-06  3.21386e-09   0.00703732 
         -50     0.019031 -6.10765e-06  3.63607e-09   0.00703732 
         -50     0.023493 -7.42088e-06  3.74763e-09   0.00703732 
         -50     0.028429 -8.81994e-06  3.36767e-09   0.00703732 
         -50     0.033831 -1.02867e-05  2.27944e-09   0.00703732 
         -50     0.039706 -1.18064e-05  2.17799e-10   0.00703732 
         -50     0.046047 -1.33606e-05 -3.14124e-09   0.00703732 
         -50     0.052863 -1.49352e-05  -8.2097e-09   0.00703732 
         -50      0.06015 -1.65134e-05 -1.54751e-08   0.00703731 
         -50       0.0679 -1.80787e-05 -2.54472e-08   0.00703731 
         -50     0.076126 -1.96176e-05 -3.85322e-08   0.00703731 
         -50     0.084816 -2.11092e-05 -5.45653e-08   0.00703731 
         -50     0.093982 -2.25505e-05 -7.55443e-08   0.00703731 
         -50     0.103611 -2.39247e-05 -1.02527e-07   0.00703731 
         -50     0.113718 -2.52243e-05 -1.34855e-07   0.00703731 
         -50     0.124286 -2.64399e-05  -1.7251e-07   0.00703731 
         -50     0.135333 -2.75687e-05 -2.16191e-07    0.0070373 
         -50      0.14685 -2.86071e-05 -2.66806e-07    0.0070373 
         -50     0.158827 -2.95544e-05  -3.2509e-07    0.0070373 
         -50     0.171284 -3.04141e-05 -3.91225e-07    0.0070373 
         -50     0.184201 -3.11884e-05 -4.63961e-07   0.00703729 
         -50     0.197599 -3.18837e-05 -5.40709e-07   0.00703729 
         -50     0.211455 -3.25052e-05 -6.17219e-07   0.00703729 
         -50     0.225792 -3.30616e-05 -6.89073e-07   0.00703728 
         -50       0.2406 -3.35621e-05 -7.53625e-07   0.00703728 
         -50     0.255865 -3.40213e-05  -8.0624e-07   0.00703727 
         -50     0.271613 -3.44455e-05 -8.34164e-07   0.00703727 
         -50     0.287818 -3.48403e-05 -8.17649e-07   0.00703726 
         -50     0.304506 -3.52166e-05 -7.44227e-07   0.00703725 
         -50      0.32165 -3.55792e-05 -6.25957e-07   0.00703724 
         -50     0.339278 -3.59292e-05 -4.95302e-07   0.00703722 
         -50     0.357377 -3.62637e-05 -4.00075e-07   0.00703721 
         -50      0.37593 -3.65775e-05 -3.95547e-07    0.0070372 
         -50     0.394968 -3.68661e-05 -5.35592e-07   0.00703719 
         -50     0.414461 -3.71256e-05 -8.62617e-07   0.00703718 
         -50      0.43444 -3.73561e-05 -1.39865e-06   0.00703718 
         -50     0.454872 -3.75619e-05 -2.13428e-06   0.00703718 
         -50     0.475791 -3.77535e-05  -3.0258e-06   0.00703719 
         -50     0.497163 -3.79459e-05 -3.98866e-06    0.0070372 
         -50     0.519021 -3.81574e-05 -4.90788e-06   0.00703722 
         -50      0.54135 -3.84044e-05 -5.64771e-06   0.00703724 
         -50     0.564131  -3.8693e-05 -6.08248e-06   0.00703726 
         -50       0.5874 -3.90079e-05 -6.14293e-06   0.00703727 
         -50     0.611121 -3.93013e-05  -5.8407e-06   0.00703727 
         -50      0.63533 -3.96249e-05 -5.12578e-06   0.00703726 
         -50      0.65999 -3.98911e-05 -4.59018e-06   0.00703724 
         -50     0.685139 -4.00714e-05 -4.21328e-06   0.00703723 
         -50     0.710759 -4.01413e-05 -3.97552e-06   0.00703721 
         -50     0.736828 -4.00821e-05 -3.85695e-06    0.0070372 
         -50     0.763387 -3.98798e-05 -3.83768e-06   0.00703718 
         -50     0.790396 -3.95265e-05 -3.89859e-06   0.00703717 
         -50     0.817896 -3.90183e-05  -4.0214e-06   0.00703717 
         -50     0.845843 -3.83576e-05 -4.18855e-06   0.00703716 
         -50     0.874283 -3.75495e-05 -4.38423e-06   0.00703716 
         -50      0.90317 -3.66053e-05 -4.59351e-06   0.00703716 
         -50     0.932551 -3.55369e-05 -4.80378e-06   0.00703717 
         -50     0.962401 -3.43612e-05 -5.00374e-06   0.00703717 
         -50     0.992697 -3.30969e-05 -5.18416e-06   0.00703719 
         -50      1.02349 -3.17607e-05 -5.33833e-06    0.0070372 
         -50      1.05472 -3.03732e-05  -5.4612e-06   0.00703722 
         -50      1.08645 -2.89498e-05 -5.55039e-06   0.00703725 
         -50      1.11863 -2.75084e-05 -5.60543e-06   0.00703727 
         -50       1.1513 -2.60598e-05 -5.62823e-06    0.0070373 
         -50      1.18444  -2.4615e-05 -5.62261e-06   0.00703733 
         -50      1.21802 -2.31811e-05 -5.59439e-06   0.00703737 
         -50      1.25211 -2.17584e-05 -5.55093e-06    0.0070374 
         -50      1.28663 -2.03485e-05 -5.50105e-06   0.00703744 
         -50      1.32165 -1.89462e-05 -5.45434e-06   0.00703747 
         -50      1.35712 -1.75502e-05 -5.42103e-06   0.00703751 
         -50      1.39308 -1.61564e-05 -5.41114e-06   0.00703756 
         -50      1.42951 -1.47695e-05 -5.43403e-06    0.0070376 
         -50      1.46638 -1.34042e-05 -5.49747e-06   0.00703765 
         -50      1.50375 -1.20876e-05 -5.60703e-06   0.00703771 
         -50      1.54156 -1.07741e-05 -5.58782e-06   0.00703777 
         -50      1.57987 -9.46157e-06 -5.54773e-06   0.00703783 
         -50      1.61863 -8.16073e-06 -5.49907e-06    0.0070379 
         -50      1.65788 -6.87477e-06 -5.44259e-06   0.00703796 
         -50      1.69757 -5.61093e-06 -5.37919e-06   0.00703803 
         -50      1.73776 -4.37205e-06 -5.30953e-06    0.0070381 
         -50      1.77842 -3.16383e-06  -5.2344e-06   0.00703818 
         -50      1.81952 -1.99171e-06 -5.15455e-06   0.00703825 
         -50      1.86113  -8.5793e-07 -5.07053e-06   0.00703833 
         -50      1.90316  2.31788e-07 -4.98309e-06   0.00703841 
         -50      1.94571  1.27565e-06 -4.89265e-06   0.00703848 
         -50      1.98869  2.26877e-06  -4.7999e-06   0.00703857 
         -50      2.03217  3.20991e-06 -4.70517e-06   0.00703865 
         -50      2.07612  4.09581e-06 -4.60898e-06   0.00703873 
         -50      2.12051  4.92379e-06 -4.51181e-06   0.00703881 
         -50       2.1654  5.69354e-06 -4.41387e-06    0.0070389 
         -50      2.21073  6.40265e-06 -4.31561e-06   0.00703898 
         -50      2.25656  7.05151e-06 -4.21716e-06   0.00703907 
         -50      2.30283   7.6388e-06 -4.11891e-06   0.00703915 
         -50       2.3496   8.1656e-06  -4.0209e-06   0.00703924 
         -50      2.39685  8.63204e-06 -3.92339e-06   0.00703932 
         -50      2.44452  9.03888e-06  -3.8266e-06   0.00703941 
         -50      2.49271  9.38824e-06 -3.73049e-06   0.00703949 
         -50      2.54132  9.68151e-06  -3.6353e-06   0.00703958 
         -50      2.59044  9.92147e-06 -3.54097e-06   0.00703966 
         -50         2.64  1.01104e-05 -3.44772e-06   0.00703974 
         -50      2.69006  1.02518e-05 -3.35545e-06   0.00703982 
         -50      2.74056  1.03486e-05 -3.26437e-06    0.0070399 
         -50      2.79156  1.04048e-05 -3.17439e-06   0.00703998 
         -50      2.84304   1.0424e-05 -3.08565e-06   0.00704006 
         -50      2.89494  1.04103e-05 -2.99827e-06   0.00704013 
         -50      2.94735  1.03679e-05  -2.9122e-06    0.0070402 
         -50       3.0002   1.0301e-05 -2.82766e-06   0.00704028 
         -50      3.05355  1.02135e-05 -2.74461e-06   0.00704035 
         -50      3.10733  1.01096e-05 -2.66329e-06   0.00704041 
         -50      3.16163  9.99292e-06 -2.58368e-06   0.00704048 
         -50      3.21639  9.86686e-06 -2.50597e-06   0.00704054 
         -50      3.27158  9.73451e-06 -2.43033e-06   0.00704061 
         -50      3.32729  9.59799e-06 -2.35674e-06   0.00704067 
         -50      3.38342  9.45915e-06 -2.28541e-06   0.00704072 
         -50      3.44007  9.31853e-06 -2.21628e-06   0.00704078 
         -50      3.49714  9.17606e-06 -2.14944e-06   0.00704083 
         -50      3.55472  9.03002e-06 -2.08471e-06   0.00704089 
         -50      3.61273  8.87777e-06 -2.02201e-06   0.00704094 
         -50      3.67125  8.71457e-06 -1.96093e-06   0.00704098 
         -50      3.73025  8.53426e-06 -1.90104e-06   0.00704103 
         -50      3.78967  8.37129e-06 -1.83803e-06   0.00704107 
         -50      3.84961  8.22066e-06 -1.77512e-06   0.00704111 
         -50      3.90996  8.06741e-06 -1.71393e-06   0.00704115 
         -50      3.97084  7.91071e-06 -1.65503e-06   0.00704118 
         -50      4.03214   7.7554e-06 -1.59826e-06   0.00704122 
         -50      4.09395  7.60204e-06 -1.54317e-06   0.00704125 
         -50      4.15624  7.45098e-06 -1.48959e-06   0.00704128 
         -50      4.21895  7.30245e-06  -1.4374e-06    0.0070413 
         -50      4.28217   7.1563e-06 -1.38636e-06   0.00704133 
         -50      4.34582  7.01274e-06 -1.33643e-06   0.00704135 
         -50      4.40998  6.87149e-06 -1.28746e-06   0.00704137 
         -50      4.47457  6.73271e-06 -1.23947e-06   0.00704138 
         -50      4.53968  6.59605e-06 -1.19235e-06   0.00704139 
         -50      4.60525  6.46154e-06 -1.14614e-06    0.0070414 
         -50      4.67125  6.32916e-06 -1.10091e-06   0.00704141 
         -50      4.73777  6.19862e-06 -1.05661e-06   0.00704142 
         -50       4.8047  6.07006e-06 -1.01337e-06   0.00704142 
         -50      4.87216  5.94324e-06 -9.71174e-07   0.00704142 
         -50      4.94003  5.81837e-06 -9.30159e-07   0.00704142 
         -50      5.00843  5.69526e-06 -8.90307e-07   0.00704141 
         -50      5.07724  5.57419e-06 -8.51714e-07    0.0070414 
         -50      5.14658  5.45505e-06 -8.14323e-07   0.00704139 
         -50      5.21639  5.33805e-06 -7.78128e-07   0.00704138 
         -50      5.28661  5.22336e-06 -7.43064e-07   0.00704136 
         -50      5.35736  5.11089e-06 -7.08912e-07   0.00704135 
         -50      5.42852  5.00083e-06 -6.75473e-07   0.00704132 
         -50      5.50021  4.89296e-06 -6.42334e-07    0.0070413 
         -50      5.57231  4.78725e-06 -6.09055e-07   0.00704127 
         -50      5.64493  4.68316e-06  -5.7494e-07   0.00704124 
         -50      5.71803  4.58132e-06 -5.46935e-07   0.00704121 
         -50      5.79154  4.48197e-06 -5.17108e-07   0.00704117 
         -50      5.86558  4.38471e-06 -4.87179e-07   0.00704114 
         -50      5.94003  4.28943e-06 -4.58272e-07   0.00704109 
         -50      6.01501  4.19573e-06 -4.30846e-07   0.00704105 
         -50       6.0904  4.10357e-06 -4.05006e-07     0.007041 
         -50      6.16632  4.01266e-06 -3.80459e-07   0.00704095 
         -50      6.24271  3.92305e-06 -3.56811e-07    0.0070409 
         -50       6.3195  3.83485e-06 -3.33648e-07   0.00704085 
         -50      6.39683  3.74809e-06 -3.10638e-07   0.00704079 
         -50      6.47457  3.66321e-06  -2.8783e-07   0.00704072 
         -50      6.55284  3.58048e-06 -2.65673e-07   0.00704066 
         -50      6.63152  3.50056e-06 -2.45337e-07   0.00704059 
         -50      6.71073  3.42398e-06 -2.28758e-07   0.00704052 
         -50      6.79034  3.34743e-06 -2.09664e-07   0.00704045 
         -50      6.87049  3.27143e-06 -1.89607e-07   0.00704037 
         -50      6.95111  3.19746e-06 -1.71299e-07   0.00704029 
         -50      7.03214  3.12548e-06 -1.54308e-07   0.00704021 
         -50       7.1137  3.05525e-06 -1.38223e-07   0.00704012 
         -50      7.19566  2.98675e-06 -1.22753e-07   0.00704003 
         -50      7.27816   2.9197e-06 -1.07629e-07   0.00703994 
         -50      7.36106  2.85405e-06 -9.27142e-08   0.00703985 
         -50      7.44451  2.78956e-06  -7.7902e-08   0.00703975 
         -50      7.52842  2.72612e-06 -6.32069e-08   0.00703965 
         -50      7.61273  2.66369e-06 -4.87256e-08   0.00703955 
         -50      7.69758  2.60208e-06 -3.45994e-08   0.00703944 
         -50      7.78283  2.54138e-06 -2.10892e-08   0.00703933 
         -50      7.86862   2.4815e-06 -8.47663e-09   0.00703922 
         -50      7.95481  2.42263e-06   2.8618e-09    0.0070391 
         -50      8.04155  2.36481e-06  1.25496e-08   0.00703898 
         -50      8.12868   2.3075e-06  2.44879e-08   0.00703886 
         -50      8.21635  2.25207e-06  3.58097e-08   0.00703873 
         -50      8.30449  2.19866e-06   4.5434e-08    0.0070386 
         -50      8.39303  2.14704e-06  5.35708e-08   0.00703847 
         -50      8.48211  2.09686e-06  6.05114e-08   0.00703833 
         -50      8.57159  2.04797e-06  6.65572e-08    0.0070382 
         -50      8.66161  2.00006e-06  7.20338e-08   0.00703805 
         -50      8.75203  1.95305e-06  7.72218e-08   0.00703791 
         -50      8.84299  1.90675e-06  8.23608e-08   0.00703776 
         -50      8.93443  1.86115e-06  8.75884e-08   0.00703761 
         -50      9.02626  1.81632e-06  9.29202e-08   0.00703745 
         -50      9.11863  1.77234e-06  9.82303e-08   0.00703729 
         -50      9.21139  1.72957e-06   1.0319e-07   0.00703713 
         -50      9.30471  1.68834e-06  1.07267e-07   0.00703697 
         -50      9.39841   1.6498e-06  1.11356e-07    0.0070368 
         -50      9.49267  1.61194e-06  1.16123e-07   0.00703663 
         -50      9.58739  1.57397e-06  1.20377e-07   0.00703645 
         -50      9.68251  1.53631e-06  1.24164e-07   0.00703628 
         -50      9.77817  1.49915e-06  1.27524e-07   0.00703609 
         -50      9.87422  1.46276e-06  1.30475e-07   0.00703591 
         -50      9.97083  1.42721e-06  1.33036e-07   0.00703572 
         -50      10.0678  1.39263e-06  1.35213e-07   0.00703553 
         -50      10.1654  1.35899e-06  1.37017e-07   0.00703533 
         -50      10.2633  1.32633e-06  1.38454e-07   0.00703514 
         -50      10.3618  1.29457e-06  1.39538e-07   0.00703493 
         -50      10.4607  1.26367e-06  1.40286e-07   0.00703473 
         -50      10.5601  1.23359e-06  1.40722e-07   0.00703452 
         -50        10.66  1.20422e-06   1.4088e-07   0.00703431 
         -50      10.7603  1.17553e-06  1.40803e-07   0.00703409 
         -50      10.8611  1.14742e-06  1.40541e-07   0.00703387 
         -50      10.9623  1.11989e-06  1.40155e-07   0.00703365 
         -50      11.0641  1.09288e-06  1.39714e-07   0.00703342 
         -50      11.1663  1.06641e-06   1.3929e-07   0.00703319 
         -50       11.269  1.04051e-06  1.38961e-07   0.00703296 
         -50      11.3721  1.01517e-06  1.38801e-07   0.00703272 
         -50      11.4757  9.90486e-07  1.38883e-07   0.00703248 
         -50      11.5798  9.66491e-07  1.39266e-07   0.00703224 
         -50      11.6844  9.43289e-07  1.39992e-07   0.00703199 
         -50      11.7894  9.20913e-07  1.41078e-07   0.00703174 
         -50       11.895  8.99433e-07  1.42506e-07   0.00703149 
         -50      12.0009   8.7889e-07   1.4421e-07   0.00703123 
         -50      12.1073  8.59228e-07  1.46073e-07   0.00703096 
         -50      12.2142  8.40389e-07    1.479e-07    0.0070307 
         -50      12.3216  8.22164e-07  1.49414e-07   0.00703043 
         -50      12.4294  8.04285e-07  1.50232e-07   0.00703015 
         -50      12.5378  7.86279e-07  1.49849e-07   0.00702988 
         -50      12.6465  7.66163e-07   1.4981e-07    0.0070296 
         -50      12.7558  7.44239e-07  1.53207e-07   0.00702931 
         -50      12.8656  7.23998e-07  1.44433e-07   0.00702902 
         -50      12.9757  7.05107e-07  1.38587e-07   0.00702873 
         -50      13.0864  6.86566e-07  1.40769e-07   0.00702843 
         -50      13.1975  6.69102e-07  1.42638e-07   0.00702814 
         -50      13.3092  6.52506e-07  1.44053e-07   0.00702783 
         -50      13.4212  6.36656e-07  1.44929e-07   0.00702753 
         -50      13.5338  6.21406e-07  1.45234e-07   0.00702722 
         -50      13.6468  6.06673e-07  1.44976e-07    0.0070269 
         -50      13.7603  5.92393e-07  1.44198e-07   0.00702658 
         -50      13.8743  5.78485e-07  1.42968e-07   0.00702626 
         -50      13.9886  5.64927e-07  1.41375e-07   0.00702594 
         -50      14.1036  5.51667e-07  1.39513e-07    0.0070256 
         -50      14.2189  5.38702e-07  1.37487e-07   0.00702527 
         -50      14.3348  5.25994e-07  1.35392e-07   0.00702493 
         -50       14.451  5.13551e-07  1.33324e-07   0.00702459 
         -50      14.5678   5.0134e-07  1.31359e-07   0.00702424 
         -50      14.6851   4.8936e-07   1.2956e-07   0.00702389 
         -50      14.8028  4.77611e-07  1.27974e-07   0.00702354 
         -50       14.921  4.66058e-07  1.26619e-07   0.00702318 
         -50      15.0396  4.54707e-07  1.25499e-07   0.00702282 
         -50      15.1588  4.43523e-07  1.24588e-07   0.00702246 
         -50      15.2783  4.32507e-07  1.23845e-07   0.00702209 
         -50      15.3984  4.21626e-07   1.2321e-07   0.00702171 
         -50       15.519  4.10877e-07  1.22609e-07   0.00702134 
         -50        15.64   4.0026e-07  1.21963e-07   0.00702095 
         -50      15.7615  3.89763e-07   1.2119e-07   0.00702057 
         -50      15.8834  3.79419e-07  1.20221e-07   0.00702018 
         -50      16.0058  3.69248e-07  1.19008e-07   0.00701979 
         -50      16.1286  3.59328e-07   1.1754e-07   0.00701939 
         -50       16.252  3.49737e-07  1.15854e-07   0.00701899 
         -50      16.3759  3.40618e-07   1.1406e-07   0.00701858 
         -50      16.5002  3.32165e-07  1.12359e-07   0.00701817 
         -50       16.625   3.2461e-07  1.11062e-07   0.00701776 
         -50      16.7501  3.17939e-07   1.1061e-07   0.00701734 
         -50      16.8759  3.10973e-07  1.10231e-07   0.00701691 
         -50       17.002  3.03827e-07  1.09609e-07   0.00701649 
         -50      17.1287  2.96661e-07  1.08821e-07   0.00701606 
         -50      17.2557  2.89607e-07  1.07945e-07   0.00701562 
         -50      17.3834  2.82733e-07  1.07049e-07   0.00701518 
         -50      17.5115  2.76091e-07  1.06196e-07   0.00701474 
         -50      17.6399  2.69701e-07  1.05439e-07   0.00701429 
         -50       17.769  2.63548e-07  1.04816e-07   0.00701384 
         -50      17.8984  2.57619e-07  1.04355e-07   0.00701338 
         -50      18.0284  2.51873e-07  1.04065e-07   0.00701292 
         -50      18.1587   2.4628e-07  1.03943e-07   0.00701246 
         -50      18.2896  2.40793e-07  1.03968e-07   0.00701199 
         -50       18.421  2.35381e-07  1.04106e-07   0.00701152 
         -50      18.5528  2.30017e-07  1.04306e-07   0.00701104 
         -50      18.6851  2.24671e-07  1.04507e-07   0.00701056 
         -50      18.8178  2.19343e-07  1.04637e-07   0.00701007 
         -50      18.9511  2.14024e-07  1.04615e-07   0.00700958 
         -50      19.0847  2.08737e-07  1.04359e-07   0.00700909 
         -50      19.2189  2.03496e-07  1.03787e-07   0.00700859 
         -50      19.3535  1.98345e-07  1.02825e-07   0.00700809 
         -50      19.4886  1.93314e-07  1.01409e-07   0.00700758 
         -50      19.6242   1.8845e-07  9.94991e-08   0.00700707 
         -50      19.7602  1.83795e-07  9.70844e-08   0.00700655 
         -50      19.8968  1.79372e-07  9.41876e-08   0.00700603 
         -50      20.0337    1.752e-07  9.08886e-08   0.00700551 
         -50      20.1712  1.71257e-07  8.73185e-08   0.00700498 
         -50      20.3091  1.67613e-07  8.49265e-08   0.00700445 
         -50      20.4475  1.64219e-07  8.67625e-08   0.00700391 
         -50      20.5864  1.60644e-07  8.82265e-08   0.00700337 
         -50      20.7257  1.57087e-07  8.87323e-08   0.00700282 
         -50      20.8655  1.53744e-07  8.76821e-08   0.00700227 
         -50      21.0058  1.50813e-07   8.4477e-08   0.00700171 
         -50      21.1465  1.48449e-07  7.85188e-08   0.00700116 
         -50      21.2877  1.43398e-07  7.75348e-08   0.00700059 
         -50      21.4294   1.3563e-07  8.19679e-08   0.00700003 
         -50      21.5716  1.29619e-07  8.18811e-08   0.00699946 
         -50      21.7142  1.25276e-07    7.889e-08   0.00699888 
         -50      21.8573  1.22702e-07  7.43616e-08    0.0069983 
         -50      22.0008  1.22158e-07  7.21074e-08   0.00699772 
         -50      22.1449  1.21923e-07   7.4893e-08   0.00699713 
         -50      22.2893  1.21075e-07  7.65741e-08   0.00699653 
         -50      22.4344  1.19705e-07   7.7289e-08   0.00699593 
         -50      22.5797  1.17888e-07  7.72022e-08   0.00699533 
         -50      22.7257  1.15686e-07  7.64945e-08   0.00699472 
         -50      22.8721  1.13157e-07  7.53489e-08   0.00699411 
         -50      23.0189  1.10362e-07  7.39409e-08    0.0069935 
         -50      23.1663  1.07356e-07   7.2424e-08   0.00699288 
         -50       23.314  1.04208e-07  7.09302e-08   0.00699226 
         -50      23.4623  1.00982e-07  6.95563e-08   0.00699163 
         -50       23.611  9.77572e-08  6.83697e-08     0.006991 
         -50      23.7602  9.46051e-08  6.73999e-08   0.00699036 
         -50        23.91  9.16048e-08   6.6648e-08   0.00698972 
         -50        24.06   8.8829e-08   6.6088e-08   0.00698907 
         -50      24.2107  8.63317e-08   6.5675e-08   0.00698842 
         -50      24.3617  8.41545e-08  6.53599e-08   0.00698777 
         -50      24.5133     8.23e-08  6.51009e-08   0.00698711 
         -50      24.6653  8.07338e-08  6.48854e-08   0.00698645 
         -50      24.8178  7.93576e-08  6.47501e-08   0.00698578 
         -50      24.9708  7.80017e-08  6.48096e-08   0.00698511 
         -50      25.1242  7.64021e-08  6.52857e-08   0.00698443 
         -50      25.2781  7.41747e-08  6.65454e-08   0.00698375 
         -50      25.4324  7.08019e-08  6.91358e-08   0.00698307 
         -50      25.5873  7.10821e-08  6.65884e-08   0.00698238 
         -50      25.7426  7.02927e-08  6.39816e-08   0.00698169 
         -50      25.8984   6.8458e-08   6.2288e-08   0.00698099 
         -50      26.0546   6.6008e-08  6.17418e-08   0.00698029 
         -50      26.2114  6.33083e-08  6.23456e-08   0.00697959 
         -50      26.3686  6.06904e-08  6.38582e-08   0.00697888 
         -50      26.5262  5.84514e-08  6.58006e-08   0.00697816 
         -50      26.6844  5.68443e-08   6.7504e-08   0.00697745 
         -50      26.8429  5.60705e-08  6.81706e-08   0.00697673 
         -50       27.002  5.62398e-08  6.69864e-08     0.006976 
         -50      27.1615  5.73289e-08   6.3259e-08   0.00697527 
         -50      27.3216  5.91222e-08  5.65841e-08   0.00697453 
         -50      27.4821  6.11311e-08  4.70773e-08   0.00697379 
         -50       27.643  5.86738e-08   4.5037e-08   0.00697305 
         -50      27.8044  5.45023e-08  4.73423e-08   0.00697231 
         -50      27.9663  5.10408e-08  4.88725e-08   0.00697156 
         -50      28.1287  4.81619e-08  4.98089e-08    0.0069708 
         -50      28.2914  4.57631e-08   5.0303e-08   0.00697004 
         -50      28.4548  4.37478e-08  5.04853e-08   0.00696928 
         -50      28.6185   4.2039e-08  5.04627e-08   0.00696851 
         -50      28.7828  4.05663e-08  5.03226e-08   0.00696774 
         -50      28.9475  3.92745e-08  5.01334e-08   0.00696697 
         -50      29.1126  3.81182e-08  4.99469e-08   0.00696619 
         -50      29.2784  3.70588e-08  4.97993e-08    0.0069654 
         -50      29.4444  3.60699e-08  4.97137e-08   0.00696462 
         -50       29.611  3.51294e-08  4.97011e-08   0.00696383 
         -50       29.778  3.42248e-08  4.97621e-08   0.00696303 
         -50      29.9456  3.33469e-08  4.98893e-08   0.00696223 
         -50      30.1137  3.24935e-08  5.00675e-08   0.00696143 
         -50      30.2821  3.16664e-08  5.02765e-08   0.00696062 
         -50      30.4511  3.08688e-08  5.04921e-08   0.00695981 
         -50      30.6204   3.0109e-08  5.06874e-08     0.006959 
         -50      30.7903  2.93942e-08  5.08346e-08   0.00695818 
         -50      30.9606   2.8735e-08  5.09058e-08   0.00695735 
         -50      31.1315  2.81399e-08  5.08751e-08   0.00695653 
         -50      31.3028  2.76182e-08  5.07189e-08    0.0069557 
         -50      31.4745  2.71777e-08   5.0418e-08   0.00695486 
         -50      31.6468  2.68231e-08  4.99572e-08   0.00695403 
         -50      31.8194  2.65577e-08  4.93286e-08   0.00695318 
         -50      31.9926  2.63803e-08  4.85293e-08   0.00695234 
         -50      32.1662  2.62867e-08  4.75663e-08   0.00695149 
         -50      32.3404  2.62681e-08   4.6452e-08   0.00695064 
         -50      32.5149  2.63106e-08  4.52107e-08   0.00694978 
         -50        32.69  2.63955e-08  4.38725e-08   0.00694892 
         -50      32.8655   2.6498e-08  4.24797e-08   0.00694806 
         -50      33.0414  2.65875e-08  4.10847e-08   0.00694719 
         -50       33.218  2.66276e-08  3.97459e-08   0.00694632 
         -50      33.3948  2.65752e-08  3.85359e-08   0.00694545 
         -50      33.5723  2.63808e-08  3.75323e-08   0.00694457 
         -50        33.75  2.59889e-08   3.6825e-08   0.00694369 
         -50      33.9284  2.53366e-08  3.65094e-08    0.0069428 
         -50      34.1073  2.43556e-08  3.66902e-08   0.00694192 
         -50      34.2865  2.29727e-08  3.74764e-08   0.00694103 
         -50      34.4663  2.11053e-08  3.89845e-08   0.00694013 
         -50      34.6465  1.86711e-08  4.13303e-08   0.00693923 
         -50      34.8272   1.5576e-08  4.46379e-08   0.00693833 
         -50      35.0083  1.51092e-08  4.24905e-08   0.00693743 
         -50        35.19   1.6502e-08  3.68588e-08   0.00693652 
         -50      35.3721  1.71924e-08  3.33405e-08    0.0069356 
         -50      35.5546  1.76868e-08  3.30588e-08   0.00693469 
         -50      35.7377  1.98836e-08   3.6517e-08   0.00693377 
         -50      35.9211  2.02931e-08  4.07933e-08   0.00693285 
         -50      36.1052  1.92252e-08  4.54155e-08   0.00693192 
         -50      36.2895  1.69685e-08    4.998e-08     0.006931 
         -50      36.4745  1.37858e-08  5.41754e-08   0.00693006 
         -50      36.6598   9.9274e-09  5.77503e-08   0.00692913 
         -50      36.8457  5.78727e-09  6.00942e-08   0.00692819 
         -50      37.0321  4.74613e-09  5.46366e-08   0.00692725 
         -50      37.2188  4.18912e-09  4.96238e-08   0.00692631 
         -50      37.4062  4.07331e-09  4.51882e-08   0.00692536 
         -50      37.5938   4.3483e-09  4.14222e-08   0.00692441 
         -50      37.7821  4.95722e-09  3.83587e-08   0.00692346 
         -50      37.9707  5.83718e-09  3.60018e-08    0.0069225 
         -50      38.1599  6.92472e-09  3.43152e-08   0.00692154 
         -50      38.3496  8.15325e-09  3.32432e-08   0.00692058 
         -50      38.5396   9.4563e-09  3.27095e-08   0.00691961 
         -50      38.7302  1.07727e-08  3.26245e-08   0.00691864 
         -50      38.9211  1.20408e-08  3.28925e-08   0.00691767 
         -50      39.1127  1.32079e-08  3.34163e-08    0.0069167 
         -50      39.3046  1.42236e-08  3.41006e-08   0.00691572 
         -50      39.4971  1.50483e-08  3.48587e-08   0.00691474 
         -50      39.6899  1.56476e-08  3.56123e-08   0.00691376 
         -50      39.8833  1.59984e-08  3.62989e-08   0.00691278 
         -50      40.0772  1.60855e-08  3.68695e-08   0.00691179 
         -50      40.2714  1.59049e-08  3.72928e-08    0.0069108 
         -50      40.4663  1.54623e-08  3.75564e-08   0.00690981 
         -50      40.6615  1.47751e-08  3.76646e-08   0.00690881 
         -50      40.8573  1.38691e-08  3.76398e-08   0.00690781 
         -50      41.0534   1.2783e-08  3.75196e-08   0.00690681 
         -50      41.2501   1.1562e-08  3.73546e-08   0.00690581 
         -50      41.4473  1.02627e-08  3.72052e-08   0.00690481 
         -50      41.6448  8.95013e-09  3.71372e-08    0.0069038 
         -50      41.8429  7.69283e-09  3.72158e-08   0.00690279 
         -50      42.0414  6.56878e-09  3.74994e-08   0.00690177 
         -50      42.2405  5.65587e-09  3.80328e-08   0.00690076 
         -50      42.4399  5.03677e-09  3.88363e-08   0.00689974 
         -50      42.6399  4.79115e-09  3.98989e-08   0.00689872 
         -50      42.8404  4.99711e-09  4.11636e-08    0.0068977 
         -50      43.0412  5.72512e-09  4.25158e-08   0.00689668 
         -50      43.2426   7.0382e-09  4.37731e-08   0.00689565 
         -50      43.4444  8.98309e-09  4.46629e-08   0.00689462 
         -50      43.6467  1.15949e-08  4.48127e-08   0.00689359 
         -50      43.8494  1.48801e-08  4.37273e-08   0.00689255 
         -50      44.0527   1.8829e-08  4.07679e-08   0.00689152 
         -50      44.2563   2.3104e-08  3.53261e-08   0.00689048 
         -50      44.4606  1.62559e-08  3.65286e-08   0.00688944 
         -50      44.6653  1.14516e-08  3.78224e-08    0.0068884 
         -50      44.8704   8.5208e-09  3.90404e-08   0.00688735 
         -50       45.076  7.23526e-09  4.00448e-08   0.00688631 
         -50       45.282  7.32281e-09  4.07278e-08   0.00688526 
         -50      45.4886  8.45904e-09   4.1026e-08   0.00688421 
         -50      45.6955  1.02693e-08  4.09232e-08   0.00688316 
         -50       45.903  1.23365e-08  4.04611e-08   0.00688211 
         -50      46.1111  1.41943e-08  3.97472e-08   0.00688105 
         -50      46.3194  1.53352e-08  3.89637e-08      0.00688 
         -50      46.5283  1.52155e-08  3.83739e-08   0.00687894 
         -50      46.7376  1.32552e-08  3.83347e-08   0.00687788 
         -50      46.9475  8.83914e-09   3.9303e-08   0.00687682 
         -50      47.1577  1.33658e-09  4.18444e-08   0.00687576 
         -50      47.3685 -3.40642e-09  4.52253e-08   0.00687469 
         -50      47.5798  8.44717e-10  4.67221e-08   0.00687362 
         -50      47.7914  4.18192e-09  4.77888e-08   0.00687255 
         -50      48.0037  6.73246e-09  4.84852e-08   0.00687148 