Variables = x, y, u, v, p

Zone, I=20800, F=POINT
         -50            0            0            0  -0.00312588 
         -50     0.000234  1.28857e-07 -1.86014e-10  -0.00312588 
         -50     0.000939  5.15033e-07  -7.1306e-10  -0.00312588 
         -50     0.002113  1.15129e-06 -1.48063e-09  -0.00312588 
         -50     0.003759  2.02901e-06 -2.32847e-09  -0.00312588 
         -50     0.005872  3.13124e-06 -3.03207e-09  -0.00312588 
         -50     0.008457  4.44234e-06  -3.3113e-09  -0.00312588 
         -50      0.01151  5.93829e-06 -2.81991e-09  -0.00312588 
         -50     0.015036  7.59606e-06 -1.13765e-09  -0.00312588 
         -50     0.019031  9.38534e-06  2.23984e-09  -0.00312588 
         -50     0.023493  1.12747e-05  7.91353e-09  -0.00312588 
         -50     0.028429  1.32346e-05  1.66058e-08  -0.00312587 
         -50     0.033831  1.52286e-05  2.91183e-08  -0.00312587 
         -50     0.039706  1.72256e-05  4.63616e-08  -0.00312587 
         -50     0.046047  1.91895e-05  6.92475e-08  -0.00312587 
         -50     0.052863  2.10897e-05  9.87345e-08  -0.00312587 
         -50      0.06015  2.28925e-05  1.35713e-07  -0.00312587 
         -50       0.0679  2.45651e-05  1.81103e-07  -0.00312587 
         -50     0.076126  2.60839e-05  2.36337e-07  -0.00312587 
         -50     0.084816  2.74276e-05  3.03672e-07  -0.00312587 
         -50     0.093982  2.85742e-05  3.81409e-07  -0.00312586 
         -50     0.103611  2.95109e-05  4.71052e-07  -0.00312586 
         -50     0.113718  3.02288e-05  5.76236e-07  -0.00312586 
         -50     0.124286  3.07217e-05  6.98874e-07  -0.00312586 
         -50     0.135333  3.09906e-05  8.40117e-07  -0.00312585 
         -50      0.14685  3.10402e-05   1.0002e-06  -0.00312585 
         -50     0.158827  3.08808e-05  1.17944e-06  -0.00312585 
         -50     0.171284   3.0526e-05  1.37963e-06  -0.00312584 
         -50     0.184201  2.99938e-05  1.60346e-06  -0.00312584 
         -50     0.197599  2.93034e-05  1.85587e-06  -0.00312584 
         -50     0.211455  2.84779e-05  2.14106e-06  -0.00312583 
         -50     0.225792  2.75398e-05  2.46065e-06  -0.00312583 
         -50       0.2406  2.65149e-05  2.80498e-06  -0.00312582 
         -50     0.255865  2.54363e-05  3.16664e-06  -0.00312582 
         -50     0.271613  2.43154e-05  3.60172e-06  -0.00312581 
         -50     0.287818  2.31784e-05   4.0633e-06  -0.00312581 
         -50     0.304506  2.20596e-05  4.51536e-06  -0.00312581 
         -50      0.32165  2.09904e-05  4.93225e-06   -0.0031258 
         -50     0.339278   1.9992e-05  5.30149e-06   -0.0031258 
         -50     0.357377  1.90817e-05  5.62077e-06  -0.00312579 
         -50      0.37593  1.82707e-05  5.89771e-06  -0.00312578 
         -50     0.394968   1.7563e-05  6.14856e-06  -0.00312577 
         -50     0.414461  1.69614e-05  6.39422e-06  -0.00312576 
         -50      0.43444  1.64642e-05  6.65946e-06  -0.00312575 
         -50     0.454872  1.60703e-05  6.96892e-06  -0.00312574 
         -50     0.475791  1.57775e-05  7.34732e-06  -0.00312573 
         -50     0.497163   1.5585e-05  7.81698e-06  -0.00312572 
         -50     0.519021  1.54914e-05  8.40217e-06  -0.00312572 
         -50      0.54135  1.54936e-05  9.13169e-06  -0.00312572 
         -50     0.564131  1.55817e-05  1.00487e-05  -0.00312573 
         -50       0.5874   1.5732e-05  1.12284e-05  -0.00312574 
         -50     0.611121  1.59066e-05  1.26675e-05  -0.00312576 
         -50      0.63533   1.6265e-05  1.29987e-05  -0.00312579 
         -50      0.65999  1.67205e-05   1.3281e-05  -0.00312581 
         -50     0.685139  1.72013e-05  1.35399e-05  -0.00312581 
         -50     0.710759  1.76454e-05  1.37955e-05   -0.0031258 
         -50     0.736828  1.80025e-05  1.40635e-05  -0.00312579 
         -50     0.763387  1.82347e-05  1.43555e-05  -0.00312577 
         -50     0.790396  1.83151e-05  1.46777e-05  -0.00312575 
         -50     0.817896  1.82286e-05   1.5033e-05  -0.00312573 
         -50     0.845843  1.79709e-05  1.54193e-05  -0.00312572 
         -50     0.874283  1.75469e-05  1.58327e-05  -0.00312571 
         -50      0.90317  1.69713e-05  1.62651e-05   -0.0031257 
         -50     0.932551  1.62642e-05  1.67079e-05  -0.00312571 
         -50     0.962401  1.54523e-05  1.71504e-05  -0.00312572 
         -50     0.992697  1.45661e-05  1.75818e-05  -0.00312573 
         -50      1.02349  1.36348e-05   1.7993e-05  -0.00312576 
         -50      1.05472  1.26897e-05  1.83752e-05  -0.00312579 
         -50      1.08645  1.17561e-05  1.87232e-05  -0.00312582 
         -50      1.11863  1.08569e-05  1.90339e-05  -0.00312586 
         -50       1.1513  1.00057e-05  1.93085e-05  -0.00312589 
         -50      1.18444  9.20996e-06  1.95513e-05  -0.00312593 
         -50      1.21802  8.46855e-06  1.97699e-05  -0.00312597 
         -50      1.25211  7.77026e-06  1.99751e-05    -0.003126 
         -50      1.28663   7.0995e-06  2.01782e-05  -0.00312603 
         -50      1.32165  6.43438e-06  2.03899e-05  -0.00312606 
         -50      1.35712  5.75591e-06  2.06162e-05  -0.00312609 
         -50      1.39308  5.05027e-06  2.08547e-05  -0.00312613 
         -50      1.42951  4.32183e-06  2.10885e-05  -0.00312617 
         -50      1.46638  3.60394e-06  2.12788e-05  -0.00312623 
         -50      1.50375  2.97274e-06  2.13563e-05  -0.00312632 
         -50      1.54156  2.33824e-06  2.14654e-05  -0.00312637 
         -50      1.57987  1.70654e-06  2.15635e-05  -0.00312643 
         -50      1.61863  1.08852e-06  2.16395e-05  -0.00312649 
         -50      1.65788  4.85348e-07  2.16937e-05  -0.00312656 
         -50      1.69757 -9.99384e-08   2.1726e-05  -0.00312662 
         -50      1.73776 -6.66382e-07  2.17366e-05  -0.00312669 
         -50      1.77842 -1.21173e-06  2.17258e-05  -0.00312676 
         -50      1.81952 -1.73391e-06   2.1694e-05  -0.00312684 
         -50      1.86113  -2.2323e-06  2.16416e-05  -0.00312691 
         -50      1.90316 -2.70476e-06  2.15691e-05  -0.00312699 
         -50      1.94571  -3.1509e-06  2.14772e-05  -0.00312707 
         -50      1.98869 -3.56903e-06  2.13666e-05  -0.00312715 
         -50      2.03217 -3.95901e-06  2.12379e-05  -0.00312723 
         -50      2.07612 -4.31987e-06  2.10921e-05  -0.00312731 
         -50      2.12051 -4.65093e-06  2.09302e-05  -0.00312739 
         -50       2.1654 -4.95248e-06   2.0753e-05  -0.00312748 
         -50      2.21073 -5.22396e-06  2.05616e-05  -0.00312756 
         -50      2.25656 -5.46594e-06  2.03569e-05  -0.00312764 
         -50      2.30283 -5.67835e-06  2.01402e-05  -0.00312773 
         -50       2.3496 -5.86199e-06  1.99124e-05  -0.00312781 
         -50      2.39685 -6.01737e-06  1.96747e-05  -0.00312789 
         -50      2.44452 -6.14521e-06  1.94284e-05  -0.00312797 
         -50      2.49271 -6.24669e-06  1.91742e-05  -0.00312806 
         -50      2.54132 -6.32279e-06  1.89136e-05  -0.00312814 
         -50      2.59044 -6.37489e-06  1.86474e-05  -0.00312822 
         -50         2.64 -6.40428e-06  1.83768e-05  -0.00312829 
         -50      2.69006 -6.41251e-06  1.81026e-05  -0.00312837 
         -50      2.74056 -6.40114e-06  1.78259e-05  -0.00312845 
         -50      2.79156 -6.37181e-06  1.75473e-05  -0.00312852 
         -50      2.84304 -6.32622e-06  1.72678e-05   -0.0031286 
         -50      2.89494 -6.26618e-06  1.69882e-05  -0.00312867 
         -50      2.94735 -6.19333e-06  1.67088e-05  -0.00312874 
         -50       3.0002 -6.10953e-06  1.64305e-05  -0.00312881 
         -50      3.05355 -6.01635e-06  1.61533e-05  -0.00312888 
         -50      3.10733 -5.91559e-06  1.58781e-05  -0.00312895 
         -50      3.16163 -5.80864e-06  1.56046e-05  -0.00312901 
         -50      3.21639 -5.69704e-06  1.53334e-05  -0.00312908 
         -50      3.27158 -5.58221e-06  1.50647e-05  -0.00312914 
         -50      3.32729 -5.46512e-06  1.47983e-05   -0.0031292 
         -50      3.38342 -5.34695e-06  1.45346e-05  -0.00312926 
         -50      3.44007 -5.22827e-06  1.42734e-05  -0.00312932 
         -50      3.49714 -5.10983e-06  1.40151e-05  -0.00312937 
         -50      3.55472 -4.99172e-06  1.37596e-05  -0.00312943 
         -50      3.61273 -4.87417e-06  1.35075e-05  -0.00312948 
         -50      3.67125 -4.75672e-06   1.3259e-05  -0.00312953 
         -50      3.73025 -4.63892e-06   1.3015e-05  -0.00312958 
         -50      3.78967 -4.52119e-06  1.27725e-05  -0.00312962 
         -50      3.84961 -4.40828e-06  1.25339e-05  -0.00312967 
         -50      3.90996 -4.30014e-06  1.23017e-05  -0.00312971 
         -50      3.97084 -4.19279e-06   1.2069e-05  -0.00312975 
         -50      4.03214 -4.08837e-06  1.18396e-05  -0.00312979 
         -50      4.09395 -3.98658e-06  1.16139e-05  -0.00312983 
         -50      4.15624 -3.88704e-06  1.13919e-05  -0.00312986 
         -50      4.21895 -3.78948e-06  1.11737e-05   -0.0031299 
         -50      4.28217 -3.69348e-06  1.09588e-05  -0.00312993 
         -50      4.34582 -3.59903e-06  1.07475e-05  -0.00312996 
         -50      4.40998 -3.50589e-06  1.05394e-05  -0.00312999 
         -50      4.47457 -3.41416e-06  1.03349e-05  -0.00313002 
         -50      4.53968 -3.32374e-06  1.01336e-05  -0.00313004 
         -50      4.60525 -3.23474e-06  9.93554e-06  -0.00313007 
         -50      4.67125 -3.14734e-06  9.74089e-06  -0.00313009 
         -50      4.73777 -3.06151e-06  9.54926e-06  -0.00313011 
         -50       4.8047 -2.97751e-06  9.36087e-06  -0.00313013 
         -50      4.87216 -2.89532e-06  9.17531e-06  -0.00313014 
         -50      4.94003 -2.81519e-06  8.99278e-06  -0.00313016 
         -50      5.00843 -2.73709e-06  8.81288e-06  -0.00313017 
         -50      5.07724 -2.66121e-06  8.63582e-06  -0.00313018 
         -50      5.14658  -2.5875e-06  8.46125e-06  -0.00313019 
         -50      5.21639 -2.51603e-06  8.28932e-06  -0.00313019 
         -50      5.28661 -2.44686e-06  8.12026e-06   -0.0031302 
         -50      5.35736 -2.37986e-06  7.95401e-06   -0.0031302 
         -50      5.42852 -2.31511e-06  7.79122e-06   -0.0031302 
         -50      5.50021 -2.25247e-06  7.63221e-06   -0.0031302 
         -50      5.57231 -2.19202e-06  7.47809e-06   -0.0031302 
         -50      5.64493 -2.13367e-06  7.32981e-06   -0.0031302 
         -50      5.71803 -2.07353e-06  7.17588e-06  -0.00313019 
         -50      5.79154 -2.01562e-06  7.02794e-06  -0.00313019 
         -50      5.86558 -1.95959e-06  6.88369e-06  -0.00313018 
         -50      5.94003 -1.90532e-06  6.74202e-06  -0.00313017 
         -50      6.01501 -1.85252e-06  6.60207e-06  -0.00313016 
         -50       6.0904  -1.8011e-06  6.46398e-06  -0.00313014 
         -50      6.16632 -1.75082e-06  6.32788e-06  -0.00313013 
         -50      6.24271 -1.70158e-06  6.19449e-06  -0.00313011 
         -50       6.3195 -1.65336e-06  6.06455e-06  -0.00313009 
         -50      6.39683 -1.60605e-06  5.93825e-06  -0.00313007 
         -50      6.47457 -1.55981e-06  5.81562e-06  -0.00313005 
         -50      6.55284 -1.51478e-06  5.69542e-06  -0.00313002 
         -50      6.63152 -1.47143e-06   5.5754e-06     -0.00313 
         -50      6.71073 -1.43031e-06  5.45116e-06  -0.00312997 
         -50      6.79034 -1.39072e-06  5.33849e-06  -0.00312994 
         -50      6.87049 -1.35188e-06  5.23186e-06  -0.00312991 
         -50      6.95111  -1.3144e-06  5.12445e-06  -0.00312988 
         -50      7.03214  -1.2785e-06  5.01727e-06  -0.00312984 
         -50       7.1137 -1.24417e-06  4.91088e-06  -0.00312981 
         -50      7.19566 -1.21143e-06  4.80607e-06  -0.00312977 
         -50      7.27816 -1.18013e-06  4.70313e-06  -0.00312973 
         -50      7.36106 -1.15013e-06  4.60255e-06  -0.00312969 
         -50      7.44451 -1.12119e-06  4.50436e-06  -0.00312965 
         -50      7.52842  -1.0931e-06  4.40869e-06  -0.00312961 
         -50      7.61273 -1.06567e-06  4.31552e-06  -0.00312956 
         -50      7.69758 -1.03871e-06  4.22449e-06  -0.00312951 
         -50      7.78283 -1.01218e-06  4.13537e-06  -0.00312947 
         -50      7.86862 -9.86069e-07  4.04751e-06  -0.00312941 
         -50      7.95481  -9.6063e-07  3.96041e-06  -0.00312936 
         -50      8.04155 -9.36234e-07  3.87312e-06  -0.00312931 
         -50      8.12868 -9.08798e-07  3.79069e-06  -0.00312925 
         -50      8.21635 -8.82236e-07  3.71072e-06  -0.00312919 
         -50      8.30449  -8.5764e-07  3.63199e-06  -0.00312914 
         -50      8.39303   -8.347e-07  3.55462e-06  -0.00312908 
         -50      8.48211 -8.13085e-07  3.47847e-06  -0.00312901 
         -50      8.57159 -7.92574e-07  3.40365e-06  -0.00312895 
         -50      8.66161 -7.72926e-07  3.32997e-06  -0.00312889 
         -50      8.75203 -7.54013e-07  3.25756e-06  -0.00312882 
         -50      8.84299 -7.35703e-07  3.18636e-06  -0.00312875 
         -50      8.93443 -7.17967e-07   3.1166e-06  -0.00312868 
         -50      9.02626 -7.00836e-07  3.04869e-06  -0.00312861 
         -50      9.11863  -6.8437e-07   2.9831e-06  -0.00312854 
         -50      9.21139 -6.68742e-07  2.92081e-06  -0.00312846 
         -50      9.30471 -6.54145e-07  2.86299e-06  -0.00312838 
         -50      9.39841 -6.39837e-07  2.80334e-06   -0.0031283 
         -50      9.49267  -6.2449e-07  2.74002e-06  -0.00312822 
         -50      9.58739 -6.08865e-07  2.67951e-06  -0.00312814 
         -50      9.68251 -5.93221e-07  2.62145e-06  -0.00312806 
         -50      9.77817  -5.7774e-07  2.56536e-06  -0.00312798 
         -50      9.87422 -5.62622e-07  2.51103e-06  -0.00312789 
         -50      9.97083 -5.47986e-07  2.45809e-06   -0.0031278 
         -50      10.0678 -5.33962e-07  2.40641e-06  -0.00312771 
         -50      10.1654 -5.20606e-07  2.35573e-06  -0.00312762 
         -50      10.2633 -5.07987e-07  2.30598e-06  -0.00312753 
         -50      10.3618 -4.96105e-07  2.25699e-06  -0.00312744 
         -50      10.4607 -4.84962e-07  2.20876e-06  -0.00312734 
         -50      10.5601 -4.74535e-07  2.16128e-06  -0.00312724 
         -50        10.66 -4.64757e-07  2.11449e-06  -0.00312714 
         -50      10.7603 -4.55572e-07   2.0685e-06  -0.00312704 
         -50      10.8611 -4.46882e-07  2.02329e-06  -0.00312694 
         -50      10.9623 -4.38606e-07    1.979e-06  -0.00312684 
         -50      11.0641 -4.30627e-07  1.93564e-06  -0.00312673 
         -50      11.1663 -4.22851e-07  1.89333e-06  -0.00312662 
         -50       11.269 -4.15182e-07  1.85218e-06  -0.00312652 
         -50      11.3721 -4.07519e-07  1.81221e-06   -0.0031264 
         -50      11.4757 -3.99799e-07  1.77351e-06  -0.00312629 
         -50      11.5798 -3.91958e-07  1.73605e-06  -0.00312618 
         -50      11.6844 -3.83985e-07  1.69987e-06  -0.00312606 
         -50      11.7894 -3.75883e-07  1.66483e-06  -0.00312594 
         -50       11.895 -3.67722e-07  1.63085e-06  -0.00312583 
         -50      12.0009 -3.59625e-07  1.59773e-06  -0.00312571 
         -50      12.1073 -3.51763e-07  1.56514e-06  -0.00312558 
         -50      12.2142 -3.44409e-07  1.53272e-06  -0.00312546 
         -50      12.3216 -3.37901e-07  1.49991e-06  -0.00312533 
         -50      12.4294 -3.32696e-07  1.46612e-06  -0.00312521 
         -50      12.5378 -3.29351e-07  1.43048e-06  -0.00312508 
         -50      12.6465 -3.24884e-07  1.39601e-06  -0.00312495 
         -50      12.7558 -3.12444e-07  1.36396e-06  -0.00312482 
         -50      12.8656  -3.0579e-07  1.33564e-06  -0.00312468 
         -50      12.9757 -3.02023e-07  1.30674e-06  -0.00312454 
         -50      13.0864 -2.99312e-07  1.28173e-06   -0.0031244 
         -50      13.1975 -2.95571e-07  1.25536e-06  -0.00312426 
         -50      13.3092 -2.91203e-07  1.22834e-06  -0.00312412 
         -50      13.4212 -2.86533e-07  1.20128e-06  -0.00312398 
         -50      13.5338 -2.81791e-07  1.17457e-06  -0.00312383 
         -50      13.6468 -2.77149e-07  1.14856e-06  -0.00312369 
         -50      13.7603 -2.72713e-07  1.12349e-06  -0.00312354 
         -50      13.8743 -2.68532e-07  1.09941e-06  -0.00312339 
         -50      13.9886  -2.6462e-07  1.07642e-06  -0.00312324 
         -50      14.1036 -2.60951e-07  1.05445e-06  -0.00312309 
         -50      14.2189 -2.57479e-07  1.03347e-06  -0.00312293 
         -50      14.3348 -2.54137e-07  1.01332e-06  -0.00312277 
         -50       14.451 -2.50854e-07    9.939e-07  -0.00312262 
         -50      14.5678 -2.47551e-07  9.75039e-07  -0.00312245 
         -50      14.6851  -2.4416e-07    9.566e-07  -0.00312229 
         -50      14.8028 -2.40624e-07   9.3846e-07  -0.00312213 
         -50       14.921 -2.36896e-07  9.20468e-07  -0.00312196 
         -50      15.0396  -2.3296e-07  9.02562e-07  -0.00312179 
         -50      15.1588 -2.28812e-07  8.84653e-07  -0.00312162 
         -50      15.2783 -2.24487e-07  8.66749e-07  -0.00312145 
         -50      15.3984 -2.20037e-07  8.48846e-07  -0.00312128 
         -50       15.519 -2.15551e-07  8.31025e-07  -0.00312111 
         -50        15.64 -2.11145e-07  8.13414e-07  -0.00312093 
         -50      15.7615 -2.06948e-07  7.96142e-07  -0.00312075 
         -50      15.8834 -2.03126e-07  7.79433e-07  -0.00312057 
         -50      16.0058 -1.99843e-07   7.6349e-07  -0.00312039 
         -50      16.1286 -1.97283e-07  7.48595e-07   -0.0031202 
         -50       16.252 -1.95617e-07  7.34992e-07  -0.00312002 
         -50      16.3759 -1.95011e-07  7.22959e-07  -0.00311983 
         -50      16.5002 -1.95596e-07  7.12754e-07  -0.00311964 
         -50       16.625 -1.97462e-07  7.04568e-07  -0.00311945 
         -50      16.7501 -1.95125e-07  6.92352e-07  -0.00311925 
         -50      16.8759 -1.87843e-07  6.75056e-07  -0.00311906 
         -50       17.002  -1.8191e-07  6.59684e-07  -0.00311886 
         -50      17.1287 -1.76913e-07  6.45712e-07  -0.00311866 
         -50      17.2557 -1.72559e-07  6.32747e-07  -0.00311846 
         -50      17.3834 -1.68635e-07  6.20438e-07  -0.00311826 
         -50      17.5115 -1.65011e-07  6.08538e-07  -0.00311805 
         -50      17.6399 -1.61615e-07  5.96866e-07  -0.00311785 
         -50       17.769 -1.58417e-07  5.85273e-07  -0.00311764 
         -50      17.8984 -1.55427e-07  5.73702e-07  -0.00311743 
         -50      18.0284  -1.5267e-07  5.62104e-07  -0.00311722 
         -50      18.1587 -1.50187e-07  5.50505e-07    -0.003117 
         -50      18.2896 -1.48013e-07  5.38925e-07  -0.00311679 
         -50       18.421 -1.46178e-07  5.27438e-07  -0.00311657 
         -50      18.5528 -1.44696e-07  5.16132e-07  -0.00311635 
         -50      18.6851 -1.43554e-07  5.05077e-07  -0.00311612 
         -50      18.8178 -1.42717e-07  4.94381e-07   -0.0031159 
         -50      18.9511 -1.42117e-07  4.84113e-07  -0.00311567 
         -50      19.0847 -1.41659e-07  4.74361e-07  -0.00311545 
         -50      19.2189 -1.41218e-07  4.65162e-07  -0.00311522 
         -50      19.3535 -1.40643e-07  4.56559e-07  -0.00311499 
         -50      19.4886 -1.39764e-07  4.48531e-07  -0.00311475 
         -50      19.6242 -1.38403e-07  4.41041e-07  -0.00311452 
         -50      19.7602 -1.36382e-07  4.34001e-07  -0.00311428 
         -50      19.8968 -1.33533e-07  4.27259e-07  -0.00311404 
         -50      20.0337 -1.29727e-07  4.20627e-07   -0.0031138 
         -50      20.1712 -1.24877e-07  4.13832e-07  -0.00311355 
         -50      20.3091 -1.21095e-07   4.0668e-07  -0.00311331 
         -50      20.4475 -1.23472e-07  3.99728e-07  -0.00311306 
         -50      20.5864 -1.25001e-07  3.93357e-07  -0.00311281 
         -50      20.7257  -1.2567e-07  3.88181e-07  -0.00311256 
         -50      20.8655 -1.25335e-07  3.84726e-07   -0.0031123 
         -50      21.0058 -1.23682e-07   3.8342e-07  -0.00311205 
         -50      21.1465  -1.2018e-07  3.84526e-07  -0.00311179 
         -50      21.2877 -1.21747e-07  3.71989e-07  -0.00311153 
         -50      21.4294 -1.23514e-07  3.49435e-07  -0.00311127 
         -50      21.5716 -1.16385e-07  3.38759e-07  -0.00311101 
         -50      21.7142 -1.04046e-07  3.37368e-07  -0.00311075 
         -50      21.8573 -8.95631e-08  3.42851e-07  -0.00311048 
         -50      22.0008 -8.11937e-08  3.47123e-07  -0.00311022 
         -50      22.1449 -8.47531e-08  3.38997e-07  -0.00310994 
         -50      22.2893 -8.73239e-08    3.299e-07  -0.00310967 
         -50      22.4344 -8.90504e-08  3.20592e-07  -0.00310939 
         -50      22.5797 -9.00503e-08  3.11672e-07  -0.00310912 
         -50      22.7257 -9.04258e-08  3.03537e-07  -0.00310884 
         -50      22.8721  -9.0258e-08  2.96434e-07  -0.00310856 
         -50      23.0189 -8.96129e-08   2.9046e-07  -0.00310827 
         -50      23.1663 -8.85404e-08  2.85563e-07  -0.00310799 
         -50       23.314 -8.70828e-08  2.81594e-07   -0.0031077 
         -50      23.4623 -8.52727e-08  2.78302e-07  -0.00310741 
         -50       23.611 -8.31482e-08  2.75382e-07  -0.00310712 
         -50      23.7602 -8.07481e-08  2.72484e-07  -0.00310683 
         -50        23.91 -7.81322e-08  2.69263e-07  -0.00310654 
         -50        24.06 -7.53857e-08  2.65408e-07  -0.00310624 
         -50      24.2107 -7.26236e-08  2.60674e-07  -0.00310594 
         -50      24.3617 -7.00176e-08  2.54945e-07  -0.00310564 
         -50      24.5133 -6.77938e-08  2.48253e-07  -0.00310534 
         -50      24.6653 -6.62633e-08  2.40869e-07  -0.00310503 
         -50      24.8178  -6.5827e-08   2.3331e-07  -0.00310473 
         -50      24.9708 -6.70039e-08  2.26447e-07  -0.00310442 
         -50      25.1242 -7.04426e-08  2.21545e-07  -0.00310411 
         -50      25.2781 -7.69583e-08  2.20328e-07   -0.0031038 
         -50      25.4324 -8.75312e-08  2.25068e-07  -0.00310348 
         -50      25.5873 -7.58423e-08  2.13576e-07  -0.00310317 
         -50      25.7426 -6.54351e-08  2.06371e-07  -0.00310285 
         -50      25.8984 -5.84421e-08  2.03246e-07  -0.00310253 
         -50      26.0546 -5.44578e-08  2.02208e-07  -0.00310221 
         -50      26.2114 -5.29307e-08   2.0171e-07  -0.00310188 
         -50      26.3686 -5.32348e-08  2.00706e-07  -0.00310156 
         -50      26.5262 -5.47041e-08  1.98656e-07  -0.00310123 
         -50      26.6844 -5.66973e-08  1.95482e-07   -0.0031009 
         -50      26.8429 -5.86518e-08  1.91514e-07  -0.00310057 
         -50       27.002 -6.01616e-08  1.87347e-07  -0.00310024 
         -50      27.1615 -6.10424e-08  1.83701e-07   -0.0030999 
         -50      27.3216 -6.14225e-08   1.8119e-07  -0.00309956 
         -50      27.4821 -6.18273e-08  1.80068e-07  -0.00309923 
         -50       27.643 -6.05676e-08  1.77041e-07  -0.00309888 
         -50      27.8044  -5.7957e-08  1.73033e-07  -0.00309854 
         -50      27.9663 -5.53065e-08  1.69581e-07   -0.0030982 
         -50      28.1287 -5.26952e-08   1.6655e-07  -0.00309785 
         -50      28.2914 -5.01928e-08  1.63838e-07   -0.0030975 
         -50      28.4548 -4.78447e-08   1.6135e-07  -0.00309715 
         -50      28.6185 -4.56898e-08  1.59021e-07   -0.0030968 
         -50      28.7828 -4.37464e-08  1.56793e-07  -0.00309645 
         -50      28.9475  -4.2027e-08  1.54626e-07  -0.00309609 
         -50      29.1126 -4.05331e-08  1.52491e-07  -0.00309574 
         -50      29.2784 -3.92543e-08  1.50367e-07  -0.00309538 
         -50      29.4444 -3.81775e-08  1.48245e-07  -0.00309502 
         -50       29.611   -3.728e-08  1.46116e-07  -0.00309465 
         -50       29.778  -3.6538e-08  1.43983e-07  -0.00309429 
         -50      29.9456 -3.59218e-08  1.41847e-07  -0.00309392 
         -50      30.1137 -3.54016e-08  1.39714e-07  -0.00309356 
         -50      30.2821 -3.49466e-08  1.37591e-07  -0.00309319 
         -50      30.4511 -3.45252e-08  1.35481e-07  -0.00309281 
         -50      30.6204 -3.41085e-08  1.33391e-07  -0.00309244 
         -50      30.7903 -3.36687e-08  1.31321e-07  -0.00309207 
         -50      30.9606 -3.31822e-08  1.29273e-07  -0.00309169 
         -50      31.1315  -3.2628e-08  1.27242e-07  -0.00309131 
         -50      31.3028 -3.19906e-08  1.25222e-07  -0.00309093 
         -50      31.4745 -3.12597e-08  1.23206e-07  -0.00309055 
         -50      31.6468  -3.0429e-08  1.21178e-07  -0.00309017 
         -50      31.8194 -2.95001e-08  1.19126e-07  -0.00308978 
         -50      31.9926 -2.84779e-08  1.17031e-07  -0.00308939 
         -50      32.1662 -2.73763e-08  1.14877e-07  -0.00308901 
         -50      32.3404 -2.62116e-08  1.12643e-07  -0.00308862 
         -50      32.5149 -2.50095e-08  1.10319e-07  -0.00308822 
         -50        32.69 -2.37967e-08  1.07887e-07  -0.00308783 
         -50      32.8655 -2.26078e-08  1.05343e-07  -0.00308743 
         -50      33.0414 -2.14806e-08   1.0269e-07  -0.00308704 
         -50       33.218 -2.04534e-08  9.99384e-08  -0.00308664 
         -50      33.3948 -1.95692e-08  9.71177e-08  -0.00308624 
         -50      33.5723 -1.88684e-08   9.4268e-08  -0.00308584 
         -50        33.75 -1.83923e-08  9.14595e-08  -0.00308543 
         -50      33.9284 -1.81775e-08  8.87794e-08  -0.00308503 
         -50      34.1073 -1.82563e-08   8.6352e-08  -0.00308462 
         -50      34.2865 -1.86527e-08  8.43369e-08  -0.00308421 
         -50      34.4663 -1.93813e-08    8.293e-08   -0.0030838 
         -50      34.6465 -2.04421e-08  8.23804e-08  -0.00308339 
         -50      34.8272 -2.18219e-08  8.29881e-08  -0.00308298 
         -50      35.0083  -2.1245e-08  8.44443e-08  -0.00308257 
         -50        35.19 -1.84026e-08   8.6157e-08  -0.00308215 
         -50      35.3721 -1.50156e-08  8.87379e-08  -0.00308173 
         -50      35.5546 -1.28339e-08  9.10946e-08  -0.00308131 
         -50      35.7377 -1.69552e-08  8.67311e-08  -0.00308089 
         -50      35.9211 -1.95143e-08  8.38147e-08  -0.00308047 
         -50      36.1052 -2.08342e-08  8.21062e-08  -0.00308005 
         -50      36.2895 -2.11999e-08  8.13871e-08  -0.00307962 
         -50      36.4745 -2.08686e-08  8.14464e-08   -0.0030792 
         -50      36.6598 -2.00672e-08   8.2086e-08  -0.00307877 
         -50      36.8457 -1.89052e-08  8.30291e-08  -0.00307834 
         -50      37.0321  -1.6307e-08  8.24096e-08  -0.00307791 
         -50      37.2188 -1.39812e-08  8.15323e-08  -0.00307748 
         -50      37.4062  -1.1943e-08  8.04381e-08  -0.00307704 
         -50      37.5938 -1.02028e-08   7.9171e-08  -0.00307661 
         -50      37.7821 -8.75502e-09  7.77704e-08  -0.00307617 
         -50      37.9707 -7.59047e-09  7.62787e-08  -0.00307574 
         -50      38.1599 -6.68831e-09  7.47316e-08   -0.0030753 
         -50      38.3496 -6.02461e-09   7.3166e-08  -0.00307486 
         -50      38.5396 -5.56991e-09  7.16157e-08  -0.00307442 
         -50      38.7302 -5.29029e-09  7.01077e-08  -0.00307398 
         -50      38.9211 -5.15069e-09  6.86698e-08  -0.00307353 
         -50      39.1127 -5.11416e-09  6.73214e-08  -0.00307309 
         -50      39.3046 -5.14392e-09  6.60819e-08  -0.00307264 
         -50      39.4971 -5.20402e-09   6.4962e-08  -0.00307219 
         -50      39.6899 -5.26017e-09  6.39716e-08  -0.00307175 
         -50      39.8833 -5.28084e-09  6.31126e-08   -0.0030713 
         -50      40.0772 -5.23773e-09  6.23849e-08  -0.00307084 
         -50      40.2714 -5.10678e-09  6.17831e-08  -0.00307039 
         -50      40.4663 -4.86825e-09  6.12962e-08  -0.00306994 
         -50      40.6615 -4.50809e-09   6.0911e-08  -0.00306948 
         -50      40.8573 -4.01676e-09  6.06091e-08  -0.00306903 
         -50      41.0534 -3.39185e-09    6.037e-08  -0.00306857 
         -50      41.2501 -2.63504e-09  6.01694e-08  -0.00306811 
         -50      41.4473 -1.75539e-09  5.99819e-08  -0.00306765 
         -50      41.6448 -7.68162e-10  5.97805e-08  -0.00306719 
         -50      41.8429  3.08222e-10  5.95374e-08  -0.00306673 
         -50      42.0414  1.44689e-09  5.92262e-08  -0.00306627 
         -50      42.2405  2.61977e-09  5.88213e-08  -0.00306581 
         -50      42.4399  3.79122e-09  5.83009e-08  -0.00306534 
         -50      42.6399  4.92612e-09  5.76466e-08  -0.00306488 
         -50      42.8404  5.98441e-09  5.68464e-08  -0.00306441 
         -50      43.0412  6.92536e-09  5.58967e-08  -0.00306394 
         -50      43.2426  7.71091e-09  5.48005e-08  -0.00306347 
         -50      43.4444  8.30232e-09  5.35757e-08    -0.003063 
         -50      43.6467   8.6668e-09  5.22493e-08  -0.00306253 
         -50      43.8494  8.77583e-09  5.08683e-08  -0.00306206 
         -50      44.0527   8.6096e-09  4.94934e-08  -0.00306159 
         -50      44.2563  8.16879e-09  4.82178e-08  -0.00306111 
         -50      44.4606  7.81821e-09  4.71083e-08  -0.00306064 
         -50      44.6653  7.18226e-09  4.57012e-08  -0.00306016 
         -50      44.8704   6.4191e-09   4.4218e-08  -0.00305969 
         -50       45.076  5.65458e-09  4.28249e-08  -0.00305921 
         -50       45.282  4.98938e-09  4.16433e-08  -0.00305873 
         -50      45.4886  4.49752e-09  4.07453e-08  -0.00305825 
         -50      45.6955  4.23332e-09  4.01632e-08  -0.00305777 
         -50       45.903  4.23147e-09  3.98878e-08  -0.00305729 
         -50      46.1111    4.512e-09  3.98753e-08  -0.00305681 
         -50      46.3194  5.08166e-09  4.00484e-08  -0.00305633 
         -50      46.5283  5.93942e-09  4.03011e-08  -0.00305585 
         -50      46.7376  7.07581e-09  4.05016e-08  -0.00305536 
         -50      46.9475  8.48151e-09  4.04971e-08  -0.00305488 
         -50      47.1577  1.01432e-08  4.01165e-08   -0.0030544 
         -50      47.3685   1.0851e-08  3.93388e-08  -0.00305391 
         -50      47.5798  1.00084e-08  3.86156e-08  -0.00305342 
         -50      47.7914  9.61987e-09  3.78874e-08  -0.00305294 
         -50      48.0037  9.54178e-09  3.71635e-08  -0.00305245 