Variables = x, y, u, v, p

Zone, I=800, F=POINT
         200            0           -0           -0 -8.14886e-05 
         200     0.000234  0.000106015  1.16688e-11 -8.14885e-05 
         200     0.000939  0.000425419    1.879e-10 -8.14882e-05 
         200     0.002113  0.000957306  9.51474e-10 -8.14877e-05 
         200     0.003759   0.00170304  3.01123e-09  -8.1487e-05 
         200     0.005872   0.00266035  7.34809e-09 -8.14861e-05 
         200     0.008457    0.0038315  1.52419e-08  -8.1485e-05 
         200      0.01151   0.00521469  2.82331e-08 -8.14837e-05 
         200     0.015036   0.00681217  4.81811e-08 -8.14822e-05 
         200     0.019031   0.00862215  7.71862e-08 -8.14805e-05 
         200     0.023493    0.0106437  1.17625e-07 -8.14786e-05 
         200     0.028429      0.01288  1.72246e-07 -8.14765e-05 
         200     0.033831    0.0153275  2.43928e-07 -8.14742e-05 
         200     0.039706    0.0179892  3.36009e-07 -8.14717e-05 
         200     0.046047    0.0208621  4.51906e-07  -8.1469e-05 
         200     0.052863    0.0239503  5.95601e-07 -8.14661e-05 
         200      0.06015    0.0272518  7.71135e-07  -8.1463e-05 
         200       0.0679     0.030763  9.82666e-07 -8.14597e-05 
         200     0.076126      0.03449  1.23521e-06 -8.14562e-05 
         200     0.084816    0.0384271  1.53333e-06 -8.14524e-05 
         200     0.093982    0.0425799  1.88268e-06 -8.14485e-05 
         200     0.103611    0.0469424  2.28827e-06 -8.14444e-05 
         200     0.113718    0.0515213  2.75651e-06 -8.14401e-05 
         200     0.124286    0.0563091   3.2927e-06 -8.14356e-05 
         200     0.135333    0.0613137  3.90409e-06 -8.14309e-05 
         200      0.14685     0.066531  4.59689e-06  -8.1426e-05 
         200     0.158827    0.0719565  5.37734e-06 -8.14209e-05 
         200     0.171284    0.0775991  6.25393e-06 -8.14155e-05 
         200     0.184201    0.0834496  7.23272e-06   -8.141e-05 
         200     0.197599    0.0895175  8.32306e-06 -8.14043e-05 
         200     0.211455    0.0957922  9.53109e-06 -8.13984e-05 
         200     0.225792     0.102284  1.08671e-05 -8.13922e-05 
         200       0.2406     0.108988  1.23388e-05 -8.13859e-05 
         200     0.255865     0.115897  1.39535e-05 -8.13794e-05 
         200     0.271613     0.123024  1.57231e-05 -8.13726e-05 
         200     0.287818     0.130356  1.76539e-05 -8.13657e-05 
         200     0.304506     0.137904  1.97587e-05 -8.13585e-05 
         200      0.32165     0.145656  2.20439e-05 -8.13512e-05 
         200     0.339278     0.153624  2.45233e-05 -8.13436e-05 
         200     0.357377     0.161802  2.72054e-05 -8.13358e-05 
         200      0.37593      0.17018  3.00982e-05 -8.13278e-05 
         200     0.394968     0.178773  3.32171e-05 -8.13196e-05 
         200     0.414461     0.187565  3.65682e-05 -8.13112e-05 
         200      0.43444      0.19657   4.0168e-05 -8.13025e-05 
         200     0.454872     0.205773  4.40216e-05 -8.12937e-05 
         200     0.475791     0.215186  4.81469e-05 -8.12846e-05 
         200     0.497163     0.224793  5.25487e-05 -8.12752e-05 
         200     0.519021     0.234607  5.72455e-05 -8.12657e-05 
         200      0.54135     0.244621  6.22459e-05 -8.12559e-05 
         200     0.564131     0.254823  6.75572e-05 -8.12459e-05 
         200       0.5874     0.265227  7.31995e-05 -8.12356e-05 
         200     0.611121     0.275816   7.9176e-05 -8.12251e-05 
         200      0.63533     0.286602  8.55076e-05 -8.12143e-05 
         200      0.65999     0.297565  9.21957e-05 -8.12033e-05 
         200     0.685139     0.308721  9.92622e-05  -8.1192e-05 
         200     0.710759     0.320057  0.000106714 -8.11804e-05 
         200     0.736828      0.33156  0.000114555 -8.11686e-05 
         200     0.763387     0.343244  0.000122809 -8.11564e-05 
         200     0.790396     0.355086  0.000131473  -8.1144e-05 
         200     0.817896     0.367101  0.000140571 -8.11312e-05 
         200     0.845843     0.379263  0.000150097 -8.11181e-05 
         200     0.874283     0.391586  0.000160077 -8.11047e-05 
         200      0.90317     0.404046  0.000170501 -8.10909e-05 
         200     0.932551     0.416655  0.000181396 -8.10768e-05 
         200     0.962401     0.429396  0.000192758 -8.10622e-05 
         200     0.992697     0.442252  0.000204585 -8.10473e-05 
         200      1.02349     0.455235  0.000216901  -8.1032e-05 
         200      1.05472     0.468315  0.000229689 -8.10163e-05 
         200      1.08645     0.481506  0.000242973 -8.10001e-05 
         200      1.11863     0.494775  0.000256732 -8.09834e-05 
         200       1.1513     0.508134   0.00027099 -8.09662e-05 
         200      1.18444     0.521562  0.000285734 -8.09486e-05 
         200      1.21802     0.535037  0.000300948 -8.09304e-05 
         200      1.25211     0.548568  0.000316653 -8.09116e-05 
         200      1.28663     0.562121  0.000332816 -8.08923e-05 
         200      1.32165     0.575706  0.000349456 -8.08723e-05 
         200      1.35712     0.589286  0.000366536 -8.08518e-05 
         200      1.39308     0.602869  0.000384072 -8.08305e-05 
         200      1.42951     0.616431  0.000402035 -8.08086e-05 
         200      1.46638     0.629945  0.000420394  -8.0786e-05 
         200      1.50375     0.643418   0.00043916 -8.07626e-05 
         200      1.54156     0.656812  0.000458283 -8.07383e-05 
         200      1.57987     0.670131  0.000477771 -8.07133e-05 
         200      1.61863      0.68334  0.000497568 -8.06875e-05 
         200      1.65788     0.696441  0.000517678 -8.06609e-05 
         200      1.69757     0.709398  0.000538038 -8.06334e-05 
         200      1.73776     0.722213  0.000558649  -8.0605e-05 
         200      1.77842      0.73486  0.000579463 -8.05757e-05 
         200      1.81952     0.747311  0.000600425 -8.05453e-05 
         200      1.86113     0.759571  0.000621532 -8.05139e-05 
         200      1.90316     0.771601   0.00064271 -8.04815e-05 
         200      1.94571     0.783405  0.000663953 -8.04481e-05 
         200      1.98869     0.794949  0.000685184 -8.04135e-05 
         200      2.03217     0.806236  0.000706393 -8.03779e-05 
         200      2.07612     0.817241  0.000727519 -8.03411e-05 
         200      2.12051     0.827942  0.000748499 -8.03032e-05 
         200       2.1654     0.838343  0.000769322 -8.02642e-05 
         200      2.21073     0.848415  0.000789908 -8.02241e-05 
         200      2.25656     0.858163  0.000810245 -8.01827e-05 
         200      2.30283     0.867562  0.000830256 -8.01403e-05 
         200       2.3496     0.876618  0.000849926 -8.00967e-05 
         200      2.39685     0.885316    0.0008692 -8.00519e-05 
         200      2.44452     0.893642  0.000888018 -8.00059e-05 
         200      2.49271     0.901606  0.000906373 -7.99588e-05 
         200      2.54132     0.909192  0.000924198 -7.99106e-05 
         200      2.59044      0.91641  0.000941488 -7.98611e-05 
         200         2.64     0.923249  0.000958182 -7.98105e-05 
         200      2.69006     0.929719  0.000974279 -7.97588e-05 
         200      2.74056     0.935815   0.00098973 -7.97059e-05 
         200      2.79156     0.941549   0.00100454 -7.96519e-05 
         200      2.84304     0.946922   0.00101867 -7.95968e-05 
         200      2.89494     0.951939   0.00103211 -7.95406e-05 
         200      2.94735     0.956614   0.00104486 -7.94833e-05 
         200       3.0002      0.96095    0.0010569  -7.9425e-05 
         200      3.05355     0.964966   0.00106825 -7.93657e-05 
         200      3.10733     0.968665   0.00107889 -7.93054e-05 
         200      3.16163     0.972066   0.00108885 -7.92442e-05 
         200      3.21639     0.975181   0.00109813  -7.9182e-05 
         200      3.27158      0.97802   0.00110673 -7.91191e-05 
         200      3.32729     0.980602   0.00111469 -7.90553e-05 
         200      3.38342     0.982939   0.00112202 -7.89907e-05 
         200      3.44007     0.985048   0.00112874 -7.89253e-05 
         200      3.49714     0.986941   0.00113488 -7.88592e-05 
         200      3.55472     0.988637   0.00114047 -7.87921e-05 
         200      3.61273     0.990146   0.00114553 -7.87243e-05 
         200      3.67125     0.991486    0.0011501 -7.86555e-05 
         200      3.73025     0.992671   0.00115421 -7.85855e-05 
         200      3.78967     0.993713   0.00115789 -7.85149e-05 
         200      3.84961     0.994625   0.00116115 -7.84427e-05 
         200      3.90996     0.995421   0.00116404 -7.83697e-05 
         200      3.97084     0.996112    0.0011666 -7.82964e-05 
         200      4.03214     0.996709   0.00116884 -7.82232e-05 
         200      4.09395     0.997222   0.00117081 -7.81499e-05 
         200      4.15624     0.997661   0.00117252 -7.80764e-05 
         200      4.21895     0.998035   0.00117399 -7.80025e-05 
         200      4.28217     0.998352   0.00117526  -7.7928e-05 
         200      4.34582      0.99862   0.00117635 -7.78529e-05 
         200      4.40998     0.998844   0.00117728 -7.77769e-05 
         200      4.47457     0.999031   0.00117807 -7.77001e-05 
         200      4.53968     0.999186   0.00117875 -7.76225e-05 
         200      4.60525     0.999315   0.00117933 -7.75442e-05 
         200      4.67125      0.99942   0.00117981 -7.74652e-05 
         200      4.73777     0.999506   0.00118021 -7.73852e-05 
         200       4.8047     0.999576   0.00118054 -7.73038e-05 
         200      4.87216     0.999632    0.0011808 -7.72201e-05 
         200      4.94003     0.999677   0.00118102 -7.71388e-05 
         200      5.00843     0.999713   0.00118121 -7.70581e-05 
         200      5.07724     0.999742   0.00118137  -7.6977e-05 
         200      5.14658     0.999765    0.0011815 -7.68947e-05 
         200      5.21639     0.999783   0.00118161 -7.68098e-05 
         200      5.28661     0.999796   0.00118171 -7.67206e-05 
         200      5.35736     0.999807   0.00118177 -7.66356e-05 
         200      5.42852     0.999816   0.00118183  -7.6546e-05 
         200      5.50021     0.999822   0.00118188 -7.64564e-05 
         200      5.57231     0.999827   0.00118192 -7.63739e-05 
         200      5.64493     0.999831   0.00118196 -7.62877e-05 
         200      5.71803     0.999833   0.00118199 -7.61892e-05 
         200      5.79154     0.999836   0.00118203 -7.61051e-05 
         200      5.86558     0.999837   0.00118207 -7.60255e-05 
         200      5.94003     0.999838   0.00118212 -7.59444e-05 
         200      6.01501     0.999839   0.00118215 -7.58584e-05 
         200       6.0904      0.99984   0.00118218  -7.5767e-05 
         200      6.16632     0.999841    0.0011822 -7.56714e-05 
         200      6.24271     0.999841   0.00118221 -7.55736e-05 
         200       6.3195     0.999842   0.00118222 -7.54758e-05 
         200      6.39683     0.999842   0.00118224 -7.53794e-05 
         200      6.47457     0.999842   0.00118227 -7.52847e-05 
         200      6.55284     0.999842   0.00118232 -7.51902e-05 
         200      6.63152     0.999843   0.00118237  -7.5094e-05 
         200      6.71073     0.999843   0.00118239  -7.4994e-05 
         200      6.79034     0.999843   0.00118239 -7.48908e-05 
         200      6.87049     0.999843   0.00118239 -7.47904e-05 
         200      6.95111     0.999843   0.00118251 -7.47072e-05 
         200      7.03214     0.999844   0.00118245 -7.46096e-05 
         200       7.1137     0.999844   0.00118246 -7.45168e-05 
         200      7.19566     0.999844   0.00118249 -7.44246e-05 
         200      7.27816     0.999844   0.00118254 -7.43305e-05 
         200      7.36106     0.999844   0.00118257 -7.42337e-05 
         200      7.44451     0.999845    0.0011826 -7.41336e-05 
         200      7.52842     0.999845   0.00118262 -7.40309e-05 
         200      7.61273     0.999845   0.00118264 -7.39263e-05 
         200      7.69758     0.999845   0.00118265 -7.38205e-05 
         200      7.78283     0.999845   0.00118267 -7.37145e-05 
         200      7.86862     0.999846   0.00118269 -7.36087e-05 
         200      7.95481     0.999846   0.00118272 -7.35035e-05 
         200      8.04155     0.999846   0.00118275  -7.3399e-05 
         200      8.12868     0.999846   0.00118279  -7.3295e-05 
         200      8.21635     0.999846   0.00118282 -7.31911e-05 
         200      8.30449     0.999847   0.00118286 -7.30868e-05 
         200      8.39303     0.999847   0.00118289 -7.29817e-05 
         200      8.48211     0.999847   0.00118292 -7.28752e-05 
         200      8.57159     0.999847   0.00118294 -7.27673e-05 
         200      8.66161     0.999848   0.00118297 -7.26576e-05 
         200      8.75203     0.999848   0.00118299 -7.25469e-05 
         200      8.84299     0.999848   0.00118301 -7.24355e-05 
         200      8.93443     0.999848   0.00118301 -7.23244e-05 
         200      9.02626     0.999848   0.00118297 -7.22147e-05 
         200      9.11863     0.999849   0.00118306 -7.20988e-05 
         200      9.21139     0.999849   0.00118316 -7.19855e-05 
         200      9.30471     0.999849   0.00118322  -7.1879e-05 
         200      9.39841     0.999849   0.00118322 -7.17789e-05 
         200      9.49267     0.999849   0.00118318 -7.16794e-05 
         200      9.58739      0.99985   0.00118322 -7.15476e-05 
         200      9.68251      0.99985   0.00118327 -7.14171e-05 
         200      9.77817      0.99985   0.00118331 -7.12867e-05 
         200      9.87422      0.99985   0.00118337 -7.11552e-05 
         200      9.97083     0.999851   0.00118334 -7.10556e-05 
         200      10.0678     0.999851   0.00118333  -7.0951e-05 
         200      10.1654     0.999851   0.00118335  -7.0837e-05 
         200      10.2633     0.999851   0.00118339 -7.07176e-05 
         200      10.3618     0.999852   0.00118344 -7.05952e-05 
         200      10.4607     0.999852   0.00118349 -7.04717e-05 
         200      10.5601     0.999852   0.00118353 -7.03479e-05 
         200        10.66     0.999852   0.00118357 -7.02241e-05 
         200      10.7603     0.999853    0.0011836 -7.01005e-05 
         200      10.8611     0.999853   0.00118362 -6.99768e-05 
         200      10.9623     0.999853   0.00118364 -6.98528e-05 
         200      11.0641     0.999853   0.00118365 -6.97281e-05 
         200      11.1663     0.999853   0.00118367 -6.96028e-05 
         200       11.269     0.999854   0.00118369 -6.94768e-05 
         200      11.3721     0.999854   0.00118372 -6.93499e-05 
         200      11.4757     0.999854   0.00118375 -6.92224e-05 
         200      11.5798     0.999854   0.00118378 -6.90944e-05 
         200      11.6844     0.999855   0.00118382 -6.89661e-05 
         200      11.7894     0.999855   0.00118386 -6.88375e-05 
         200       11.895     0.999855    0.0011839 -6.87088e-05 
         200      12.0009     0.999856   0.00118393 -6.85798e-05 
         200      12.1073     0.999856   0.00118397 -6.84504e-05 
         200      12.2142     0.999856   0.00118399 -6.83202e-05 
         200      12.3216     0.999856   0.00118401 -6.81886e-05 
         200      12.4294     0.999856   0.00118403 -6.80555e-05 
         200      12.5378     0.999857   0.00118405 -6.79204e-05 
         200      12.6465     0.999857   0.00118407 -6.77836e-05 
         200      12.7558     0.999857   0.00118411 -6.76458e-05 
         200      12.8656     0.999858   0.00118415  -6.7509e-05 
         200      12.9757     0.999858    0.0011842 -6.73782e-05 
         200      13.0864     0.999858   0.00118425 -6.72503e-05 
         200      13.1975     0.999858   0.00118429 -6.71233e-05 
         200      13.3092     0.999859   0.00118433 -6.69953e-05 
         200      13.4212     0.999859   0.00118435 -6.68655e-05 
         200      13.5338     0.999859   0.00118437  -6.6733e-05 
         200      13.6468     0.999859   0.00118439 -6.65977e-05 
         200      13.7603      0.99986   0.00118441 -6.64596e-05 
         200      13.8743      0.99986   0.00118444  -6.6319e-05 
         200      13.9886      0.99986   0.00118448 -6.61763e-05 
         200      14.1036      0.99986   0.00118452 -6.60314e-05 
         200      14.2189     0.999861   0.00118455 -6.58838e-05 
         200      14.3348     0.999861   0.00118452 -6.57318e-05 
         200       14.451     0.999861   0.00118457  -6.5587e-05 
         200      14.5678     0.999862   0.00118467 -6.54456e-05 
         200      14.6851     0.999862   0.00118471 -6.53016e-05 
         200      14.8028     0.999862   0.00118472 -6.51568e-05 
         200       14.921     0.999862   0.00118471 -6.50116e-05 
         200      15.0396     0.999862    0.0011847 -6.48663e-05 
         200      15.1588     0.999863    0.0011847 -6.47202e-05 
         200      15.2783     0.999863   0.00118471  -6.4573e-05 
         200      15.3984     0.999863   0.00118474 -6.44239e-05 
         200       15.519     0.999864   0.00118479 -6.42725e-05 
         200        15.64     0.999864   0.00118485 -6.41192e-05 
         200      15.7615     0.999865   0.00118491 -6.39641e-05 
         200      15.8834     0.999865   0.00118498 -6.38087e-05 
         200      16.0058     0.999865   0.00118504 -6.36539e-05 
         200      16.1286     0.999865   0.00118509 -6.35012e-05 
         200       16.252     0.999865   0.00118511 -6.33505e-05 
         200      16.3759     0.999866   0.00118511 -6.31997e-05 
         200      16.5002     0.999866   0.00118512 -6.30434e-05 
         200       16.625     0.999866   0.00118519   -6.287e-05 
         200      16.7501     0.999867   0.00118524 -6.27111e-05 
         200      16.8759     0.999867   0.00118518 -6.25762e-05 
         200       17.002     0.999867   0.00118518 -6.24248e-05 
         200      17.1287     0.999867   0.00118521  -6.2267e-05 
         200      17.2557     0.999868   0.00118527 -6.21093e-05 
         200      17.3834     0.999868   0.00118533 -6.19545e-05 
         200      17.5115     0.999869   0.00118539 -6.18032e-05 
         200      17.6399     0.999869   0.00118544 -6.16545e-05 
         200       17.769     0.999869   0.00118547 -6.15061e-05 
         200      17.8984      0.99987    0.0011855 -6.13559e-05 
         200      18.0284      0.99987   0.00118551 -6.12015e-05 
         200      18.1587      0.99987   0.00118552 -6.10417e-05 
         200      18.2896      0.99987   0.00118553 -6.08753e-05 
         200       18.421     0.999871   0.00118555 -6.07029e-05 
         200      18.5528     0.999871   0.00118559 -6.05256e-05 
         200      18.6851     0.999871   0.00118564 -6.03456e-05 
         200      18.8178     0.999872    0.0011857 -6.01659e-05 
         200      18.9511     0.999872   0.00118578 -5.99896e-05 
         200      19.0847     0.999872   0.00118585 -5.98203e-05 
         200      19.2189     0.999873   0.00118592 -5.96602e-05 
         200      19.3535     0.999873   0.00118597 -5.95109e-05 
         200      19.4886     0.999873   0.00118599  -5.9371e-05 
         200      19.6242     0.999874   0.00118597 -5.92364e-05 
         200      19.7602     0.999874   0.00118591 -5.90986e-05 
         200      19.8968     0.999874   0.00118583 -5.89429e-05 
         200      20.0337     0.999875   0.00118578  -5.8779e-05 
         200      20.1712     0.999875   0.00118581  -5.8642e-05 
         200      20.3091     0.999875   0.00118588 -5.84784e-05 
         200      20.4475     0.999876   0.00118598 -5.82926e-05 
         200      20.5864     0.999876    0.0011861 -5.80903e-05 
         200      20.7257     0.999876   0.00118621 -5.78786e-05 
         200      20.8655     0.999876    0.0011863  -5.7667e-05 
         200      21.0058     0.999877   0.00118633 -5.74689e-05 
         200      21.1465     0.999877    0.0011863 -5.73022e-05 
         200      21.2877     0.999878   0.00118623 -5.71914e-05 
         200      21.4294     0.999878   0.00118634  -5.6973e-05 
         200      21.5716     0.999878   0.00118633 -5.67813e-05 
         200      21.7142     0.999878    0.0011863 -5.66143e-05 
         200      21.8573     0.999879    0.0011863 -5.64541e-05 
         200      22.0008     0.999879   0.00118634  -5.6291e-05 
         200      22.1449      0.99988   0.00118641 -5.61202e-05 
         200      22.2893      0.99988   0.00118649 -5.59412e-05 
         200      22.4344      0.99988   0.00118655 -5.57553e-05 
         200      22.5797      0.99988    0.0011866 -5.55655e-05 
         200      22.7257     0.999881   0.00118662 -5.53744e-05 
         200      22.8721     0.999881   0.00118663 -5.51847e-05 
         200      23.0189     0.999881   0.00118663 -5.49983e-05 
         200      23.1663     0.999882   0.00118663 -5.48155e-05 
         200       23.314     0.999882   0.00118665  -5.4636e-05 
         200      23.4623     0.999883   0.00118667 -5.44581e-05 
         200       23.611     0.999883   0.00118671 -5.42801e-05 
         200      23.7602     0.999884   0.00118676 -5.40992e-05 
         200        23.91     0.999884    0.0011868 -5.39133e-05 
         200        24.06     0.999884   0.00118684  -5.3721e-05 
         200      24.2107     0.999884   0.00118687 -5.35214e-05 
         200      24.3617     0.999884   0.00118689  -5.3316e-05 
         200      24.5133     0.999884   0.00118691 -5.31074e-05 
         200      24.6653     0.999885   0.00118695 -5.29007e-05 
         200      24.8178     0.999886   0.00118703 -5.27026e-05 
         200      24.9708     0.999886   0.00118712 -5.25216e-05 
         200      25.1242     0.999887   0.00118718 -5.23672e-05 
         200      25.2781     0.999887   0.00118707 -5.22466e-05 
         200      25.4324     0.999887   0.00118707 -5.20948e-05 
         200      25.5873     0.999887   0.00118715 -5.19004e-05 
         200      25.7426     0.999887   0.00118742 -5.15897e-05 
         200      25.8984     0.999888   0.00118756 -5.12743e-05 
         200      26.0546     0.999889   0.00118712 -5.12446e-05 
         200      26.2114      0.99989   0.00118704 -5.11297e-05 
         200      26.3686     0.999889   0.00118713 -5.09604e-05 
         200      26.5262     0.999889   0.00118729 -5.07593e-05 
         200      26.6844      0.99989   0.00118745 -5.05424e-05 
         200      26.8429      0.99989   0.00118757 -5.03205e-05 
         200       27.002      0.99989   0.00118766 -5.00997e-05 
         200      27.1615     0.999891   0.00118769 -4.98837e-05 
         200      27.3216     0.999892   0.00118769 -4.96728e-05 
         200      27.4821     0.999892   0.00118767 -4.94667e-05 
         200       27.643     0.999893   0.00118765 -4.92636e-05 
         200      27.8044     0.999893   0.00118762 -4.90613e-05 
         200      27.9663     0.999894   0.00118761 -4.88577e-05 
         200      28.1287     0.999894   0.00118762 -4.86509e-05 
         200      28.2914     0.999894   0.00118764 -4.84396e-05 
         200      28.4548     0.999894   0.00118768 -4.82228e-05 
         200      28.6185     0.999894   0.00118773 -4.80005e-05 
         200      28.7828     0.999895    0.0011878 -4.77727e-05 
         200      28.9475     0.999895   0.00118787 -4.75405e-05 
         200      29.1126     0.999895   0.00118796 -4.73049e-05 
         200      29.2784     0.999896   0.00118802 -4.71135e-05 
         200      29.4444     0.999896   0.00118806 -4.69315e-05 
         200       29.611     0.999897   0.00118809 -4.67446e-05 
         200       29.778     0.999898   0.00118809  -4.6554e-05 
         200      29.9456     0.999898   0.00118806 -4.63595e-05 
         200      30.1137     0.999899   0.00118801 -4.61613e-05 
         200      30.2821     0.999899   0.00118796  -4.5959e-05 
         200      30.4511     0.999899   0.00118794 -4.57516e-05 
         200      30.6204       0.9999   0.00118799 -4.55392e-05 
         200      30.7903       0.9999   0.00118812 -4.53224e-05 
         200      30.9606       0.9999   0.00118833 -4.51045e-05 
         200      31.1315       0.9999   0.00118851 -4.48911e-05 
         200      31.3028     0.999901   0.00118847 -4.46937e-05 
         200      31.4745     0.999902   0.00118823 -4.44884e-05 
         200      31.6468     0.999902   0.00118847 -4.42272e-05 
         200      31.8194     0.999903   0.00118854 -4.40071e-05 
         200      31.9926     0.999902   0.00118838  -4.3828e-05 
         200      32.1662     0.999903   0.00118834 -4.36026e-05 
         200      32.3404     0.999903   0.00118836 -4.33564e-05 
         200      32.5149     0.999903   0.00118842 -4.31067e-05 
         200        32.69     0.999904    0.0011885  -4.2863e-05 
         200      32.8655     0.999905   0.00118857 -4.26301e-05 
         200      33.0414     0.999905   0.00118863 -4.24088e-05 
         200       33.218     0.999906   0.00118866  -4.2197e-05 
         200      33.3948     0.999906   0.00118868 -4.19917e-05 
         200      33.5723     0.999907   0.00118868 -4.17888e-05 
         200        33.75     0.999907   0.00118867 -4.15849e-05 
         200      33.9284     0.999907   0.00118866 -4.13767e-05 
         200      34.1073     0.999908   0.00118866 -4.11619e-05 
         200      34.2865     0.999908   0.00118867 -4.09397e-05 
         200      34.4663     0.999908    0.0011887 -4.07098e-05 
         200      34.6465     0.999909   0.00118875 -4.04735e-05 
         200      34.8272     0.999909    0.0011888 -4.02325e-05 
         200      35.0083     0.999909   0.00118887 -3.99895e-05 
         200        35.19      0.99991   0.00118893 -3.97469e-05 
         200      35.3721      0.99991   0.00118899 -3.95076e-05 
         200      35.5546     0.999911   0.00118903  -3.9274e-05 
         200      35.7377     0.999911   0.00118905  -3.9047e-05 
         200      35.9211     0.999912   0.00118905 -3.88275e-05 
         200      36.1052     0.999913   0.00118903 -3.86142e-05 
         200      36.2895     0.999914   0.00118901 -3.84052e-05 
         200      36.4745     0.999914     0.001189 -3.81969e-05 
         200      36.6598     0.999915   0.00118901 -3.79853e-05 
         200      36.8457     0.999916   0.00118907 -3.77656e-05 
         200      37.0321     0.999916   0.00118917 -3.75339e-05 
         200      37.2188     0.999916   0.00118933  -3.7288e-05 
         200      37.4062     0.999916   0.00118949 -3.70286e-05 
         200      37.5938     0.999915   0.00118959 -3.67625e-05 
         200      37.7821     0.999915   0.00118947 -3.65033e-05 
         200      37.9707     0.999916   0.00118888 -3.62768e-05 
         200      38.1599     0.999917   0.00118897 -3.59673e-05 
         200      38.3496     0.999917   0.00118941 -3.56445e-05 
         200      38.5396     0.999917   0.00118953 -3.54023e-05 
         200      38.7302     0.999917    0.0011895 -3.52333e-05 
         200      38.9211     0.999918   0.00118941 -3.51359e-05 
         200      39.1127     0.999919   0.00118923 -3.51117e-05 
         200      39.3046      0.99992   0.00118916 -3.46939e-05 
         200      39.4971     0.999921   0.00118922 -3.42854e-05 
         200      39.6899     0.999922   0.00118934 -3.39538e-05 
         200      39.8833     0.999922   0.00118947 -3.36768e-05 
         200      40.0772     0.999922   0.00118958 -3.34365e-05 
         200      40.2714     0.999922   0.00118966 -3.32188e-05 
         200      40.4663     0.999922   0.00118971 -3.30119e-05 
         200      40.6615     0.999922   0.00118973 -3.28074e-05 
         200      40.8573     0.999923   0.00118973  -3.2599e-05 
         200      41.0534     0.999923    0.0011897 -3.23829e-05 
         200      41.2501     0.999924   0.00118967 -3.21565e-05 
         200      41.4473     0.999925   0.00118964  -3.1919e-05 
         200      41.6448     0.999925   0.00118962 -3.16709e-05 
         200      41.8429     0.999926   0.00118962  -3.1413e-05 
         200      42.0414     0.999927   0.00118963 -3.11475e-05 
         200      42.2405     0.999928   0.00118965 -3.08761e-05 
         200      42.4399     0.999928    0.0011897 -3.06015e-05 
         200      42.6399     0.999929   0.00118976 -3.03255e-05 
         200      42.8404     0.999929   0.00118983 -3.00504e-05 
         200      43.0412     0.999929    0.0011899 -2.97781e-05 
         200      43.2426     0.999929   0.00118996 -2.95092e-05 
         200      43.4444     0.999929   0.00119002 -2.92449e-05 
         200      43.6467     0.999929   0.00119007 -2.89847e-05 
         200      43.8494     0.999929    0.0011901 -2.87285e-05 
         200      44.0527      0.99993   0.00119011 -2.84748e-05 
         200      44.2563      0.99993   0.00119011 -2.82223e-05 
         200      44.4606     0.999931    0.0011901 -2.79686e-05 
         200      44.6653     0.999931   0.00119008 -2.77116e-05 
         200      44.8704     0.999932   0.00119006 -2.74493e-05 
         200       45.076     0.999933   0.00119006 -2.71794e-05 
         200       45.282     0.999934   0.00119008 -2.69008e-05 
         200      45.4886     0.999935   0.00119012 -2.66127e-05 
         200      45.6955     0.999935   0.00119019 -2.63166e-05 
         200       45.903     0.999935   0.00119029  -2.6015e-05 
         200      46.1111     0.999935   0.00119038 -2.57136e-05 
         200      46.3194     0.999935   0.00119043 -2.54212e-05 
         200      46.5283     0.999935   0.00119039 -2.51499e-05 
         200      46.7376     0.999935   0.00119016 -2.49173e-05 
         200      46.9475     0.999938   0.00118961  -2.4746e-05 
         200      47.1577     0.999938   0.00118979 -2.44173e-05 
         200      47.3685     0.999936   0.00119015  -2.4081e-05 
         200      47.5798     0.999936   0.00119034 -2.38147e-05 
         200      47.7914     0.999937   0.00119045 -2.35945e-05 
         200      48.0037     0.999938   0.00119053 -2.33997e-05 