Variables = x, y, u, v, p

Zone, I=800, F=POINT
         750            0           -0           -0 -2.44197e-05 
         750     0.000234  7.44675e-05  3.99845e-12 -2.44197e-05 
         750     0.000939  0.000298825  6.44985e-11 -2.44196e-05 
         750     0.002113  0.000672435  3.26698e-10 -2.44194e-05 
         750     0.003759   0.00119625  1.03402e-09 -2.44192e-05 
         750     0.005872   0.00186869  2.52326e-09 -2.44189e-05 
         750     0.008457   0.00269133  5.23387e-09 -2.44185e-05 
         750      0.01151   0.00366291  9.69478e-09  -2.4418e-05 
         750     0.015036   0.00478502  1.65444e-08 -2.44175e-05 
         750     0.019031   0.00605638  2.65038e-08 -2.44169e-05 
         750     0.023493   0.00747636   4.0389e-08 -2.44163e-05 
         750     0.028429   0.00904718  5.91439e-08 -2.44156e-05 
         750     0.033831    0.0107663  8.37563e-08 -2.44148e-05 
         750     0.039706     0.012636  1.15372e-07 -2.44139e-05 
         750     0.046047    0.0146539  1.55164e-07  -2.4413e-05 
         750     0.052863     0.016823  2.04499e-07  -2.4412e-05 
         750      0.06015     0.019142  2.64764e-07 -2.44109e-05 
         750       0.0679    0.0216084  3.37386e-07 -2.44098e-05 
         750     0.076126    0.0242262  4.24085e-07 -2.44086e-05 
         750     0.084816    0.0269916  5.26434e-07 -2.44073e-05 
         750     0.093982    0.0299086  6.46361e-07  -2.4406e-05 
         750     0.103611    0.0329729   7.8559e-07 -2.44046e-05 
         750     0.113718    0.0361892  9.46331e-07 -2.44031e-05 
         750     0.124286    0.0395523  1.13039e-06 -2.44015e-05 
         750     0.135333    0.0430677  1.34026e-06 -2.43999e-05 
         750      0.14685    0.0467326  1.57807e-06 -2.43982e-05 
         750     0.158827    0.0505439  1.84596e-06 -2.43965e-05 
         750     0.171284    0.0545078  2.14687e-06 -2.43947e-05 
         750     0.184201     0.058618  2.48286e-06 -2.43928e-05 
         750     0.197599    0.0628811  2.85714e-06 -2.43908e-05 
         750     0.211455    0.0672898  3.27183e-06 -2.43888e-05 
         750     0.225792    0.0718514  3.73047e-06 -2.43867e-05 
         750       0.2406    0.0765625  4.23574e-06 -2.43845e-05 
         750     0.255865    0.0814187  4.79009e-06 -2.43823e-05 
         750     0.271613    0.0864282  5.39778e-06   -2.438e-05 
         750     0.287818    0.0915827  6.06091e-06 -2.43776e-05 
         750     0.304506    0.0968902   6.7838e-06 -2.43751e-05 
         750      0.32165     0.102342  7.56873e-06 -2.43726e-05 
         750     0.339278     0.107947  8.42057e-06   -2.437e-05 
         750     0.357377     0.113701  9.34238e-06 -2.43674e-05 
         750      0.37593     0.119599  1.03369e-05 -2.43647e-05 
         750     0.394968     0.125649  1.14096e-05 -2.43619e-05 
         750     0.414461     0.131843  1.25624e-05  -2.4359e-05 
         750      0.43444      0.13819  1.38013e-05 -2.43561e-05 
         750     0.454872     0.144678  1.51281e-05 -2.43531e-05 
         750     0.475791     0.151319  1.65493e-05   -2.435e-05 
         750     0.497163     0.158102  1.80668e-05 -2.43468e-05 
         750     0.519021     0.165036  1.96873e-05 -2.43436e-05 
         750      0.54135     0.172117   2.1414e-05 -2.43403e-05 
         750     0.564131     0.179337  2.32494e-05  -2.4337e-05 
         750       0.5874     0.186708   2.5201e-05 -2.43335e-05 
         750     0.611121     0.194218  2.72719e-05 -2.43299e-05 
         750      0.63533     0.201878  2.94674e-05 -2.43265e-05 
         750      0.65999     0.209674   3.1788e-05 -2.43229e-05 
         750     0.685139     0.217619  3.42441e-05 -2.43191e-05 
         750     0.710759     0.225706  3.68395e-05 -2.43153e-05 
         750     0.736828     0.233926  3.95767e-05 -2.43114e-05 
         750     0.763387     0.242293  4.24645e-05 -2.43074e-05 
         750     0.790396     0.250791  4.55026e-05 -2.43033e-05 
         750     0.817896     0.259433  4.86999e-05 -2.42992e-05 
         750     0.845843     0.268204  5.20558e-05  -2.4295e-05 
         750     0.874283     0.277116  5.55805e-05 -2.42907e-05 
         750      0.90317     0.286154  5.92732e-05 -2.42864e-05 
         750     0.932551      0.29533   6.3145e-05 -2.42819e-05 
         750     0.962401     0.304636  6.71982e-05 -2.42774e-05 
         750     0.992697     0.314061  7.14346e-05 -2.42728e-05 
         750      1.02349      0.32362  7.58661e-05  -2.4268e-05 
         750      1.05472     0.333293  8.04899e-05 -2.42632e-05 
         750      1.08645     0.343095  8.53181e-05 -2.42583e-05 
         750      1.11863     0.353007  9.03465e-05 -2.42533e-05 
         750       1.1513     0.363041  9.55866e-05 -2.42481e-05 
         750      1.18444     0.373188  0.000101038 -2.42429e-05 
         750      1.21802     0.383436  0.000106698 -2.42376e-05 
         750      1.25211     0.393797  0.000112581 -2.42322e-05 
         750      1.28663     0.404252  0.000118681 -2.42267e-05 
         750      1.32165     0.414813  0.000125013  -2.4221e-05 
         750      1.35712      0.42546   0.00013157 -2.42152e-05 
         750      1.39308     0.436205  0.000138369 -2.42093e-05 
         750      1.42951     0.447035  0.000145405 -2.42033e-05 
         750      1.46638     0.457936  0.000152666 -2.41974e-05 
         750      1.50375     0.468921  0.000160145 -2.41917e-05 
         750      1.54156     0.479967  0.000167879 -2.41849e-05 
         750      1.57987     0.491086  0.000175872 -2.41779e-05 
         750      1.61863     0.502255  0.000184101 -2.41708e-05 
         750      1.65788     0.513484  0.000192574 -2.41638e-05 
         750      1.69757      0.52475  0.000201275 -2.41566e-05 
         750      1.73776     0.536064  0.000210215 -2.41494e-05 
         750      1.77842      0.54741  0.000219386 -2.41421e-05 
         750      1.81952     0.558771  0.000228778 -2.41347e-05 
         750      1.86113     0.570159  0.000238405 -2.41271e-05 
         750      1.90316     0.581546   0.00024825 -2.41194e-05 
         750      1.94571     0.592944  0.000258325 -2.41115e-05 
         750      1.98869     0.604325  0.000268612 -2.41033e-05 
         750      2.03217     0.615699  0.000279122 -2.40949e-05 
         750      2.07612     0.627048  0.000289841 -2.40863e-05 
         750      2.12051     0.638354  0.000300753 -2.40774e-05 
         750       2.1654     0.649626  0.000311868 -2.40682e-05 
         750      2.21073     0.660836  0.000323159 -2.40587e-05 
         750      2.25656     0.671992  0.000334632  -2.4049e-05 
         750      2.30283     0.683068  0.000346257 -2.40389e-05 
         750       2.3496      0.69407  0.000358041 -2.40285e-05 
         750      2.39685      0.70498   0.00036996 -2.40177e-05 
         750      2.44452     0.715779  0.000381991 -2.40067e-05 
         750      2.49271     0.726474  0.000394137 -2.39954e-05 
         750      2.54132     0.737038  0.000406365 -2.39839e-05 
         750      2.59044     0.747479  0.000418679  -2.3972e-05 
         750         2.64     0.757768  0.000431043 -2.39599e-05 
         750      2.69006     0.767913  0.000443462 -2.39476e-05 
         750      2.74056     0.777888  0.000455901  -2.3935e-05 
         750      2.79156       0.7877  0.000468364 -2.39222e-05 
         750      2.84304      0.79733  0.000480826 -2.39091e-05 
         750      2.89494     0.806762   0.00049326 -2.38958e-05 
         750      2.94735     0.816004  0.000505669 -2.38823e-05 
         750       3.0002     0.825031  0.000518018 -2.38684e-05 
         750      3.05355     0.833851  0.000530305 -2.38543e-05 
         750      3.10733     0.842441  0.000542493 -2.38399e-05 
         750      3.16163     0.850809  0.000554579 -2.38251e-05 
         750      3.21639     0.858941  0.000566532 -2.38099e-05 
         750      3.27158     0.866826  0.000578316 -2.37944e-05 
         750      3.32729      0.87447  0.000589928 -2.37786e-05 
         750      3.38342     0.881857  0.000601324 -2.37624e-05 
         750      3.44007     0.888994  0.000612502 -2.37459e-05 
         750      3.49714     0.895868  0.000623427 -2.37293e-05 
         750      3.55472     0.902487  0.000634111 -2.37127e-05 
         750      3.61273     0.908838  0.000644544 -2.36964e-05 
         750      3.67125     0.914931  0.000654772 -2.36807e-05 
         750      3.73025      0.92076  0.000664848 -2.36663e-05 
         750      3.78967     0.926321   0.00067435 -2.36434e-05 
         750      3.84961     0.931625   0.00068348 -2.36148e-05 
         750      3.90996     0.936666  0.000692401 -2.35854e-05 
         750      3.97084     0.941453  0.000701079 -2.35556e-05 
         750      4.03214     0.945983   0.00070946 -2.35255e-05 
         750      4.09395     0.950267  0.000717529 -2.34953e-05 
         750      4.15624     0.954306  0.000725258 -2.34652e-05 
         750      4.21895     0.958103  0.000732628 -2.34353e-05 
         750      4.28217     0.961669  0.000739643 -2.34058e-05 
         750      4.34582     0.965005  0.000746289 -2.33768e-05 
         750      4.40998     0.968124  0.000752579 -2.33483e-05 
         750      4.47457     0.971028  0.000758507 -2.33205e-05 
         750      4.53968     0.973729  0.000764091 -2.32934e-05 
         750      4.60525     0.976234  0.000769334 -2.32672e-05 
         750      4.67125     0.978549  0.000774245 -2.32419e-05 
         750      4.73777     0.980686  0.000778842 -2.32175e-05 
         750       4.8047      0.98265  0.000783131 -2.31941e-05 
         750      4.87216     0.984453  0.000787129 -2.31718e-05 
         750      4.94003     0.986102  0.000790843 -2.31505e-05 
         750      5.00843     0.987607   0.00079429 -2.31303e-05 
         750      5.07724     0.988976  0.000797476 -2.31111e-05 
         750      5.14658     0.990218  0.000800416 -2.30929e-05 
         750      5.21639     0.991341  0.000803118 -2.30755e-05 
         750      5.28661     0.992353  0.000805591 -2.30587e-05 
         750      5.35736     0.993264  0.000807848 -2.30425e-05 
         750      5.42852     0.994079  0.000809895 -2.30264e-05 
         750      5.50021     0.994808  0.000811746 -2.30101e-05 
         750      5.57231     0.995457  0.000813409 -2.29931e-05 
         750      5.64493     0.996033  0.000814896 -2.29751e-05 
         750      5.71803     0.996543  0.000816219 -2.29553e-05 
         750      5.79154     0.996992  0.000817389 -2.29332e-05 
         750      5.86558     0.997387   0.00081842 -2.29079e-05 
         750      5.94003     0.997733  0.000819325 -2.28788e-05 
         750      6.01501     0.998035  0.000820121 -2.28448e-05 
         750       6.0904     0.998298  0.000820821 -2.28051e-05 
         750      6.16632     0.998526  0.000821441 -2.27589e-05 
         750      6.24271     0.998723  0.000821996 -2.27052e-05 
         750       6.3195     0.998892    0.0008225 -2.26433e-05 
         750      6.39683     0.999038  0.000822889 -2.26333e-05 
         750      6.47457     0.999162   0.00082323 -2.26297e-05 
         750      6.55284     0.999267  0.000823554  -2.2615e-05 
         750      6.63152     0.999357  0.000823857 -2.25922e-05 
         750      6.71073     0.999432  0.000824139 -2.25637e-05 
         750      6.79034     0.999496  0.000824397  -2.2532e-05 
         750      6.87049     0.999549  0.000824625  -2.2499e-05 
         750      6.95111     0.999594  0.000824818 -2.24662e-05 
         750      7.03214      0.99963  0.000824971 -2.24348e-05 
         750       7.1137     0.999661   0.00082508 -2.24055e-05 
         750      7.19566     0.999686  0.000825144 -2.23785e-05 
         750      7.27816     0.999707  0.000825167  -2.2353e-05 
         750      7.36106     0.999724  0.000825163 -2.23276e-05 
         750      7.44451     0.999738  0.000825158 -2.22998e-05 
         750      7.52842     0.999749  0.000825199 -2.22657e-05 
         750      7.61273     0.999759  0.000825356 -2.22198e-05 
         750      7.69758     0.999766  0.000825304 -2.21944e-05 
         750      7.78283     0.999772  0.000825257 -2.21664e-05 
         750      7.86862     0.999776  0.000825273 -2.21314e-05 
         750      7.95481      0.99978   0.00082532 -2.20942e-05 
         750      8.04155     0.999783  0.000825376 -2.20578e-05 
         750      8.12868     0.999786   0.00082543 -2.20238e-05 
         750      8.21635     0.999788  0.000825475 -2.19926e-05 
         750      8.30449      0.99979  0.000825509 -2.19634e-05 
         750      8.39303     0.999791  0.000825528 -2.19342e-05 
         750      8.48211     0.999792  0.000825527 -2.19021e-05 
         750      8.57159     0.999793  0.000825497  -2.1863e-05 
         750      8.66161     0.999794  0.000825426 -2.18119e-05 
         750      8.75203     0.999794  0.000825293 -2.17429e-05 
         750      8.84299     0.999795  0.000825179 -2.16792e-05 
         750      8.93443     0.999796  0.000825334 -2.16896e-05 
         750      9.02626     0.999796  0.000825436 -2.16848e-05 
         750      9.11863     0.999797  0.000825496 -2.16669e-05 
         750      9.21139     0.999797  0.000825525 -2.16386e-05 
         750      9.30471     0.999797   0.00082553 -2.16022e-05 
         750      9.39841     0.999797  0.000825519 -2.15602e-05 
         750      9.49267     0.999798  0.000825495 -2.15145e-05 
         750      9.58739     0.999798  0.000825465  -2.1467e-05 
         750      9.68251     0.999798  0.000825434 -2.14193e-05 
         750      9.77817     0.999799  0.000825405 -2.13724e-05 
         750      9.87422     0.999799  0.000825384 -2.13271e-05 
         750      9.97083     0.999799  0.000825376 -2.12838e-05 
         750      10.0678       0.9998  0.000825382 -2.12426e-05 
         750      10.1654       0.9998  0.000825406 -2.12034e-05 
         750      10.2633       0.9998  0.000825447 -2.11658e-05 
         750      10.3618     0.999801  0.000825501 -2.11292e-05 
         750      10.4607     0.999801  0.000825562  -2.1093e-05 
         750      10.5601     0.999801   0.00082562 -2.10568e-05 
         750        10.66     0.999802  0.000825663 -2.10199e-05 
         750      10.7603     0.999802   0.00082568  -2.0982e-05 
         750      10.8611     0.999802  0.000825661 -2.09429e-05 
         750      10.9623     0.999803  0.000825605 -2.09025e-05 
         750      11.0641     0.999803  0.000825527 -2.08609e-05 
         750      11.1663     0.999803   0.00082547 -2.08184e-05 
         750       11.269     0.999804  0.000825516 -2.07753e-05 
         750      11.3721     0.999804  0.000825628 -2.07387e-05 
         750      11.4757     0.999804  0.000825507 -2.07172e-05 
         750      11.5798     0.999805  0.000825478 -2.06921e-05 
         750      11.6844     0.999805  0.000825503 -2.06625e-05 
         750      11.7894     0.999805  0.000825553 -2.06278e-05 
         750       11.895     0.999805  0.000825608 -2.05881e-05 
         750      12.0009     0.999806  0.000825654 -2.05439e-05 
         750      12.1073     0.999806  0.000825681 -2.04961e-05 
         750      12.2142     0.999806  0.000825688 -2.04462e-05 
         750      12.3216     0.999807  0.000825675 -2.03957e-05 
         750      12.4294     0.999807  0.000825645 -2.03467e-05 
         750      12.5378     0.999808  0.000825603 -2.03007e-05 
         750      12.6465     0.999808  0.000825556 -2.02595e-05 
         750      12.7558     0.999808  0.000825508 -2.02241e-05 
         750      12.8656     0.999809  0.000825466 -2.01947e-05 
         750      12.9757     0.999809  0.000825434 -2.01703e-05 
         750      13.0864     0.999809  0.000825415 -2.01482e-05 
         750      13.1975      0.99981  0.000825412 -2.01237e-05 
         750      13.3092      0.99981  0.000825426 -2.00893e-05 
         750      13.4212      0.99981  0.000825459 -2.00341e-05 
         750      13.5338     0.999811  0.000825517 -1.99435e-05 
         750      13.6468     0.999811  0.000825608 -1.97978e-05 
         750      13.7603     0.999811  0.000825635 -1.98114e-05 
         750      13.8743     0.999812  0.000825637 -1.98317e-05 
         750      13.9886     0.999812  0.000825632 -1.98287e-05 
         750      14.1036     0.999813  0.000825625 -1.98059e-05 
         750      14.2189     0.999813  0.000825621  -1.9767e-05 
         750      14.3348     0.999814  0.000825626 -1.97158e-05 
         750       14.451     0.999814  0.000825641 -1.96561e-05 
         750      14.5678     0.999814  0.000825668 -1.95917e-05 
         750      14.6851     0.999815  0.000825705 -1.95261e-05 
         750      14.8028     0.999815  0.000825743 -1.94627e-05 
         750       14.921     0.999815  0.000825771 -1.94043e-05 
         750      15.0396     0.999815  0.000825778 -1.93525e-05 
         750      15.1588     0.999816  0.000825753 -1.93072e-05 
         750      15.2783     0.999816    0.0008257 -1.92662e-05 
         750      15.3984     0.999816  0.000825648 -1.92238e-05 
         750       15.519     0.999817  0.000825674 -1.91699e-05 
         750        15.64     0.999817  0.000825908 -1.90908e-05 
         750      15.7615     0.999818  0.000825752 -1.90564e-05 
         750      15.8834     0.999818  0.000825664  -1.9018e-05 
         750      16.0058     0.999819  0.000825623 -1.89768e-05 
         750      16.1286     0.999819  0.000825611  -1.8934e-05 
         750       16.252      0.99982  0.000825617 -1.88904e-05 
         750      16.3759      0.99982  0.000825632 -1.88467e-05 
         750      16.5002      0.99982   0.00082565 -1.88035e-05 
         750       16.625     0.999821   0.00082567 -1.87608e-05 
         750      16.7501     0.999821  0.000825689  -1.8719e-05 
         750      16.8759     0.999822  0.000825708  -1.8678e-05 
         750       17.002     0.999822  0.000825726 -1.86378e-05 
         750      17.1287     0.999823  0.000825745 -1.85981e-05 
         750      17.2557     0.999823  0.000825767 -1.85589e-05 
         750      17.3834     0.999823  0.000825791 -1.85195e-05 
         750      17.5115     0.999824  0.000825819 -1.84798e-05 
         750      17.6399     0.999824   0.00082585 -1.84392e-05 
         750       17.769     0.999824  0.000825882 -1.83971e-05 
         750      17.8984     0.999825  0.000825915  -1.8353e-05 
         750      18.0284     0.999825  0.000825945  -1.8306e-05 
         750      18.1587     0.999825  0.000825968 -1.82556e-05 
         750      18.2896     0.999826  0.000825978 -1.82008e-05 
         750       18.421     0.999826  0.000825968 -1.81405e-05 
         750      18.5528     0.999827  0.000825932  -1.8074e-05 
         750      18.6851     0.999827  0.000825857 -1.79997e-05 
         750      18.8178     0.999828  0.000825734 -1.79167e-05 
         750      18.9511     0.999828  0.000825549 -1.78232e-05 
         750      19.0847     0.999829  0.000825457 -1.77612e-05 
         750      19.2189     0.999829  0.000825622 -1.77665e-05 
         750      19.3535      0.99983  0.000825745 -1.77587e-05 
         750      19.4886      0.99983  0.000825833 -1.77391e-05 
         750      19.6242     0.999831  0.000825893 -1.77092e-05 
         750      19.7602     0.999831  0.000825932 -1.76704e-05 
         750      19.8968     0.999831  0.000825952 -1.76242e-05 
         750      20.0337     0.999832  0.000825958 -1.75719e-05 
         750      20.1712     0.999832   0.00082595  -1.7515e-05 
         750      20.3091     0.999833   0.00082593 -1.74548e-05 
         750      20.4475     0.999833  0.000825899 -1.73924e-05 
         750      20.5864     0.999834  0.000825858  -1.7329e-05 
         750      20.7257     0.999834   0.00082581 -1.72656e-05 
         750      20.8655     0.999834  0.000825756  -1.7203e-05 
         750      21.0058     0.999835  0.000825702 -1.71419e-05 
         750      21.1465     0.999835  0.000825652 -1.70827e-05 
         750      21.2877     0.999836  0.000825614 -1.70257e-05 
         750      21.4294     0.999836  0.000825593 -1.69708e-05 
         750      21.5716     0.999837  0.000825597 -1.69178e-05 
         750      21.7142     0.999837   0.00082563 -1.68661e-05 
         750      21.8573     0.999838  0.000825691 -1.68151e-05 
         750      22.0008     0.999838  0.000825771 -1.67637e-05 
         750      22.1449     0.999839  0.000825849 -1.67105e-05 
         750      22.2893     0.999839  0.000825888 -1.66543e-05 
         750      22.4344     0.999839  0.000825824 -1.65931e-05 
         750      22.5797     0.999839  0.000825631 -1.65339e-05 
         750      22.7257      0.99984  0.000825741 -1.65133e-05 
         750      22.8721     0.999841  0.000825806 -1.64742e-05 
         750      23.0189     0.999842   0.00082584 -1.64208e-05 
         750      23.1663     0.999842  0.000825853 -1.63569e-05 
         750       23.314     0.999843  0.000825855 -1.62857e-05 
         750      23.4623     0.999843  0.000825855 -1.62102e-05 
         750       23.611     0.999843  0.000825857 -1.61326e-05 
         750      23.7602     0.999843  0.000825866  -1.6055e-05 
         750        23.91     0.999844  0.000825883  -1.5979e-05 
         750        24.06     0.999844  0.000825908  -1.5906e-05 
         750      24.2107     0.999845   0.00082594 -1.58371e-05 
         750      24.3617     0.999845  0.000825974 -1.57731e-05 
         750      24.5133     0.999846  0.000826007 -1.57148e-05 
         750      24.6653     0.999847  0.000826032 -1.56629e-05 
         750      24.8178     0.999847  0.000826043 -1.56179e-05 
         750      24.9708     0.999848  0.000826031 -1.55807e-05 
         750      25.1242     0.999849  0.000825989 -1.55521e-05 
         750      25.2781     0.999849  0.000825908 -1.55332e-05 
         750      25.4324      0.99985  0.000825781 -1.55253e-05 
         750      25.5873      0.99985  0.000825803  -1.5472e-05 
         750      25.7426     0.999851  0.000825959 -1.53753e-05 
         750      25.8984     0.999851  0.000826058 -1.52913e-05 
         750      26.0546     0.999851  0.000826117 -1.52164e-05 
         750      26.2114     0.999852  0.000826148 -1.51477e-05 
         750      26.3686     0.999852  0.000826161 -1.50828e-05 
         750      26.5262     0.999852  0.000826161 -1.50203e-05 
         750      26.6844     0.999853   0.00082615 -1.49589e-05 
         750      26.8429     0.999853  0.000826129 -1.48979e-05 
         750       27.002     0.999854  0.000826102 -1.48369e-05 
         750      27.1615     0.999854  0.000826068 -1.47759e-05 
         750      27.3216     0.999855   0.00082603 -1.47147e-05 
         750      27.4821     0.999855   0.00082599 -1.46537e-05 
         750       27.643     0.999856  0.000825952 -1.45931e-05 
         750      27.8044     0.999857   0.00082592 -1.45329e-05 
         750      27.9663     0.999857  0.000825896 -1.44734e-05 
         750      28.1287     0.999858  0.000825886 -1.44144e-05 
         750      28.2914     0.999858  0.000825891 -1.43558e-05 
         750      28.4548     0.999859  0.000825914  -1.4297e-05 
         750      28.6185      0.99986  0.000825952 -1.42377e-05 
         750      28.7828      0.99986  0.000826004 -1.41769e-05 
         750      28.9475     0.999861  0.000826063 -1.41138e-05 
         750      29.1126     0.999861  0.000826121 -1.40474e-05 
         750      29.2784     0.999861  0.000826165 -1.39767e-05 
         750      29.4444     0.999862  0.000826184  -1.3901e-05 
         750       29.611     0.999862  0.000826165 -1.38194e-05 
         750       29.778     0.999863  0.000826099 -1.37321e-05 
         750      29.9456     0.999863   0.00082598 -1.36393e-05 
         750      30.1137     0.999864  0.000825819 -1.35427e-05 
         750      30.2821     0.999864  0.000825639 -1.34451e-05 
         750      30.4511     0.999865  0.000825491 -1.33507e-05 
         750      30.6204     0.999866  0.000825463  -1.3266e-05 
         750      30.7903     0.999866  0.000825692 -1.31997e-05 
         750      30.9606     0.999867  0.000826376  -1.3164e-05 
         750      31.1315     0.999867  0.000826227 -1.31016e-05 
         750      31.3028     0.999868  0.000825799 -1.30402e-05 
         750      31.4745     0.999869  0.000825697 -1.30037e-05 
         750      31.6468     0.999869   0.00082578 -1.29812e-05 
         750      31.8194      0.99987  0.000825948 -1.29641e-05 
         750      31.9926      0.99987  0.000826132 -1.29459e-05 
         750      32.1662     0.999871   0.00082629 -1.29217e-05 
         750      32.3404     0.999871  0.000826397 -1.28885e-05 
         750      32.5149     0.999872  0.000826446 -1.28444e-05 
         750        32.69     0.999872  0.000826437 -1.27884e-05 
         750      32.8655     0.999873  0.000826381 -1.27207e-05 
         750      33.0414     0.999873  0.000826289 -1.26424e-05 
         750       33.218     0.999874  0.000826178 -1.25545e-05 
         750      33.3948     0.999875  0.000826061 -1.24592e-05 
         750      33.5723     0.999875  0.000825952 -1.23582e-05 
         750        33.75     0.999876  0.000825862 -1.22538e-05 
         750      33.9284     0.999876  0.000825798 -1.21481e-05 
         750      34.1073     0.999877  0.000825766 -1.20433e-05 
         750      34.2865     0.999877  0.000825767 -1.19413e-05 
         750      34.4663     0.999878  0.000825799 -1.18436e-05 
         750      34.6465     0.999878  0.000825858 -1.17518e-05 
         750      34.8272     0.999879  0.000825938 -1.16667e-05 
         750      35.0083      0.99988  0.000826032  -1.1589e-05 
         750        35.19      0.99988  0.000826133  -1.1519e-05 
         750      35.3721     0.999881  0.000826232 -1.14566e-05 
         750      35.5546     0.999881  0.000826323 -1.14012e-05 
         750      35.7377     0.999882  0.000826399 -1.13519e-05 
         750      35.9211     0.999883  0.000826458 -1.13076e-05 
         750      36.1052     0.999883  0.000826497 -1.12668e-05 
         750      36.2895     0.999884  0.000826518 -1.12278e-05 
         750      36.4745     0.999885  0.000826521 -1.11887e-05 
         750      36.6598     0.999886  0.000826512 -1.11476e-05 
         750      36.8457     0.999886  0.000826495 -1.11025e-05 
         750      37.0321     0.999887  0.000826476 -1.10514e-05 
         750      37.2188     0.999888   0.00082646 -1.09927e-05 
         750      37.4062     0.999888  0.000826448 -1.09247e-05 
         750      37.5938     0.999889  0.000826439 -1.08466e-05 
         750      37.7821      0.99989  0.000826427 -1.07573e-05 
         750      37.9707      0.99989  0.000826396 -1.06568e-05 
         750      38.1599     0.999891  0.000826321 -1.05456e-05 
         750      38.3496     0.999891  0.000826166 -1.04247e-05 
         750      38.5396     0.999891   0.00082588 -1.02963e-05 
         750      38.7302     0.999892  0.000825597 -1.01923e-05 
         750      38.9211     0.999893  0.000826139 -1.02209e-05 
         750      39.1127     0.999893  0.000826551 -1.02288e-05 
         750      39.3046     0.999894  0.000826834 -1.02127e-05 
         750      39.4971     0.999894  0.000826991 -1.01705e-05 
         750      39.6899     0.999895   0.00082703 -1.01016e-05 
         750      39.8833     0.999896  0.000826966 -1.00079e-05 
         750      40.0772     0.999896  0.000826823 -9.89463e-06 
         750      40.2714     0.999897  0.000826641 -9.77114e-06 
         750      40.4663     0.999898  0.000826477 -9.65197e-06 
         750      40.6615     0.999899  0.000826417  -9.5586e-06 
         750      40.8573     0.999899  0.000826576 -9.52025e-06 
         750      41.0534     0.999899  0.000827113 -9.57594e-06 
         750      41.2501       0.9999  0.000827117 -9.52628e-06 
         750      41.4473     0.999901  0.000826408 -9.29785e-06 
         750      41.6448     0.999902  0.000826119 -9.14645e-06 
         750      41.8429     0.999902  0.000826092 -9.05136e-06 
         750      42.0414     0.999903  0.000826209 -8.99568e-06 
         750      42.2405     0.999903  0.000826389 -8.96531e-06 
         750      42.4399     0.999904  0.000826578 -8.94903e-06 
         750      42.6399     0.999904  0.000826746 -8.93792e-06 
         750      42.8404     0.999905  0.000826883 -8.92519e-06 
         750      43.0412     0.999906  0.000826998 -8.90585e-06 
         750      43.2426     0.999906  0.000827108 -8.87635e-06 
         750      43.4444     0.999907  0.000827089 -8.79782e-06 
         750      43.6467     0.999908  0.000826815   -8.662e-06 
         750      43.8494     0.999909  0.000826572 -8.54139e-06 
         750      44.0527      0.99991  0.000826372 -8.43312e-06 
         750      44.2563      0.99991  0.000826222 -8.33488e-06 
         750      44.4606     0.999911  0.000826121 -8.24423e-06 
         750      44.6653     0.999911  0.000826066 -8.15924e-06 
         750      44.8704     0.999912  0.000826053 -8.07822e-06 
         750       45.076     0.999912  0.000826072 -7.99955e-06 
         750       45.282     0.999913  0.000826116 -7.92216e-06 
         750      45.4886     0.999913  0.000826177 -7.84496e-06 
         750      45.6955     0.999914  0.000826248 -7.76738e-06 
         750       45.903     0.999914  0.000826322 -7.68881e-06 
         750      46.1111     0.999915  0.000826393 -7.60906e-06 
         750      46.3194     0.999916  0.000826456 -7.52809e-06 
         750      46.5283     0.999916  0.000826509 -7.44584e-06 
         750      46.7376     0.999917   0.00082655 -7.36258e-06 
         750      46.9475     0.999918  0.000826576 -7.27842e-06 
         750      47.1577     0.999918  0.000826588 -7.19376e-06 
         750      47.3685     0.999919  0.000826586 -7.10873e-06 
         750      47.5798      0.99992  0.000826571 -7.02363e-06 
         750      47.7914     0.999921  0.000826543 -6.93867e-06 
         750      48.0037     0.999921  0.000826505 -6.85378e-06 