Variables = x, y, u, v, p

Zone, I=800, F=POINT
         650            0           -0           -0 -2.86326e-05 
         650     0.000234  7.81479e-05  4.62945e-12 -2.86325e-05 
         650     0.000939  0.000313593  7.45605e-11 -2.86324e-05 
         650     0.002113  0.000705669  3.77563e-10 -2.86322e-05 
         650     0.003759   0.00125538  1.19492e-09 -2.86319e-05 
         650     0.005872   0.00196105  2.91587e-09 -2.86316e-05 
         650     0.008457   0.00282435  6.04823e-09 -2.86311e-05 
         650      0.01151   0.00384394  1.12033e-08 -2.86306e-05 
         650     0.015036   0.00502151  1.91188e-08   -2.863e-05 
         650     0.019031    0.0063557   3.0628e-08 -2.86293e-05 
         650     0.023493   0.00784586  4.66738e-08 -2.86286e-05 
         650     0.028429   0.00949432  6.83471e-08 -2.86278e-05 
         650     0.033831    0.0112984  9.67893e-08 -2.86268e-05 
         650     0.039706    0.0132605  1.33325e-07 -2.86258e-05 
         650     0.046047    0.0153781  1.79309e-07 -2.86248e-05 
         650     0.052863    0.0176545  2.36321e-07 -2.86236e-05 
         650      0.06015    0.0200881  3.05964e-07 -2.86224e-05 
         650       0.0679    0.0226763  3.89888e-07 -2.86211e-05 
         650     0.076126    0.0254235  4.90079e-07 -2.86197e-05 
         650     0.084816    0.0283256  6.08354e-07 -2.86182e-05 
         650     0.093982    0.0313867  7.46947e-07 -2.86167e-05 
         650     0.103611    0.0346025  9.07845e-07  -2.8615e-05 
         650     0.113718    0.0379778   1.0936e-06 -2.86133e-05 
         650     0.124286     0.041507   1.3063e-06 -2.86115e-05 
         650     0.135333    0.0451962  1.54883e-06 -2.86097e-05 
         650      0.14685    0.0490422  1.82366e-06 -2.86077e-05 
         650     0.158827    0.0530418  2.13325e-06 -2.86057e-05 
         650     0.171284    0.0572016  2.48098e-06 -2.86036e-05 
         650     0.184201    0.0615148  2.86925e-06 -2.86014e-05 
         650     0.197599    0.0659885  3.30178e-06 -2.85991e-05 
         650     0.211455     0.070615  3.78101e-06 -2.85968e-05 
         650     0.225792    0.0754018  4.31103e-06 -2.85944e-05 
         650       0.2406    0.0803455  4.89491e-06 -2.85919e-05 
         650     0.255865    0.0854415  5.53557e-06 -2.85893e-05 
         650     0.271613    0.0906982  6.23775e-06 -2.85866e-05 
         650     0.287818     0.096107  7.00401e-06 -2.85839e-05 
         650     0.304506     0.101676   7.8394e-06  -2.8581e-05 
         650      0.32165     0.107397  8.74651e-06 -2.85781e-05 
         650     0.339278     0.113279  9.73089e-06 -2.85751e-05 
         650     0.357377     0.119316   1.0796e-05 -2.85721e-05 
         650      0.37593     0.125504  1.19451e-05 -2.85689e-05 
         650     0.394968     0.131852  1.31844e-05 -2.85657e-05 
         650     0.414461      0.13835  1.45164e-05 -2.85624e-05 
         650      0.43444     0.145009  1.59478e-05  -2.8559e-05 
         650     0.454872     0.151816  1.74809e-05 -2.85555e-05 
         650     0.475791     0.158782  1.91228e-05  -2.8552e-05 
         650     0.497163     0.165897  2.08759e-05 -2.85483e-05 
         650     0.519021     0.173171  2.27477e-05 -2.85446e-05 
         650      0.54135     0.180597   2.4742e-05 -2.85408e-05 
         650     0.564131      0.18817   2.6862e-05 -2.85369e-05 
         650       0.5874       0.1959  2.91162e-05 -2.85329e-05 
         650     0.611121     0.203774  3.15066e-05 -2.85288e-05 
         650      0.63533     0.211805  3.40416e-05 -2.85247e-05 
         650      0.65999     0.219978  3.67228e-05 -2.85205e-05 
         650     0.685139     0.228306  3.95597e-05 -2.85161e-05 
         650     0.710759     0.236782  4.25559e-05 -2.85117e-05 
         650     0.736828     0.245396   4.5714e-05 -2.85072e-05 
         650     0.763387     0.254162  4.90445e-05 -2.85026e-05 
         650     0.790396     0.263065  5.25478e-05 -2.84979e-05 
         650     0.817896     0.272116  5.62347e-05 -2.84931e-05 
         650     0.845843       0.2813  6.01045e-05 -2.84882e-05 
         650     0.874283     0.290631  6.41693e-05 -2.84832e-05 
         650      0.90317      0.30009  6.84276e-05 -2.84782e-05 
         650     0.932551     0.309692  7.28918e-05  -2.8473e-05 
         650     0.962401     0.319426  7.75634e-05 -2.84677e-05 
         650     0.992697     0.329283  8.24439e-05 -2.84623e-05 
         650      1.02349     0.339275  8.75462e-05 -2.84568e-05 
         650      1.05472     0.349383  9.28668e-05 -2.84511e-05 
         650      1.08645     0.359622  9.84192e-05 -2.84454e-05 
         650      1.11863     0.369971  0.000104199 -2.84395e-05 
         650       1.1513     0.380444   0.00011022 -2.84336e-05 
         650      1.18444     0.391029  0.000116481 -2.84275e-05 
         650      1.21802     0.401713  0.000122982 -2.84212e-05 
         650      1.25211     0.412509  0.000129737 -2.84149e-05 
         650      1.28663     0.423396  0.000136737 -2.84084e-05 
         650      1.32165     0.434387  0.000143998 -2.84017e-05 
         650      1.35712      0.44546   0.00015151 -2.83949e-05 
         650      1.39308     0.456625  0.000159287  -2.8388e-05 
         650      1.42951     0.467871  0.000167326 -2.83809e-05 
         650      1.46638     0.479181  0.000175621 -2.83737e-05 
         650      1.50375     0.490568  0.000184183 -2.83665e-05 
         650      1.54156     0.502007  0.000193009 -2.83597e-05 
         650      1.57987      0.51351  0.000202106 -2.83519e-05 
         650      1.61863     0.525052  0.000211457 -2.83435e-05 
         650      1.65788     0.536644  0.000221078 -2.83347e-05 
         650      1.69757     0.548259  0.000230949 -2.83257e-05 
         650      1.73776     0.559909  0.000241084 -2.83165e-05 
         650      1.77842     0.571576  0.000251474 -2.83073e-05 
         650      1.81952     0.583242  0.000262103 -2.82981e-05 
         650      1.86113     0.594917  0.000272985 -2.82889e-05 
         650      1.90316     0.606573  0.000284097 -2.82797e-05 
         650      1.94571      0.61822   0.00029545 -2.82705e-05 
         650      1.98869      0.62983  0.000307018 -2.82611e-05 
         650      2.03217     0.641411  0.000318811 -2.82514e-05 
         650      2.07612     0.652943  0.000330811 -2.82415e-05 
         650      2.12051     0.664408  0.000342997 -2.82312e-05 
         650       2.1654     0.675814  0.000355378 -2.82205e-05 
         650      2.21073     0.687131  0.000367921 -2.82093e-05 
         650      2.25656     0.698367  0.000380635 -2.81976e-05 
         650      2.30283     0.709493  0.000393483 -2.81854e-05 
         650       2.3496     0.720516  0.000406472 -2.81726e-05 
         650      2.39685     0.731417  0.000419576 -2.81592e-05 
         650      2.44452     0.742175  0.000432768 -2.81454e-05 
         650      2.49271     0.752798   0.00044605 -2.81312e-05 
         650      2.54132     0.763257  0.000459384 -2.81166e-05 
         650      2.59044      0.77356  0.000472772 -2.81016e-05 
         650         2.64     0.783678  0.000486174 -2.80865e-05 
         650      2.69006     0.793619   0.00049959 -2.80712e-05 
         650      2.74056     0.803355   0.00051298 -2.80558e-05 
         650      2.79156     0.812895  0.000526343 -2.80403e-05 
         650      2.84304      0.82222  0.000539647 -2.80247e-05 
         650      2.89494     0.831314  0.000552861  -2.8009e-05 
         650      2.94735     0.840185  0.000565985 -2.79932e-05 
         650       3.0002     0.848811  0.000578976  -2.7977e-05 
         650      3.05355     0.857197  0.000591833 -2.79605e-05 
         650      3.10733     0.865325  0.000604514 -2.79433e-05 
         650      3.16163     0.873202  0.000617019 -2.79253e-05 
         650      3.21639     0.880815  0.000629317 -2.79064e-05 
         650      3.27158     0.888156  0.000641378 -2.78863e-05 
         650      3.32729     0.895231  0.000653202 -2.78651e-05 
         650      3.38342     0.902028  0.000664751 -2.78427e-05 
         650      3.44007     0.908555  0.000676027 -2.78195e-05 
         650      3.49714     0.914801  0.000686996  -2.7796e-05 
         650      3.55472     0.920775  0.000697658 -2.77733e-05 
         650      3.61273     0.926468  0.000707985  -2.7753e-05 
         650      3.67125     0.931891  0.000717981 -2.77373e-05 
         650      3.73025     0.937042  0.000727629 -2.77295e-05 
         650      3.78967     0.941918  0.000736925 -2.77114e-05 
         650      3.84961     0.946533   0.00074586 -2.76855e-05 
         650      3.90996     0.950884   0.00075441 -2.76604e-05 
         650      3.97084     0.954982  0.000762586 -2.76357e-05 
         650      4.03214     0.958826  0.000770375 -2.76111e-05 
         650      4.09395     0.962431  0.000777788 -2.75861e-05 
         650      4.15624     0.965798  0.000784821 -2.75605e-05 
         650      4.21895     0.968933  0.000791471 -2.75343e-05 
         650      4.28217     0.971851  0.000797752 -2.75073e-05 
         650      4.34582     0.974553   0.00080366 -2.74795e-05 
         650      4.40998     0.977054   0.00080921 -2.74508e-05 
         650      4.47457     0.979359    0.0008144 -2.74213e-05 
         650      4.53968      0.98148  0.000819247  -2.7391e-05 
         650      4.60525     0.983425  0.000823757   -2.736e-05 
         650      4.67125     0.985202  0.000827937 -2.73284e-05 
         650      4.73777     0.986824  0.000831805 -2.72964e-05 
         650       4.8047     0.988297  0.000835366 -2.72639e-05 
         650      4.87216     0.989633  0.000838641 -2.72312e-05 
         650      4.94003      0.99084  0.000841637 -2.71983e-05 
         650      5.00843     0.991927  0.000844374 -2.71653e-05 
         650      5.07724     0.992903  0.000846861 -2.71325e-05 
         650      5.14658     0.993777  0.000849117 -2.70998e-05 
         650      5.21639     0.994556  0.000851156 -2.70674e-05 
         650      5.28661     0.995248  0.000852991 -2.70355e-05 
         650      5.35736     0.995863   0.00085464 -2.70042e-05 
         650      5.42852     0.996404  0.000856114 -2.69737e-05 
         650      5.50021     0.996882   0.00085743 -2.69442e-05 
         650      5.57231       0.9973  0.000858601  -2.6916e-05 
         650      5.64493     0.997665   0.00085964 -2.68893e-05 
         650      5.71803     0.997984  0.000860561 -2.68645e-05 
         650      5.79154      0.99826  0.000861375 -2.68422e-05 
         650      5.86558     0.998498  0.000862094 -2.68228e-05 
         650      5.94003     0.998704  0.000862727 -2.68071e-05 
         650      6.01501      0.99888  0.000863287 -2.67957e-05 
         650       6.0904     0.999031  0.000863745  -2.6757e-05 
         650      6.16632     0.999159   0.00086412 -2.66986e-05 
         650      6.24271     0.999268  0.000864449  -2.6647e-05 
         650       6.3195      0.99936  0.000864738 -2.66012e-05 
         650      6.39683     0.999437  0.000864996 -2.65601e-05 
         650      6.47457     0.999502  0.000865225 -2.65226e-05 
         650      6.55284     0.999556  0.000865429 -2.64877e-05 
         650      6.63152     0.999601  0.000865608 -2.64543e-05 
         650      6.71073     0.999638   0.00086576 -2.64217e-05 
         650      6.79034     0.999668  0.000865882 -2.63889e-05 
         650      6.87049     0.999693   0.00086597 -2.63554e-05 
         650      6.95111     0.999714   0.00086602  -2.6321e-05 
         650      7.03214      0.99973  0.000866033 -2.62858e-05 
         650       7.1137     0.999744  0.000866014 -2.62506e-05 
         650      7.19566     0.999755  0.000865981  -2.6217e-05 
         650      7.27816     0.999764  0.000865971  -2.6188e-05 
         650      7.36106     0.999771  0.000866048 -2.61677e-05 
         650      7.44451     0.999776  0.000866313 -2.61624e-05 
         650      7.52842     0.999781  0.000866222 -2.61119e-05 
         650      7.61273     0.999785  0.000866111 -2.60545e-05 
         650      7.69758     0.999788  0.000866093 -2.60045e-05 
         650      7.78283      0.99979  0.000866129   -2.596e-05 
         650      7.86862     0.999792   0.00086619 -2.59192e-05 
         650      7.95481     0.999793  0.000866255 -2.58807e-05 
         650      8.04155     0.999794   0.00086631 -2.58429e-05 
         650      8.12868     0.999795  0.000866349 -2.58045e-05 
         650      8.21635     0.999796  0.000866368 -2.57636e-05 
         650      8.30449     0.999797  0.000866367  -2.5718e-05 
         650      8.39303     0.999797  0.000866349 -2.56652e-05 
         650      8.48211     0.999798  0.000866322 -2.56288e-05 
         650      8.57159     0.999798  0.000866296 -2.55978e-05 
         650      8.66161     0.999799  0.000866275 -2.55657e-05 
         650      8.75203     0.999799  0.000866262 -2.55324e-05 
         650      8.84299       0.9998  0.000866259 -2.54977e-05 
         650      8.93443       0.9998  0.000866266 -2.54615e-05 
         650      9.02626       0.9998  0.000866282 -2.54237e-05 
         650      9.11863     0.999801  0.000866304 -2.53845e-05 
         650      9.21139     0.999801  0.000866329 -2.53438e-05 
         650      9.30471     0.999801  0.000866356 -2.53018e-05 
         650      9.39841     0.999801  0.000866381 -2.52588e-05 
         650      9.49267     0.999802  0.000866402 -2.52148e-05 
         650      9.58739     0.999802  0.000866419 -2.51702e-05 
         650      9.68251     0.999802  0.000866429 -2.51253e-05 
         650      9.77817     0.999803  0.000866432 -2.50801e-05 
         650      9.87422     0.999803  0.000866429 -2.50351e-05 
         650      9.97083     0.999803  0.000866421 -2.49904e-05 
         650      10.0678     0.999804  0.000866409 -2.49463e-05 
         650      10.1654     0.999804  0.000866396 -2.49027e-05 
         650      10.2633     0.999804  0.000866382 -2.48598e-05 
         650      10.3618     0.999805  0.000866371 -2.48176e-05 
         650      10.4607     0.999805  0.000866365  -2.4776e-05 
         650      10.5601     0.999805  0.000866363 -2.47349e-05 
         650        10.66     0.999806  0.000866369  -2.4694e-05 
         650      10.7603     0.999806  0.000866381  -2.4653e-05 
         650      10.8611     0.999806  0.000866398 -2.46115e-05 
         650      10.9623     0.999806  0.000866418 -2.45692e-05 
         650      11.0641     0.999807  0.000866439 -2.45257e-05 
         650      11.1663     0.999807  0.000866457 -2.44805e-05 
         650       11.269     0.999807  0.000866469 -2.44335e-05 
         650      11.3721     0.999808  0.000866471 -2.43844e-05 
         650      11.4757     0.999808  0.000866462 -2.43336e-05 
         650      11.5798     0.999808  0.000866444 -2.42812e-05 
         650      11.6844     0.999809  0.000866424 -2.42284e-05 
         650      11.7894     0.999809  0.000866416 -2.41766e-05 
         650       11.895     0.999809  0.000866444 -2.41279e-05 
         650      12.0009      0.99981  0.000866548 -2.40856e-05 
         650      12.1073      0.99981  0.000866524 -2.40411e-05 
         650      12.2142      0.99981   0.00086644 -2.39949e-05 
         650      12.3216     0.999811  0.000866425 -2.39528e-05 
         650      12.4294     0.999811  0.000866444 -2.39127e-05 
         650      12.5378     0.999811  0.000866473 -2.38731e-05 
         650      12.6465     0.999812    0.0008665 -2.38331e-05 
         650      12.7558     0.999812  0.000866518 -2.37918e-05 
         650      12.8656     0.999812  0.000866525 -2.37488e-05 
         650      12.9757     0.999813  0.000866522 -2.37041e-05 
         650      13.0864     0.999813  0.000866514 -2.36575e-05 
         650      13.1975     0.999814  0.000866504 -2.36092e-05 
         650      13.3092     0.999814  0.000866495 -2.35594e-05 
         650      13.4212     0.999814  0.000866492 -2.35084e-05 
         650      13.5338     0.999815  0.000866496 -2.34563e-05 
         650      13.6468     0.999815  0.000866507 -2.34035e-05 
         650      13.7603     0.999815  0.000866525 -2.33502e-05 
         650      13.8743     0.999816  0.000866549 -2.32967e-05 
         650      13.9886     0.999816  0.000866576 -2.32432e-05 
         650      14.1036     0.999816  0.000866603 -2.31896e-05 
         650      14.2189     0.999817  0.000866627 -2.31363e-05 
         650      14.3348     0.999817  0.000866646  -2.3083e-05 
         650       14.451     0.999817  0.000866656   -2.303e-05 
         650      14.5678     0.999818  0.000866656 -2.29771e-05 
         650      14.6851     0.999818  0.000866646 -2.29243e-05 
         650      14.8028     0.999818  0.000866627 -2.28716e-05 
         650       14.921     0.999819    0.0008666 -2.28188e-05 
         650      15.0396     0.999819  0.000866569 -2.27661e-05 
         650      15.1588      0.99982  0.000866537 -2.27133e-05 
         650      15.2783      0.99982  0.000866509 -2.26607e-05 
         650      15.3984      0.99982  0.000866491  -2.2608e-05 
         650       15.519     0.999821  0.000866485 -2.25556e-05 
         650        15.64     0.999821  0.000866495 -2.25036e-05 
         650      15.7615     0.999822  0.000866522 -2.24518e-05 
         650      15.8834     0.999822  0.000866566 -2.24005e-05 
         650      16.0058     0.999822  0.000866621 -2.23494e-05 
         650      16.1286     0.999823  0.000866681 -2.22983e-05 
         650       16.252     0.999823  0.000866733 -2.22466e-05 
         650      16.3759     0.999823  0.000866764 -2.21933e-05 
         650      16.5002     0.999824  0.000866755 -2.21369e-05 
         650       16.625     0.999824  0.000866686 -2.20752e-05 
         650      16.7501     0.999825  0.000866539 -2.20051e-05 
         650      16.8759     0.999825  0.000866297 -2.19222e-05 
         650       17.002     0.999825  0.000866369 -2.18704e-05 
         650      17.1287     0.999826  0.000866571 -2.18363e-05 
         650      17.2557     0.999827  0.000866762 -2.18033e-05 
         650      17.3834     0.999827  0.000866882 -2.17529e-05 
         650      17.5115     0.999827  0.000866783 -2.16657e-05 
         650      17.6399     0.999827  0.000866538 -2.15732e-05 
         650       17.769     0.999828  0.000866405  -2.1511e-05 
         650      17.8984     0.999828  0.000866593 -2.14877e-05 
         650      18.0284     0.999829   0.00086672 -2.14517e-05 
         650      18.1587     0.999829  0.000866797  -2.1406e-05 
         650      18.2896      0.99983  0.000866832 -2.13532e-05 
         650       18.421      0.99983  0.000866835 -2.12952e-05 
         650      18.5528      0.99983  0.000866816 -2.12339e-05 
         650      18.6851     0.999831  0.000866781 -2.11705e-05 
         650      18.8178     0.999831   0.00086674 -2.11063e-05 
         650      18.9511     0.999831  0.000866696 -2.10418e-05 
         650      19.0847     0.999832  0.000866657 -2.09778e-05 
         650      19.2189     0.999832  0.000866624 -2.09145e-05 
         650      19.3535     0.999833  0.000866602 -2.08522e-05 
         650      19.4886     0.999833   0.00086659 -2.07909e-05 
         650      19.6242     0.999834   0.00086659 -2.07305e-05 
         650      19.7602     0.999834  0.000866602 -2.06711e-05 
         650      19.8968     0.999835  0.000866623 -2.06122e-05 
         650      20.0337     0.999835  0.000866652 -2.05539e-05 
         650      20.1712     0.999836  0.000866688 -2.04956e-05 
         650      20.3091     0.999836  0.000866726 -2.04372e-05 
         650      20.4475     0.999837  0.000866766 -2.03785e-05 
         650      20.5864     0.999837  0.000866804 -2.03193e-05 
         650      20.7257     0.999837  0.000866838 -2.02594e-05 
         650      20.8655     0.999838  0.000866867 -2.01986e-05 
         650      21.0058     0.999838  0.000866889  -2.0137e-05 
         650      21.1465     0.999839  0.000866903 -2.00744e-05 
         650      21.2877     0.999839  0.000866909  -2.0011e-05 
         650      21.4294     0.999839  0.000866908 -1.99468e-05 
         650      21.5716      0.99984    0.0008669 -1.98821e-05 
         650      21.7142      0.99984  0.000866887 -1.98169e-05 
         650      21.8573     0.999841   0.00086687 -1.97516e-05 
         650      22.0008     0.999841  0.000866852 -1.96863e-05 
         650      22.1449     0.999842  0.000866836 -1.96213e-05 
         650      22.2893     0.999842  0.000866824  -1.9557e-05 
         650      22.4344     0.999843  0.000866817 -1.94933e-05 
         650      22.5797     0.999843  0.000866818 -1.94307e-05 
         650      22.7257     0.999844  0.000866828 -1.93689e-05 
         650      22.8721     0.999844  0.000866846  -1.9308e-05 
         650      23.0189     0.999845  0.000866872 -1.92478e-05 
         650      23.1663     0.999845  0.000866904 -1.91879e-05 
         650       23.314     0.999846  0.000866938 -1.91278e-05 
         650      23.4623     0.999846  0.000866971 -1.90664e-05 
         650       23.611     0.999847  0.000866995 -1.90028e-05 
         650      23.7602     0.999847  0.000867004 -1.89352e-05 
         650        23.91     0.999847  0.000866991  -1.8862e-05 
         650        24.06     0.999847   0.00086696 -1.87867e-05 
         650      24.2107     0.999848  0.000866951 -1.87265e-05 
         650      24.3617     0.999849  0.000866932 -1.86611e-05 
         650      24.5133     0.999849  0.000866909 -1.85923e-05 
         650      24.6653      0.99985  0.000866887 -1.85221e-05 
         650      24.8178      0.99985  0.000866871 -1.84514e-05 
         650      24.9708     0.999851  0.000866861 -1.83811e-05 
         650      25.1242     0.999851  0.000866858 -1.83117e-05 
         650      25.2781     0.999852  0.000866861 -1.82434e-05 
         650      25.4324     0.999852   0.00086687 -1.81762e-05 
         650      25.5873     0.999853  0.000866882   -1.811e-05 
         650      25.7426     0.999853  0.000866896 -1.80445e-05 
         650      25.8984     0.999854   0.00086691 -1.79795e-05 
         650      26.0546     0.999854  0.000866922 -1.79146e-05 
         650      26.2114     0.999854   0.00086693 -1.78495e-05 
         650      26.3686     0.999855  0.000866934  -1.7784e-05 
         650      26.5262     0.999855  0.000866934 -1.77178e-05 
         650      26.6844     0.999856  0.000866928 -1.76507e-05 
         650      26.8429     0.999856  0.000866919 -1.75827e-05 
         650       27.002     0.999857  0.000866908 -1.75136e-05 
         650      27.1615     0.999858  0.000866898 -1.74436e-05 
         650      27.3216     0.999858   0.00086689 -1.73727e-05 
         650      27.4821     0.999859  0.000866888  -1.7301e-05 
         650       27.643     0.999859  0.000866896  -1.7229e-05 
         650      27.8044      0.99986  0.000866915 -1.71566e-05 
         650      27.9663      0.99986  0.000866948 -1.70843e-05 
         650      28.1287     0.999861  0.000866995 -1.70121e-05 
         650      28.2914     0.999861  0.000867054 -1.69403e-05 
         650      28.4548     0.999862  0.000867119 -1.68688e-05 
         650      28.6185     0.999862  0.000867182 -1.67979e-05 
         650      28.7828     0.999863  0.000867226 -1.67271e-05 
         650      28.9475     0.999863  0.000867229 -1.66563e-05 
         650      29.1126     0.999864  0.000867157 -1.65851e-05 
         650      29.2784     0.999864  0.000867088 -1.65073e-05 
         650      29.4444     0.999865  0.000867231 -1.64187e-05 
         650       29.611     0.999865   0.00086729 -1.63353e-05 
         650       29.778     0.999866  0.000867283 -1.62553e-05 
         650      29.9456     0.999866  0.000867228 -1.61767e-05 
         650      30.1137     0.999867  0.000867145 -1.60984e-05 
         650      30.2821     0.999867  0.000867055 -1.60192e-05 
         650      30.4511     0.999868  0.000866979 -1.59384e-05 
         650      30.6204     0.999869  0.000866933 -1.58562e-05 
         650      30.7903     0.999869  0.000866932 -1.57728e-05 
         650      30.9606      0.99987  0.000866978 -1.56899e-05 
         650      31.1315      0.99987  0.000867057 -1.56096e-05 
         650      31.3028     0.999871  0.000867126 -1.55357e-05 
         650      31.4745     0.999871  0.000867107 -1.54731e-05 
         650      31.6468     0.999871  0.000866865 -1.54285e-05 
         650      31.8194     0.999872  0.000867001 -1.53483e-05 
         650      31.9926     0.999872  0.000867101 -1.52719e-05 
         650      32.1662     0.999873  0.000867153 -1.51994e-05 
         650      32.3404     0.999873  0.000867172 -1.51286e-05 
         650      32.5149     0.999874  0.000867169 -1.50579e-05 
         650        32.69     0.999875  0.000867154  -1.4986e-05 
         650      32.8655     0.999875  0.000867133 -1.49122e-05 
         650      33.0414     0.999876  0.000867111 -1.48359e-05 
         650       33.218     0.999876  0.000867094  -1.4757e-05 
         650      33.3948     0.999877  0.000867082 -1.46758e-05 
         650      33.5723     0.999877  0.000867079 -1.45926e-05 
         650        33.75     0.999878  0.000867086 -1.45084e-05 
         650      33.9284     0.999879  0.000867104 -1.44241e-05 
         650      34.1073     0.999879  0.000867133 -1.43411e-05 
         650      34.2865      0.99988  0.000867174 -1.42608e-05 
         650      34.4663     0.999881  0.000867227  -1.4185e-05 
         650      34.6465     0.999881  0.000867292 -1.41155e-05 
         650      34.8272     0.999882  0.000867369 -1.40543e-05 
         650      35.0083     0.999883  0.000867458 -1.40037e-05 
         650        35.19     0.999883  0.000867557 -1.39659e-05 
         650      35.3721     0.999884  0.000867633  -1.3922e-05 
         650      35.5546     0.999885  0.000867573 -1.38014e-05 
         650      35.7377     0.999885  0.000867507 -1.36847e-05 
         650      35.9211     0.999886  0.000867441 -1.35724e-05 
         650      36.1052     0.999887  0.000867379 -1.34645e-05 
         650      36.2895     0.999887  0.000867324 -1.33613e-05 
         650      36.4745     0.999888  0.000867276 -1.32623e-05 
         650      36.6598     0.999888  0.000867237 -1.31676e-05 
         650      36.8457     0.999888  0.000867206 -1.30766e-05 
         650      37.0321     0.999889  0.000867183 -1.29891e-05 
         650      37.2188     0.999889  0.000867167 -1.29047e-05 
         650      37.4062      0.99989  0.000867157 -1.28228e-05 
         650      37.5938      0.99989  0.000867153 -1.27428e-05 
         650      37.7821     0.999891  0.000867154 -1.26643e-05 
         650      37.9707     0.999892  0.000867161 -1.25868e-05 
         650      38.1599     0.999892  0.000867172 -1.25096e-05 
         650      38.3496     0.999893  0.000867189 -1.24323e-05 
         650      38.5396     0.999894   0.00086721 -1.23545e-05 
         650      38.7302     0.999894  0.000867237 -1.22757e-05 
         650      38.9211     0.999895  0.000867269 -1.21957e-05 
         650      39.1127     0.999896  0.000867305 -1.21139e-05 
         650      39.3046     0.999896  0.000867345 -1.20305e-05 
         650      39.4971     0.999897  0.000867386  -1.1945e-05 
         650      39.6899     0.999898  0.000867426 -1.18578e-05 
         650      39.8833     0.999898  0.000867462 -1.17687e-05 
         650      40.0772     0.999899   0.00086749 -1.16782e-05 
         650      40.2714     0.999899  0.000867507 -1.15868e-05 
         650      40.4663       0.9999  0.000867507 -1.14949e-05 
         650      40.6615       0.9999  0.000867489 -1.14036e-05 
         650      40.8573     0.999901  0.000867449 -1.13138e-05 
         650      41.0534     0.999902  0.000867389  -1.1227e-05 
         650      41.2501     0.999903  0.000867315 -1.11447e-05 
         650      41.4473     0.999903  0.000867237 -1.10689e-05 
         650      41.6448     0.999904  0.000867178 -1.10022e-05 
         650      41.8429     0.999904  0.000867167 -1.09472e-05 
         650      42.0414     0.999904  0.000867254 -1.09074e-05 
         650      42.2405     0.999904  0.000867505 -1.08864e-05 
         650      42.4399     0.999905  0.000867391 -1.07039e-05 
         650      42.6399     0.999907   0.00086734 -1.05503e-05 
         650      42.8404     0.999907  0.000867335 -1.04203e-05 
         650      43.0412     0.999908  0.000867359 -1.03081e-05 
         650      43.2426     0.999909  0.000867399 -1.02089e-05 
         650      43.4444     0.999909  0.000867446 -1.01193e-05 
         650      43.6467      0.99991  0.000867494 -1.00364e-05 
         650      43.8494      0.99991  0.000867539 -9.95845e-06 
         650      44.0527     0.999911  0.000867579 -9.88371e-06 
         650      44.2563     0.999911  0.000867611 -9.81129e-06 
         650      44.4606     0.999912  0.000867634 -9.74033e-06 
         650      44.6653     0.999912  0.000867648 -9.67031e-06 
         650      44.8704     0.999913  0.000867653 -9.60086e-06 
         650       45.076     0.999913  0.000867649 -9.53143e-06 
         650       45.282     0.999914  0.000867636 -9.46171e-06 
         650      45.4886     0.999915  0.000867615 -9.39107e-06 
         650      45.6955     0.999915  0.000867586   -9.319e-06 
         650       45.903     0.999916  0.000867552 -9.24464e-06 
         650      46.1111     0.999917  0.000867515 -9.16716e-06 
         650      46.3194     0.999918  0.000867477 -9.08559e-06 
         650      46.5283     0.999919  0.000867442 -8.99865e-06 
         650      46.7376     0.999919  0.000867414  -8.9052e-06 
         650      46.9475      0.99992  0.000867397 -8.80374e-06 
         650      47.1577     0.999921  0.000867397 -8.69301e-06 
         650      47.3685     0.999921  0.000867418 -8.57142e-06 
         650      47.5798     0.999922  0.000867465 -8.43766e-06 
         650      47.7914     0.999922  0.000867542 -8.29056e-06 
         650      48.0037     0.999922  0.000867653 -8.12871e-06 