Variables = x, y, u, v, p

Zone, I=400, F=POINT
         300            0           -0           -0 -5.85354e-05 
         300     0.000942  0.000391658  1.45207e-10 -5.85351e-05 
         300     0.003768   0.00156663  2.32334e-09 -5.85342e-05 
         300     0.008478   0.00352493   1.1762e-08 -5.85327e-05 
         300     0.015075   0.00626779  3.71886e-08 -5.85305e-05 
         300     0.023553   0.00979274  9.07802e-08 -5.85277e-05 
         300     0.033916    0.0141014   1.8824e-07 -5.85243e-05 
         300     0.046163    0.0191935  3.48735e-07 -5.85203e-05 
         300       0.0603    0.0250713  5.95041e-07 -5.85157e-05 
         300     0.076315      0.03173  9.53095e-07 -5.85105e-05 
         300     0.094215    0.0391723  1.45265e-06 -5.85046e-05 
         300     0.113999    0.0473978  2.12679e-06 -5.84981e-05 
         300     0.135675    0.0564095  3.01246e-06  -5.8491e-05 
         300     0.159228    0.0662011  4.14911e-06 -5.84833e-05 
         300     0.184664    0.0767744  5.58046e-06  -5.8475e-05 
         300     0.211985    0.0881298  7.35353e-06  -5.8466e-05 
         300     0.241201      0.10027  9.51947e-06 -5.84564e-05 
         300      0.27229     0.113186  1.21303e-05 -5.84462e-05 
         300     0.305263     0.126878  1.52437e-05 -5.84354e-05 
         300     0.340135     0.141352  1.89215e-05 -5.84239e-05 
         300     0.376877     0.156592  2.32237e-05 -5.84118e-05 
         300     0.415503       0.1726  2.82177e-05 -5.83991e-05 
         300     0.456013      0.18937  3.39722e-05 -5.83857e-05 
         300     0.498424     0.206902  4.05609e-05 -5.83716e-05 
         300     0.542703     0.225174  4.80516e-05 -5.83569e-05 
         300     0.588866     0.244183  5.65212e-05 -5.83414e-05 
         300     0.636912     0.263914   6.6045e-05 -5.83253e-05 
         300     0.686864     0.284362  7.67037e-05 -5.83084e-05 
         300     0.738679     0.305489  8.85635e-05 -5.82907e-05 
         300     0.792379     0.327282  0.000101703 -5.82722e-05 
         300     0.847962     0.349714  0.000116192 -5.82528e-05 
         300     0.905453     0.372763  0.000132106 -5.82325e-05 
         300     0.964806     0.396373  0.000149493 -5.82113e-05 
         300      1.02604      0.42051  0.000168415 -5.81891e-05 
         300      1.08919     0.445137  0.000188924 -5.81657e-05 
         300      1.15419     0.470178  0.000211041 -5.81411e-05 
         300      1.22108     0.495579  0.000234794 -5.81152e-05 
         300      1.28985     0.521272  0.000260189 -5.80879e-05 
         300      1.36054     0.547188  0.000287225 -5.80591e-05 
         300      1.43308     0.573222  0.000315848 -5.80287e-05 
         300      1.50751     0.599291  0.000346012 -5.79961e-05 
         300      1.58382     0.625295  0.000377642 -5.79621e-05 
         300      1.66204     0.651136  0.000410639 -5.79258e-05 
         300      1.74212     0.676684  0.000444845 -5.78871e-05 
         300      1.82409     0.701831  0.000480109 -5.78461e-05 
         300      1.90793     0.726456  0.000516242 -5.78025e-05 
         300       1.9937      0.75045   0.00055304 -5.77562e-05 
         300      2.08131     0.773672  0.000590232  -5.7707e-05 
         300      2.17081     0.796017  0.000627567 -5.76549e-05 
         300      2.26223     0.817383  0.000664778 -5.75995e-05 
         300       2.3555     0.837651  0.000701542 -5.75408e-05 
         300      2.45065     0.856741  0.000737575 -5.74788e-05 
         300      2.54769     0.874578  0.000772582 -5.74134e-05 
         300      2.64665     0.891108  0.000806293 -5.73446e-05 
         300      2.74746     0.906277  0.000838415 -5.72725e-05 
         300      2.85014     0.920071  0.000868726 -5.71971e-05 
         300      2.95472     0.932489  0.000897023 -5.71184e-05 
         300      3.06122     0.943556  0.000923156 -5.70364e-05 
         300      3.16956     0.953302  0.000946992 -5.69512e-05 
         300      3.27979     0.961788  0.000968478 -5.68628e-05 
         300       3.3919      0.96909  0.000987601 -5.67715e-05 
         300      3.50594     0.975294    0.0010044 -5.66779e-05 
         300      3.62181     0.980493   0.00101895 -5.65836e-05 
         300      3.73958     0.984791   0.00103138 -5.64911e-05 
         300      3.85927     0.988295   0.00104182 -5.63957e-05 
         300       3.9808     0.991108    0.0010505 -5.62903e-05 
         300      4.10422     0.993332   0.00105757 -5.61749e-05 
         300      4.22952     0.995062   0.00106325 -5.60558e-05 
         300      4.35675     0.996387   0.00106771   -5.595e-05 
         300      4.48582     0.997384   0.00107118 -5.58399e-05 
         300      4.61677      0.99812   0.00107385 -5.57242e-05 
         300      4.74961     0.998655   0.00107582 -5.56166e-05 
         300      4.88438     0.999036   0.00107728 -5.55014e-05 
         300      5.02099     0.999302   0.00107833 -5.53778e-05 
         300      5.15948     0.999484   0.00107908 -5.52522e-05 
         300      5.29985     0.999607   0.00107962 -5.51296e-05 
         300      5.44217     0.999687   0.00107996 -5.50014e-05 
         300      5.58631     0.999739   0.00108021 -5.48759e-05 
         300      5.73233     0.999772   0.00108037 -5.47512e-05 
         300      5.88024     0.999792   0.00108047 -5.46266e-05 
         300       6.0301     0.999804   0.00108055  -5.4501e-05 
         300      6.18178     0.999812    0.0010806 -5.43741e-05 
         300      6.33534     0.999816   0.00108064 -5.42458e-05 
         300      6.49085     0.999818   0.00108069 -5.41109e-05 
         300      6.64818      0.99982   0.00108071 -5.39725e-05 
         300      6.80739     0.999821   0.00108074 -5.38306e-05 
         300      6.96849     0.999822   0.00108077 -5.36902e-05 
         300      7.13154     0.999822    0.0010808 -5.35497e-05 
         300      7.29641     0.999823   0.00108083 -5.34061e-05 
         300      7.46316     0.999824   0.00108086  -5.3257e-05 
         300       7.6318     0.999824   0.00108088 -5.31031e-05 
         300      7.80239     0.999825   0.00108089 -5.29482e-05 
         300      7.97479     0.999825   0.00108091 -5.27975e-05 
         300      8.14908     0.999825   0.00108094 -5.26535e-05 
         300      8.32526     0.999826   0.00108099 -5.25086e-05 
         300      8.50338     0.999826   0.00108099 -5.23348e-05 
         300      8.68333     0.999827     0.001081 -5.22036e-05 
         300      8.86515     0.999828   0.00108111 -5.20468e-05 
         300      9.04894     0.999828   0.00108106 -5.18816e-05 
         300      9.23453     0.999828   0.00108104 -5.17111e-05 
         300      9.42201     0.999829   0.00108112   -5.154e-05 
         300      9.61137      0.99983   0.00108119 -5.13713e-05 
         300      9.80269      0.99983   0.00108121  -5.1211e-05 
         300      9.99583      0.99983   0.00108119 -5.10452e-05 
         300      10.1908     0.999831   0.00108119 -5.08754e-05 
         300      10.3877     0.999831   0.00108125 -5.07031e-05 
         300      10.5866     0.999832   0.00108134 -5.05296e-05 
         300      10.7873     0.999833   0.00108138 -5.03552e-05 
         300      10.9898     0.999833   0.00108135 -5.01779e-05 
         300      11.1943     0.999833   0.00108134  -4.9995e-05 
         300      11.4007     0.999834   0.00108145 -4.98071e-05 
         300      11.6089     0.999835   0.00108139 -4.96204e-05 
         300       11.819     0.999836   0.00108146 -4.94286e-05 
         300       12.031     0.999836   0.00108151   -4.929e-05 
         300      12.2449     0.999837   0.00108139 -4.90797e-05 
         300      12.4606     0.999837   0.00108149   -4.888e-05 
         300      12.6782     0.999838   0.00108164 -4.87011e-05 
         300      12.8978     0.999838   0.00108172 -4.85252e-05 
         300      13.1192     0.999839   0.00108171 -4.83411e-05 
         300      13.3425      0.99984   0.00108167 -4.81447e-05 
         300      13.5677      0.99984   0.00108165 -4.79372e-05 
         300      13.7948     0.999841   0.00108167 -4.77238e-05 
         300      14.0237     0.999841   0.00108174 -4.75114e-05 
         300      14.2546     0.999842   0.00108182 -4.73055e-05 
         300      14.4873     0.999843   0.00108189 -4.71086e-05 
         300      14.7219     0.999843   0.00108191 -4.69185e-05 
         300      14.9584     0.999844    0.0010819 -4.67281e-05 
         300      15.1968     0.999845   0.00108188  -4.6527e-05 
         300      15.4371     0.999845    0.0010819 -4.63069e-05 
         300      15.6792     0.999846     0.001082 -4.60699e-05 
         300      15.9232     0.999847   0.00108211 -4.58423e-05 
         300      16.1691     0.999847   0.00108196 -4.56946e-05 
         300       16.417     0.999848   0.00108211 -4.53979e-05 
         300      16.6666     0.999849   0.00108206 -4.51566e-05 
         300      16.9182     0.999849   0.00108212 -4.49448e-05 
         300      17.1716      0.99985     0.001082 -4.47408e-05 
         300       17.427      0.99985   0.00108211 -4.45529e-05 
         300      17.6842     0.999851    0.0010822 -4.43422e-05 
         300      17.9433     0.999852   0.00108219 -4.41001e-05 
         300      18.2042     0.999853   0.00108219 -4.38507e-05 
         300      18.4672     0.999854   0.00108224 -4.36067e-05 
         300      18.7319     0.999854   0.00108232 -4.33724e-05 
         300      18.9985     0.999855   0.00108241 -4.31463e-05 
         300       19.267     0.999856   0.00108247 -4.29237e-05 
         300      19.5375     0.999856    0.0010825 -4.26987e-05 
         300      19.8098     0.999857   0.00108248 -4.24666e-05 
         300       20.084     0.999858   0.00108246 -4.22243e-05 
         300      20.3601     0.999859   0.00108245 -4.19718e-05 
         300       20.638     0.999859   0.00108248 -4.17125e-05 
         300      20.9178      0.99986   0.00108257 -4.14518e-05 
         300      21.1995     0.999861   0.00108269 -4.11964e-05 
         300      21.4832     0.999862   0.00108278 -4.09511e-05 
         300      21.7687     0.999863   0.00108277 -4.07161e-05 
         300       22.056     0.999863   0.00108265 -4.04812e-05 
         300      22.3452     0.999864   0.00108258 -4.02202e-05 
         300      22.6365     0.999865   0.00108278 -3.99338e-05 
         300      22.9295     0.999865   0.00108291 -3.97262e-05 
         300      23.2243     0.999866   0.00108281 -3.94597e-05 
         300      23.5211     0.999868   0.00108299 -3.90407e-05 
         300      23.8199     0.999868   0.00108273 -3.86735e-05 
         300      24.1204     0.999869   0.00108308 -3.86028e-05 
         300      24.4228      0.99987   0.00108313 -3.84407e-05 
         300      24.7272     0.999871   0.00108304 -3.81966e-05 
         300      25.0334     0.999871   0.00108296 -3.78964e-05 
         300      25.3415     0.999872   0.00108294 -3.75701e-05 
         300      25.6514     0.999873     0.001083 -3.72445e-05 
         300      25.9634     0.999874   0.00108312 -3.69377e-05 
         300      26.2771     0.999875   0.00108325 -3.66576e-05 
         300      26.5927     0.999876   0.00108335 -3.64015e-05 
         300      26.9102     0.999877   0.00108339 -3.61587e-05 
         300      27.2297     0.999878   0.00108337 -3.59146e-05 
         300       27.551     0.999878   0.00108332 -3.56552e-05 
         300      27.8741     0.999879   0.00108328 -3.53715e-05 
         300      28.1991      0.99988   0.00108328 -3.50632e-05 
         300      28.5262     0.999881   0.00108333 -3.47406e-05 
         300       28.855     0.999881   0.00108342 -3.44229e-05 
         300      29.1856     0.999882    0.0010835 -3.41308e-05 
         300      29.5183     0.999883   0.00108351 -3.38744e-05 
         300      29.8528     0.999885   0.00108346 -3.36314e-05 
         300      30.1891     0.999885   0.00108359 -3.33154e-05 
         300      30.5273     0.999886   0.00108363  -3.3033e-05 
         300      30.8676     0.999887   0.00108351   -3.275e-05 
         300      31.2096     0.999888   0.00108361 -3.23976e-05 
         300      31.5534     0.999889   0.00108375 -3.20539e-05 
         300      31.8992      0.99989   0.00108384 -3.17469e-05 
         300      32.2469     0.999891   0.00108385 -3.14726e-05 
         300      32.5965     0.999892   0.00108381 -3.12112e-05 
         300      32.9479     0.999893   0.00108375 -3.09382e-05 
         300      33.3012     0.999894   0.00108371 -3.06345e-05 
         300      33.6565     0.999894   0.00108371 -3.02918e-05 
         300      34.0135     0.999895   0.00108377 -2.99166e-05 
         300      34.3725     0.999897   0.00108393 -2.95297e-05 
         300      34.7334     0.999898   0.00108428 -2.91643e-05 
         300      35.0962     0.999899   0.00108423  -2.8782e-05 
         300      35.4608       0.9999   0.00108418 -2.84468e-05 
         300      35.8272     0.999901   0.00108413 -2.81483e-05 
         300      36.1957     0.999901   0.00108408 -2.78668e-05 
         300       36.566     0.999903   0.00108407 -2.75839e-05 
         300      36.9381     0.999904   0.00108411 -2.72835e-05 
         300      37.3121     0.999905   0.00108417 -2.69541e-05 
         300      37.6882     0.999907    0.0010842 -2.65946e-05 
         300       38.066     0.999907   0.00108415 -2.62243e-05 
         300      38.4456     0.999908   0.00108423  -2.5897e-05 
         300      38.8272     0.999908   0.00108426 -2.55458e-05 
         300      39.2108     0.999909   0.00108437 -2.51853e-05 
         300      39.5961      0.99991   0.00108449 -2.48459e-05 
         300      39.9833     0.999912   0.00108453 -2.45186e-05 
         300      40.3724     0.999914   0.00108451 -2.41978e-05 
         300      40.7635     0.999915   0.00108446 -2.38792e-05 
         300      41.1564     0.999916   0.00108445 -2.35598e-05 
         300      41.5511     0.999917   0.00108448 -2.32364e-05 
         300      41.9479     0.999917   0.00108456  -2.2906e-05 
         300      42.3464     0.999918   0.00108464 -2.25661e-05 
         300      42.7468     0.999919   0.00108469 -2.22146e-05 
         300      43.1491      0.99992   0.00108467 -2.18506e-05 
         300      43.5534     0.999921   0.00108459 -2.14748e-05 
         300      43.9595     0.999923   0.00108446 -2.10898e-05 
         300      44.3674     0.999924   0.00108434 -2.06998e-05 
         300      44.7772     0.999925   0.00108429 -2.03098e-05 
         300      45.1891     0.999926   0.00108438 -1.99244e-05 
         300      45.6027     0.999926   0.00108463 -1.95459e-05 
         300      46.0181     0.999927   0.00108498 -1.91697e-05 
         300      46.4355     0.999928   0.00108526 -1.87799e-05 
         300      46.8549      0.99993    0.0010851 -1.83422e-05 
         300       47.276     0.999932     0.001084  -1.7795e-05 
         300       47.699     0.999932    0.0010843 -1.76042e-05 
         300      48.1241     0.999933   0.00108613  -1.7184e-05 
         300      48.5508     0.999936   0.00108493 -1.68389e-05 
         300      48.9795     0.999936   0.00108465 -1.65449e-05 
         300        49.41     0.999936   0.00108467 -1.62884e-05 
         300      49.8426     0.999936   0.00108476 -1.60109e-05 
         300      50.2769     0.999938   0.00108499 -1.55336e-05 
         300      50.7131     0.999939   0.00108508  -1.5059e-05 
         300      51.1512     0.999941   0.00108508 -1.45947e-05 
         300      51.5914     0.999942   0.00108504 -1.41457e-05 
         300      52.0332     0.999944   0.00108499  -1.3715e-05 
         300      52.4769     0.999945   0.00108497  -1.3303e-05 
         300      52.9225     0.999946   0.00108498 -1.29086e-05 
         300      53.3702     0.999947   0.00108501  -1.2529e-05 
         300      53.8196     0.999948   0.00108506 -1.21604e-05 
         300      54.2709     0.999949   0.00108509 -1.17978e-05 
         300      54.7242     0.999951   0.00108512 -1.14354e-05 
         300      55.1792     0.999952   0.00108513  -1.1068e-05 
         300      55.6362     0.999954   0.00108513 -1.06899e-05 
         300       56.095     0.999955   0.00108514 -1.02967e-05 
         300      56.5558     0.999956   0.00108515 -9.88566e-06 
         300      57.0184     0.999957   0.00108515  -9.4569e-06 
         300      57.4829     0.999958   0.00108514  -9.0139e-06 
         300      57.9492      0.99996   0.00108513 -8.56526e-06 
         300      58.4176     0.999962   0.00108518 -8.12597e-06 
         300      58.8877     0.999962    0.0010854 -7.70519e-06 
         300      59.3597     0.999962    0.0010851 -7.22339e-06 
         300      59.8336     0.999964   0.00108513 -6.80717e-06 
         300      60.3096     0.999966   0.00108526 -6.41233e-06 
         300      60.7872     0.999967   0.00108538 -6.01115e-06 
         300      61.2667     0.999968   0.00108542 -5.58868e-06 
         300      61.7484     0.999969   0.00108539 -5.14149e-06 
         300      62.2317      0.99997    0.0010853  -4.6774e-06 
         300      62.7168     0.999971    0.0010852 -4.21471e-06 
         300      63.2039     0.999972   0.00108515 -3.78416e-06 
         300      63.6931     0.999974   0.00108528 -3.43099e-06 
         300      64.1839     0.999976   0.00108575 -3.21889e-06 
         300      64.6766     0.999977   0.00108553 -2.72378e-06 
         300      65.1712     0.999978   0.00108499 -2.05431e-06 
         300      65.6679     0.999978   0.00108489 -1.49831e-06 
         300      66.1663     0.999979   0.00108509 -1.02719e-06 
         300      66.6665      0.99998   0.00108539 -6.13103e-07 
         300      67.1687     0.999981   0.00108563 -2.29845e-07 
         300      67.6729     0.999983   0.00108569  1.47158e-07 
         300      68.1788     0.999985   0.00108554  5.39199e-07 
         300      68.6866     0.999987   0.00108527  9.63175e-07 
         300      69.1963     0.999989   0.00108507   1.4277e-06 
         300      69.7081      0.99999   0.00108512  1.92853e-06 
         300      70.2215     0.999992   0.00108544  2.44082e-06 
         300      70.7368     0.999992   0.00108559  2.91096e-06 
         300      71.2543     0.999991   0.00108502  3.31978e-06 
         300      71.7734     0.999994   0.00108566  3.86454e-06 
         300      72.2943     0.999996   0.00108564  4.33807e-06 
         300      72.8172     0.999997   0.00108539  4.78922e-06 
         300      73.3422     0.999998   0.00108517  5.24336e-06 
         300      73.8688     0.999999   0.00108507   5.7094e-06 
         300      74.3973            1    0.0010851  6.18712e-06 
         300      74.9277            1   0.00108522  6.67143e-06 
         300      75.4602            1   0.00108536  7.15639e-06 
         300      75.9944            1   0.00108548  7.63699e-06 
         300      76.5305      1.00001   0.00108552  8.11164e-06 
         300      77.0684      1.00001   0.00108548   8.5818e-06 
         300      77.6084      1.00001   0.00108537  9.05184e-06 
         300      78.1502      1.00001   0.00108524  9.52703e-06 
         300      78.6937      1.00001   0.00108513  1.00128e-05 
         300      79.2394      1.00001   0.00108511  1.05119e-05 
         300      79.7868      1.00001   0.00108497  1.10265e-05 
         300      80.3361      1.00001   0.00108482  1.15347e-05 
         300      80.8872      1.00001   0.00108487  1.20357e-05 
         300      81.4404      1.00002   0.00108506  1.25348e-05 
         300      81.9953      1.00002   0.00108528   1.3032e-05 
         300      82.5521      1.00002   0.00108538  1.35248e-05 
         300      83.1108      1.00002   0.00108523   1.4011e-05 
         300      83.6715      1.00002   0.00108482  1.44948e-05 
         300       84.234      1.00002   0.00108438  1.49936e-05 
         300      84.7983      1.00002   0.00108462  1.55504e-05 
         300      85.3645      1.00002   0.00108482  1.59631e-05 
         300      85.9328      1.00003   0.00108453  1.63526e-05 
         300      86.5028      1.00003   0.00108477  1.69009e-05 
         300      87.0747      1.00003   0.00108511  1.75091e-05 
         300      87.6486      1.00003   0.00108531  1.80721e-05 
         300      88.2243      1.00003   0.00108536  1.84598e-05 
         300      88.8018      1.00003   0.00108541  1.88689e-05 
         300      89.3812      1.00004   0.00108498  1.96144e-05 
         300      89.9627      1.00004   0.00108447  2.01935e-05 
         300      90.5458      1.00004   0.00108418  2.06774e-05 
         300      91.1309      1.00004   0.00108419  2.11198e-05 
         300      91.7178      1.00004   0.00108444  2.15584e-05 
         300      92.3069      1.00004   0.00108479  2.20179e-05 
         300      92.8976      1.00004   0.00108509  2.25109e-05 
         300      93.4901      1.00005   0.00108522  2.30418e-05 
         300      94.0846      1.00005   0.00108514  2.36073e-05 
         300      94.6812      1.00005   0.00108486  2.41994e-05 
         300      95.2794      1.00005   0.00108446  2.48056e-05 
         300      95.8796      1.00005   0.00108406  2.54128e-05 
         300      96.4818      1.00006   0.00108377  2.60076e-05 
         300      97.0857      1.00006   0.00108369  2.65779e-05 
         300      97.6915      1.00006   0.00108382  2.71156e-05 
         300      98.2991      1.00006    0.0010841  2.76175e-05 
         300      98.9089      1.00006   0.00108437  2.80875e-05 
         300      99.5203      1.00006   0.00108441  2.85379e-05 
         300      100.134      1.00006   0.00108413  2.89918e-05 
         300      100.749      1.00007   0.00108367   2.9485e-05 
         300      101.366      1.00006   0.00108377  3.00684e-05 
         300      101.985      1.00006   0.00108384  3.05798e-05 
         300      102.606      1.00006   0.00108339  3.10146e-05 
         300      103.229      1.00007   0.00108364  3.15729e-05 
         300      103.854      1.00007   0.00108398   3.2206e-05 
         300       104.48      1.00007   0.00108413  3.28703e-05 
         300      105.108      1.00008   0.00108402  3.35333e-05 
         300      105.739      1.00007   0.00108372  3.41748e-05 
         300      106.371      1.00007   0.00108336  3.47883e-05 
         300      107.005      1.00007   0.00108306   3.5378e-05 
         300      107.641      1.00007   0.00108294   3.5957e-05 
         300      108.279      1.00008   0.00108302  3.65416e-05 
         300      108.919      1.00008   0.00108327  3.71439e-05 
         300       109.56      1.00008   0.00108356  3.77653e-05 
         300      110.204      1.00009   0.00108374  3.83866e-05 
         300      110.849      1.00009   0.00108359  3.89583e-05 
         300      111.497      1.00009   0.00108293  3.93895e-05 
         300      112.146      1.00009   0.00108259  3.98642e-05 
         300      112.797      1.00009   0.00108277  4.04338e-05 
         300       113.45      1.00009   0.00108283  4.09137e-05 
         300      114.105      1.00009   0.00108283  4.13535e-05 
         300      114.761      1.00009   0.00108272  4.17942e-05 
         300       115.42       1.0001   0.00108251  4.22626e-05 
         300      116.081       1.0001    0.0010823  4.27665e-05 
         300      116.743       1.0001   0.00108233  4.32882e-05 
         300      117.407      1.00011   0.00108297  4.37793e-05 
         300      118.073      1.00011   0.00108294  4.45147e-05 
         300      118.741      1.00011   0.00108221  4.52988e-05 
         300      119.411       1.0001   0.00108171  4.59535e-05 
         300      120.083       1.0001   0.00108143  4.65267e-05 
         300      120.757       1.0001   0.00108131  4.70584e-05 
         300      121.432       1.0001   0.00108133  4.75793e-05 
         300       122.11      1.00011   0.00108142  4.81129e-05 
         300      122.789      1.00011   0.00108154  4.86748e-05 
         300       123.47      1.00012   0.00108164  4.92735e-05 
         300      124.153      1.00012   0.00108171  4.99105e-05 
         300      124.838      1.00012    0.0010817  5.05826e-05 
         300      125.525      1.00013   0.00108163  5.12821e-05 
         300      126.214      1.00013   0.00108148  5.19984e-05 
         300      126.905      1.00013   0.00108127  5.27184e-05 
         300      127.597      1.00013   0.00108103  5.34288e-05 
         300      128.292      1.00013   0.00108076  5.41172e-05 
         300      128.988      1.00013   0.00108051  5.47722e-05 
         300      129.686      1.00013   0.00108028   5.5386e-05 
         300      130.386      1.00013    0.0010801  5.59545e-05 
         300      131.088      1.00013   0.00107998   5.6478e-05 
         300      131.792      1.00013   0.00107992  5.69613e-05 
         300      132.497      1.00013   0.00107992  5.74149e-05 
         300      133.205      1.00013   0.00107996  5.78537e-05 
         300      133.915      1.00014   0.00108001  5.82967e-05 
         300      134.626      1.00014   0.00108006  5.87649e-05 
         300      135.339      1.00015   0.00108006  5.92804e-05 
         300      136.054      1.00015   0.00107999  5.98632e-05 
         300      136.771      1.00016   0.00107982  6.05279e-05 
         300       137.49      1.00016   0.00107955  6.12786e-05 
         300      138.211      1.00016   0.00107919  6.21048e-05 
         300      138.934      1.00016    0.0010788  6.29744e-05 
         300      139.658      1.00016   0.00107847  6.38251e-05 
         300      140.385      1.00016   0.00107837  6.45575e-05 
         300      141.113      1.00015   0.00107873  6.50233e-05 
         300      141.843      1.00015   0.00107987  6.50134e-05 
         300      142.575      1.00015   0.00107971  6.58329e-05 
         300      143.309      1.00015   0.00107887  6.70529e-05 
         300      144.045      1.00016   0.00107847  6.79377e-05 
         300      144.783      1.00016   0.00107831  6.85939e-05 
         300      145.523      1.00017   0.00107825  6.91064e-05 
         300      146.264      1.00019   0.00107822  6.95399e-05 
         300      147.007      1.00019   0.00107817  6.99369e-05 
         300      147.753      1.00019   0.00107806  7.03182e-05 
         300        148.5      1.00017    0.0010779   7.0682e-05 
         300      149.249      1.00012   0.00107769  7.10044e-05 
         300          150            1   0.00107742  7.12388e-05 
