Variables = x, y, u, v, p

Zone, I=600, F=POINT
         150            0            0            0 -0.000103742 
         150     0.000417  0.000198546  4.35911e-11 -0.000103742 
         150     0.001671  0.000795614  6.99977e-10 -0.000103741 
         150     0.003762   0.00179121  3.54792e-09  -0.00010374 
         150     0.006687   0.00318389    1.121e-08 -0.000103738 
         150      0.01045   0.00497559  2.73769e-08 -0.000103737 
         150     0.015048   0.00716487    5.677e-08 -0.000103734 
         150     0.020484   0.00975317  1.05197e-07 -0.000103732 
         150     0.026753    0.0127381  1.79446e-07 -0.000103728 
         150     0.033862     0.016123  2.87494e-07 -0.000103725 
         150     0.041803    0.0199042  4.38163e-07 -0.000103721 
         150     0.050579    0.0240829  6.41476e-07 -0.000103716 
         150     0.060198     0.028663  9.08709e-07 -0.000103712 
         150     0.070646    0.0336379  1.25158e-06 -0.000103706 
         150     0.081937    0.0390142   1.6837e-06 -0.000103701 
         150     0.094057    0.0447852  2.21876e-06 -0.000103695 
         150     0.107021     0.050958  2.87269e-06 -0.000103688 
         150     0.120813    0.0575249  3.66101e-06 -0.000103681 
         150      0.13545    0.0644939  4.60207e-06 -0.000103674 
         150     0.150914    0.0718563  5.71312e-06 -0.000103666 
         150     0.167213    0.0796156  7.01409e-06 -0.000103658 
         150     0.184359    0.0877774  8.52654e-06 -0.000103649 
         150      0.20233    0.0963308  1.02701e-05  -0.00010364 
         150     0.221149     0.105286  1.22694e-05 -0.000103631 
         150     0.240792     0.114632  1.45456e-05 -0.000103621 
         150     0.261284     0.124379   1.7126e-05  -0.00010361 
         150     0.282599     0.134514  2.00329e-05   -0.0001036 
         150     0.304763     0.145048  2.32961e-05 -0.000103588 
         150      0.32775     0.155969  2.69392e-05 -0.000103577 
         150     0.351587     0.167286  3.09945e-05 -0.000103565 
         150     0.376246     0.178984  3.54862e-05 -0.000103552 
         150      0.40174     0.191069   4.0446e-05 -0.000103539 
         150     0.428086     0.203545  4.59077e-05 -0.000103525 
         150     0.455252     0.216393  5.18955e-05 -0.000103511 
         150     0.483271     0.229627  5.84481e-05 -0.000103497 
         150     0.512109     0.243225   6.5589e-05 -0.000103482 
         150     0.541801     0.257199  7.33587e-05 -0.000103466 
         150     0.572311     0.271527  8.17795e-05  -0.00010345 
         150     0.603676     0.286219  9.08934e-05 -0.000103434 
         150     0.635857     0.301251   0.00010072 -0.000103416 
         150     0.668875     0.316623  0.000111297 -0.000103399 
         150     0.702748     0.332335  0.000122658  -0.00010338 
         150     0.737438     0.348358  0.000134822 -0.000103361 
         150     0.772984       0.3647  0.000147827 -0.000103341 
         150     0.809345     0.381327  0.000161686  -0.00010332 
         150     0.846564     0.398245  0.000176436 -0.000103299 
         150     0.884597     0.415418  0.000192083 -0.000103277 
         150     0.923489     0.432849  0.000208661 -0.000103254 
         150     0.963194     0.450498  0.000226166 -0.000103229 
         150      1.00376     0.468364  0.000244629 -0.000103204 
         150      1.04514     0.486404  0.000264035 -0.000103178 
         150      1.08735     0.504602  0.000284395 -0.000103151 
         150      1.13042     0.522944   0.00030572 -0.000103122 
         150      1.17431     0.541378  0.000327974 -0.000103092 
         150      1.21905     0.559896   0.00035117 -0.000103061 
         150      1.26461     0.578444  0.000375258 -0.000103028 
         150      1.31103     0.597009  0.000400238 -0.000102994 
         150      1.35826     0.615533  0.000426045 -0.000102958 
         150      1.40635     0.634001  0.000452667  -0.00010292 
         150      1.45525      0.65235  0.000480022 -0.000102881 
         150      1.50498     0.670552  0.000508066 -0.000102839 
         150      1.55558     0.688576  0.000536752 -0.000102796 
         150      1.60699     0.706356   0.00056597 -0.000102751 
         150      1.65927     0.723872  0.000595674 -0.000102703 
         150      1.71235     0.741059  0.000625738 -0.000102652 
         150      1.76629     0.757896  0.000656103   -0.0001026 
         150      1.82104     0.774319  0.000686628 -0.000102545 
         150      1.87666     0.790307  0.000717242 -0.000102487 
         150      1.93309       0.8058  0.000747793 -0.000102427 
         150      1.99034      0.82077  0.000778182 -0.000102364 
         150      2.04847     0.835191  0.000808307 -0.000102299 
         150       2.1074     0.849012  0.000838008 -0.000102231 
         150      2.16721     0.862221  0.000867199  -0.00010216 
         150      2.22781     0.874777  0.000895724 -0.000102086 
         150      2.28928     0.886676  0.000923503  -0.00010201 
         150      2.35156     0.897886   0.00095039  -0.00010193 
         150       2.4147     0.908411  0.000976313 -0.000101848 
         150      2.47865     0.918232   0.00100115 -0.000101763 
         150      2.54347      0.92736   0.00102483 -0.000101675 
         150      2.60909      0.93579   0.00104728 -0.000101585 
         150      2.67554     0.943536   0.00106843 -0.000101492 
         150      2.74287     0.950618   0.00108826 -0.000101396 
         150        2.811     0.957048   0.00110671 -0.000101298 
         150         2.88     0.962857    0.0011238 -0.000101198 
         150      2.94979     0.968065   0.00113949 -0.000101095 
         150      3.02047     0.972711   0.00115383  -0.00010099 
         150      3.09194     0.976823   0.00116683 -0.000100882 
         150      3.16429     0.980442   0.00117854 -0.000100773 
         150      3.23743     0.983601   0.00118901 -0.000100662 
         150       3.3114     0.986341    0.0011983 -0.000100548 
         150      3.38626       0.9887   0.00120648 -0.000100433 
         150      3.46191     0.990714   0.00121363 -0.000100315 
         150      3.53844     0.992422   0.00121982 -0.000100196 
         150      3.61576     0.993856   0.00122515 -0.000100075 
         150      3.69396     0.995053    0.0012297 -9.99532e-05 
         150      3.77295     0.996042   0.00123355 -9.98308e-05 
         150      3.85283     0.996853   0.00123677 -9.97048e-05 
         150      3.93349     0.997512   0.00123947 -9.95769e-05 
         150      4.01504     0.998043   0.00124169 -9.94491e-05 
         150      4.09737     0.998466    0.0012435 -9.93205e-05 
         150      4.18054       0.9988   0.00124496 -9.91894e-05 
         150       4.2646     0.999062   0.00124614  -9.9055e-05 
         150      4.34945     0.999265   0.00124709 -9.89182e-05 
         150      4.43518     0.999421   0.00124785 -9.87807e-05 
         150      4.52169     0.999539   0.00124845 -9.86447e-05 
         150      4.60909     0.999628   0.00124891 -9.85106e-05 
         150      4.69728     0.999694   0.00124926 -9.83757e-05 
         150      4.78636     0.999742   0.00124953  -9.8232e-05 
         150      4.87621     0.999777   0.00124978 -9.80832e-05 
         150      4.96691     0.999803   0.00124997  -9.7932e-05 
         150      5.05849     0.999821   0.00125009 -9.77787e-05 
         150      5.15086     0.999834   0.00125021 -9.76437e-05 
         150      5.24411     0.999843    0.0012503 -9.74977e-05 
         150      5.33815     0.999849   0.00125038 -9.73471e-05 
         150      5.43308     0.999853   0.00125046 -9.71932e-05 
         150      5.52879     0.999856   0.00125055 -9.70436e-05 
         150       5.6254     0.999858   0.00125061 -9.68931e-05 
         150      5.72278     0.999859   0.00125065 -9.67374e-05 
         150      5.82099      0.99986    0.0012507 -9.65786e-05 
         150      5.92011     0.999861   0.00125076 -9.64191e-05 
         150         6.02     0.999861   0.00125083 -9.62609e-05 
         150      6.12078     0.999862   0.00125089 -9.61049e-05 
         150      6.22234     0.999862   0.00125093 -9.59487e-05 
         150       6.3248     0.999862   0.00125098 -9.57838e-05 
         150      6.42803     0.999863   0.00125103 -9.56188e-05 
         150      6.53216     0.999863   0.00125109  -9.5444e-05 
         150      6.63707     0.999863   0.00125117 -9.52717e-05 
         150      6.74287     0.999863   0.00125122 -9.51027e-05 
         150      6.84945     0.999863   0.00125126 -9.49337e-05 
         150      6.95686     0.999864    0.0012513 -9.47608e-05 
         150      7.06517     0.999864   0.00125136 -9.45829e-05 
         150      7.17426     0.999864   0.00125144 -9.44029e-05 
         150      7.28424     0.999864   0.00125153 -9.42262e-05 
         150        7.395     0.999865   0.00125157 -9.40608e-05 
         150      7.50666     0.999865    0.0012516 -9.38867e-05 
         150      7.61908     0.999865   0.00125162 -9.36952e-05 
         150      7.73241     0.999865   0.00125169 -9.34959e-05 
         150      7.84651     0.999865   0.00125184 -9.32802e-05 
         150      7.96145     0.999866   0.00125184 -9.30494e-05 
         150      8.07729     0.999866   0.00125193 -9.29286e-05 
         150      8.19389     0.999866   0.00125195 -9.27889e-05 
         150      8.31141     0.999866   0.00125204  -9.2575e-05 
         150      8.42969     0.999867   0.00125206 -9.23802e-05 
         150      8.54887     0.999867    0.0012521 -9.21929e-05 
         150      8.66882     0.999867   0.00125218 -9.20046e-05 
         150      8.78968     0.999867   0.00125226 -9.18115e-05 
         150      8.91131     0.999868   0.00125233 -9.16133e-05 
         150      9.03384     0.999868   0.00125239  -9.1411e-05 
         150      9.15713     0.999868   0.00125243 -9.12066e-05 
         150      9.28126     0.999868   0.00125248 -9.10013e-05 
         150       9.4063     0.999868   0.00125254 -9.07959e-05 
         150       9.5321     0.999869   0.00125262 -9.05911e-05 
         150      9.65882     0.999869   0.00125269 -9.03864e-05 
         150      9.78629     0.999869   0.00125276 -9.01816e-05 
         150      9.91468     0.999869    0.0012528 -8.99761e-05 
         150      10.0438      0.99987   0.00125284 -8.97693e-05 
         150      10.1739      0.99987   0.00125291 -8.95596e-05 
         150      10.3047      0.99987     0.001253 -8.93441e-05 
         150      10.4363     0.999871   0.00125306 -8.91265e-05 
         150      10.5689     0.999871   0.00125309 -8.89223e-05 
         150      10.7022     0.999871   0.00125315 -8.87127e-05 
         150      10.8365     0.999871   0.00125324 -8.84947e-05 
         150      10.9715     0.999872   0.00125334 -8.82766e-05 
         150      11.1074     0.999872   0.00125343 -8.80581e-05 
         150      11.2441     0.999872   0.00125347 -8.78042e-05 
         150      11.3816     0.999872   0.00125349 -8.75741e-05 
         150        11.52     0.999873   0.00125354 -8.73611e-05 
         150      11.6592     0.999873   0.00125362 -8.71532e-05 
         150      11.7993     0.999873   0.00125372 -8.69386e-05 
         150      11.9401     0.999874   0.00125378 -8.67111e-05 
         150      12.0819     0.999874   0.00125382 -8.64719e-05 
         150      12.2244     0.999874    0.0012539 -8.62277e-05 
         150      12.3678     0.999874   0.00125399 -8.59787e-05 
         150       12.512     0.999875    0.0012541 -8.57535e-05 
         150      12.6571     0.999875   0.00125415  -8.5537e-05 
         150       12.803     0.999875   0.00125417 -8.53085e-05 
         150      12.9498     0.999875   0.00125422 -8.50674e-05 
         150      13.0973     0.999876   0.00125429 -8.48184e-05 
         150      13.2457     0.999876   0.00125437 -8.45676e-05 
         150       13.395     0.999876   0.00125444 -8.43194e-05 
         150       13.545     0.999877    0.0012545 -8.40738e-05 
         150       13.696     0.999877   0.00125453 -8.38211e-05 
         150      13.8477     0.999877    0.0012546  -8.3569e-05 
         150      14.0004     0.999878    0.0012547 -8.33156e-05 
         150      14.1537     0.999878    0.0012548 -8.30595e-05 
         150      14.3081     0.999878   0.00125486 -8.28033e-05 
         150      14.4631     0.999878   0.00125488 -8.25488e-05 
         150       14.619     0.999878    0.0012549 -8.22944e-05 
         150      14.7758     0.999879   0.00125498  -8.2034e-05 
         150      14.9334     0.999879   0.00125508 -8.17674e-05 
         150      15.0919      0.99988   0.00125514 -8.15173e-05 
         150      15.2511      0.99988   0.00125523 -8.12632e-05 
         150      15.4113      0.99988   0.00125531 -8.10034e-05 
         150      15.5722     0.999881   0.00125538 -8.07388e-05 
         150      15.7341     0.999881   0.00125544 -8.04704e-05 
         150      15.8966     0.999881   0.00125549    -8.02e-05 
         150      16.0602     0.999881   0.00125554  -7.9928e-05 
         150      16.2244     0.999882   0.00125561 -7.96551e-05 
         150      16.3895     0.999882   0.00125569 -7.93811e-05 
         150      16.5555     0.999883   0.00125577 -7.91057e-05 
         150      16.7223     0.999883   0.00125583  -7.8829e-05 
         150        16.89     0.999883   0.00125588 -7.85506e-05 
         150      17.0584     0.999883   0.00125593 -7.82705e-05 
         150      17.2278     0.999884   0.00125601 -7.79864e-05 
         150      17.3979     0.999884   0.00125613 -7.76934e-05 
         150      17.5689     0.999885   0.00125623 -7.73789e-05 
         150      17.7407     0.999885   0.00125627 -7.70944e-05 
         150      17.9133     0.999885   0.00125636 -7.68155e-05 
         150      18.0869     0.999886   0.00125644  -7.6554e-05 
         150      18.2611     0.999886   0.00125645 -7.62708e-05 
         150      18.4364     0.999886   0.00125646  -7.5977e-05 
         150      18.6123     0.999886   0.00125651 -7.56803e-05 
         150      18.7892     0.999887   0.00125659 -7.53838e-05 
         150      18.9669     0.999887   0.00125668 -7.50894e-05 
         150      19.1454     0.999888   0.00125677 -7.47963e-05 
         150      19.3247     0.999888   0.00125685  -7.4504e-05 
         150       19.505     0.999889   0.00125692 -7.42108e-05 
         150      19.6859     0.999889   0.00125698 -7.39158e-05 
         150      19.8677     0.999889   0.00125702 -7.36179e-05 
         150      20.0505     0.999889   0.00125707 -7.33165e-05 
         150       20.234      0.99989   0.00125713 -7.30121e-05 
         150      20.4184      0.99989   0.00125719 -7.27048e-05 
         150      20.6035      0.99989   0.00125727 -7.23957e-05 
         150      20.7896     0.999891   0.00125734 -7.20851e-05 
         150      20.9765     0.999891   0.00125742 -7.17738e-05 
         150      21.1642     0.999891   0.00125749 -7.14615e-05 
         150      21.3527     0.999892   0.00125754 -7.11479e-05 
         150      21.5421     0.999892   0.00125759 -7.08311e-05 
         150      21.7323     0.999892   0.00125763 -7.05085e-05 
         150      21.9233     0.999892   0.00125768 -7.01775e-05 
         150      22.1153     0.999893   0.00125774  -6.9834e-05 
         150       22.308     0.999894   0.00125781  -6.9489e-05 
         150      22.5016     0.999895   0.00125784 -6.91407e-05 
         150      22.6959     0.999892   0.00125764 -6.87959e-05 
         150      22.8912     0.999894    0.0012577 -6.85426e-05 
         150      23.0872     0.999896   0.00125794 -6.83556e-05 
         150      23.2841     0.999897   0.00125812 -6.80951e-05 
         150      23.4819     0.999897   0.00125825 -6.77599e-05 
         150      23.6804     0.999896   0.00125834 -6.73871e-05 
         150      23.8799     0.999896   0.00125839 -6.70042e-05 
         150      24.0801     0.999897   0.00125843  -6.6624e-05 
         150      24.2813     0.999897   0.00125846 -6.62524e-05 
         150      24.4831     0.999898    0.0012585 -6.58925e-05 
         150       24.686     0.999898   0.00125855 -6.55433e-05 
         150      24.8895     0.999899   0.00125862 -6.52031e-05 
         150       25.094     0.999899   0.00125869 -6.48685e-05 
         150      25.2992       0.9999   0.00125876 -6.45366e-05 
         150      25.5052       0.9999   0.00125884 -6.42046e-05 
         150      25.7123       0.9999   0.00125891 -6.38699e-05 
         150        25.92       0.9999   0.00125898 -6.35318e-05 
         150      26.1287     0.999901   0.00125904 -6.31892e-05 
         150       26.338     0.999901    0.0012591 -6.28429e-05 
         150      26.5484     0.999902   0.00125915 -6.24932e-05 
         150      26.7595     0.999902    0.0012592 -6.21415e-05 
         150      26.9715     0.999903   0.00125925 -6.17885e-05 
         150      27.1842     0.999903    0.0012593  -6.1435e-05 
         150      27.3978     0.999904   0.00125935 -6.10807e-05 
         150      27.6123     0.999904   0.00125941 -6.07242e-05 
         150      27.8276     0.999904   0.00125946 -6.03637e-05 
         150      28.0438     0.999905   0.00125951 -5.99957e-05 
         150      28.2607     0.999905   0.00125955 -5.96168e-05 
         150      28.4786     0.999905   0.00125959 -5.92224e-05 
         150      28.6972     0.999906   0.00125966   -5.881e-05 
         150      28.9167     0.999906    0.0012598 -5.83782e-05 
         150       29.137     0.999906    0.0012601 -5.79309e-05 
         150      29.3582     0.999907   0.00125989 -5.75406e-05 
         150      29.5801     0.999908   0.00125963 -5.72986e-05 
         150      29.8029     0.999908   0.00125976 -5.70116e-05 
         150      30.0266     0.999909   0.00126011 -5.65239e-05 
         150      30.2511     0.999909   0.00126018 -5.61033e-05 
         150      30.4765      0.99991   0.00126015 -5.57189e-05 
         150      30.7026      0.99991   0.00126013 -5.53507e-05 
         150      30.9297      0.99991   0.00126014 -5.49857e-05 
         150      31.1574      0.99991    0.0012602 -5.46174e-05 
         150      31.3862      0.99991    0.0012603 -5.42428e-05 
         150      31.6156     0.999911    0.0012604 -5.38623e-05 
         150      31.8459     0.999911    0.0012605 -5.34777e-05 
         150      32.0772     0.999912   0.00126058  -5.3091e-05 
         150      32.3092     0.999912   0.00126063 -5.27051e-05 
         150      32.5421     0.999913   0.00126065 -5.23212e-05 
         150      32.7757     0.999914   0.00126066 -5.19408e-05 
         150      33.0103     0.999914   0.00126066 -5.15635e-05 
         150      33.2456     0.999915   0.00126068 -5.11886e-05 
         150      33.4819     0.999915   0.00126071  -5.0814e-05 
         150      33.7189     0.999916   0.00126076 -5.04378e-05 
         150      33.9567     0.999916   0.00126084 -5.00574e-05 
         150      34.1955     0.999916   0.00126093 -4.96702e-05 
         150       34.435     0.999917   0.00126103 -4.92752e-05 
         150      34.6754     0.999917   0.00126112 -4.88711e-05 
         150      34.9166     0.999918   0.00126118 -4.84592e-05 
         150      35.1587     0.999918   0.00126121 -4.80409e-05 
         150      35.4016     0.999919   0.00126121   -4.762e-05 
         150      35.6454     0.999919   0.00126117 -4.72005e-05 
         150      35.8899      0.99992   0.00126113 -4.67877e-05 
         150      36.1353     0.999921   0.00126111 -4.63855e-05 
         150      36.3815     0.999922   0.00126114 -4.59967e-05 
         150      36.6285     0.999923   0.00126125 -4.56196e-05 
         150      36.8765     0.999923   0.00126145  -4.5246e-05 
         150      37.1252     0.999923   0.00126166 -4.48587e-05 
         150      37.3749     0.999923   0.00126171 -4.44254e-05 
         150      37.6252     0.999922   0.00126127 -4.38964e-05 
         150      37.8765     0.999922   0.00126029 -4.32848e-05 
         150      38.1286     0.999924   0.00126172 -4.29557e-05 
         150      38.3816     0.999923   0.00126156  -4.2572e-05 
         150      38.6353     0.999924   0.00126156 -4.21885e-05 
         150      38.8898     0.999926   0.00126162 -4.17996e-05 
         150      39.1453     0.999927   0.00126168 -4.14022e-05 
         150      39.4015     0.999928   0.00126173 -4.09953e-05 
         150      39.6587     0.999928   0.00126176 -4.05786e-05 
         150      39.9166     0.999928   0.00126177 -4.01536e-05 
         150      40.1754     0.999929   0.00126177 -3.97212e-05 
         150       40.435     0.999929   0.00126178 -3.92838e-05 
         150      40.6955     0.999929   0.00126179 -3.88425e-05 
         150      40.9567     0.999929    0.0012618 -3.83996e-05 
         150      41.2189      0.99993   0.00126183 -3.79558e-05 
         150      41.4818     0.999931   0.00126187 -3.75126e-05 
         150      41.7456     0.999931   0.00126191 -3.70705e-05 
         150      42.0103     0.999932   0.00126195 -3.66293e-05 
         150      42.2757     0.999933   0.00126199 -3.61896e-05 
         150      42.5421     0.999934   0.00126202 -3.57503e-05 
         150      42.8091     0.999934   0.00126203 -3.53116e-05 
         150      43.0772     0.999934   0.00126204 -3.48722e-05 
         150      43.3459     0.999935   0.00126204  -3.4432e-05 
         150      43.6157     0.999935   0.00126204 -3.39901e-05 
         150      43.8861     0.999935   0.00126203 -3.35466e-05 
         150      44.1573     0.999935   0.00126203 -3.31013e-05 
         150      44.4296     0.999936   0.00126204  -3.2654e-05 
         150      44.7025     0.999937   0.00126205 -3.22057e-05 
         150      44.9764     0.999937   0.00126207 -3.17562e-05 
         150       45.251     0.999938   0.00126208 -3.13064e-05 
         150      45.5266     0.999939   0.00126209 -3.08558e-05 
         150      45.8029     0.999939   0.00126208  -3.0404e-05 
         150      46.0801     0.999939   0.00126207 -2.99482e-05 
         150      46.3581     0.999939    0.0012621 -2.94846e-05 
         150      46.6368      0.99994   0.00126222 -2.90058e-05 
         150      46.9166     0.999942    0.0012625 -2.85396e-05 
         150       47.197     0.999941   0.00126231 -2.82066e-05 
         150      47.4785     0.999941    0.0012617  -2.7935e-05 
         150      47.7606     0.999943   0.00126239 -2.72681e-05 
         150      48.0437     0.999945   0.00126271 -2.66828e-05 
         150      48.3275     0.999945   0.00126272 -2.61602e-05 
         150      48.6123     0.999945   0.00126255 -2.56803e-05 
         150      48.8978     0.999945   0.00126231 -2.52262e-05 
         150      49.1842     0.999944   0.00126208 -2.47826e-05 
         150      49.4714     0.999944   0.00126193 -2.43382e-05 
         150      49.7593     0.999944   0.00126189 -2.38846e-05 
         150      50.0483     0.999945   0.00126195 -2.34166e-05 
         150      50.3379     0.999946   0.00126209 -2.29332e-05 
         150      50.6286     0.999947   0.00126227 -2.24353e-05 
         150      50.9199     0.999948   0.00126244  -2.1927e-05 
         150      51.2122     0.999949   0.00126255 -2.14127e-05 
         150      51.5052      0.99995    0.0012626 -2.08992e-05 
         150      51.7992     0.999951   0.00126256 -2.03917e-05 
         150      52.0938     0.999951   0.00126245 -1.98959e-05 
         150      52.3893     0.999951   0.00126229 -1.94151e-05 
         150      52.6858     0.999951   0.00126213 -1.89503e-05 
         150       52.983     0.999951     0.001262 -1.85009e-05 
         150      53.2811     0.999952   0.00126194 -1.80624e-05 
         150        53.58     0.999952   0.00126198 -1.76289e-05 
         150      53.8798     0.999953   0.00126209 -1.71913e-05 
         150      54.1803     0.999955   0.00126225 -1.67407e-05 
         150      54.4819     0.999956   0.00126239  -1.6268e-05 
         150       54.784     0.999957   0.00126244 -1.57679e-05 
         150      55.0872     0.999958   0.00126234 -1.52405e-05 
         150      55.3911     0.999957   0.00126212 -1.46968e-05 
         150      55.6957     0.999957   0.00126194 -1.41621e-05 
         150      56.0014     0.999957   0.00126228 -1.36827e-05 
         150      56.3078     0.999958   0.00126225 -1.31255e-05 
         150      56.6152     0.999959   0.00126194 -1.25181e-05 
         150      56.9232      0.99996   0.00126199 -1.19634e-05 
         150      57.2323     0.999961   0.00126218 -1.14437e-05 
         150      57.5419     0.999962   0.00126235 -1.09507e-05 
         150      57.8527     0.999962   0.00126245 -1.04812e-05 
         150       58.164     0.999962   0.00126245 -1.00355e-05 
         150      58.4762     0.999962   0.00126236 -9.61217e-06 
         150      58.7895     0.999962   0.00126219 -9.20413e-06 
         150      59.1034     0.999963     0.001262 -8.79439e-06 
         150      59.4183     0.999964   0.00126182  -8.3483e-06 
         150      59.7338     0.999965   0.00126173 -7.80899e-06 
         150      60.0504     0.999965   0.00126185 -7.08742e-06 
         150      60.3676     0.999964   0.00126233 -6.05676e-06 
         150      60.6858     0.999967   0.00126196 -5.90401e-06 
         150      61.0047     0.999969   0.00126167  -5.7121e-06 
         150      61.3245      0.99997   0.00126161 -5.31141e-06 
         150      61.6452      0.99997   0.00126168 -4.77396e-06 
         150      61.9666      0.99997    0.0012618 -4.15842e-06 
         150      62.2891      0.99997    0.0012619 -3.50945e-06 
         150      62.6121     0.999969   0.00126194 -2.86203e-06 
         150      62.9362     0.999969   0.00126192 -2.23956e-06 
         150       63.261     0.999969   0.00126184  -1.6579e-06 
         150      63.5868     0.999969   0.00126174 -1.12332e-06 
         150      63.9132      0.99997   0.00126165  -6.3609e-07 
         150      64.2406     0.999971    0.0012616 -1.88907e-07 
         150      64.5687     0.999972    0.0012616  2.29657e-07 
         150      64.8976     0.999974   0.00126164  6.35618e-07 
         150      65.2276     0.999975   0.00126169  1.04688e-06 
         150      65.5582     0.999977   0.00126168  1.48012e-06 
         150      65.8898     0.999978   0.00126153  1.94938e-06 
         150      66.2221     0.999978   0.00126123  2.46004e-06 
         150      66.5554     0.999979   0.00126082  3.00607e-06 
         150      66.8893     0.999979   0.00126054  3.56149e-06 
         150      67.2243      0.99998   0.00126092  4.07546e-06 
         150      67.5599     0.999979   0.00126155  4.60307e-06 
         150      67.8964     0.999976    0.0012607  5.28341e-06 
         150      68.2338     0.999976   0.00126049  5.88315e-06 
         150       68.572     0.999978   0.00126062  6.43648e-06 
         150      68.9111     0.999981   0.00126086  6.96907e-06 
         150      69.2509     0.999983   0.00126109  7.49713e-06 
         150      69.5917     0.999985   0.00126123  8.03154e-06 
         150      69.9332     0.999986   0.00126125  8.57676e-06 
         150      70.2757     0.999986   0.00126116  9.13461e-06 
         150      70.6188     0.999986   0.00126098  9.70282e-06 
         150       70.963     0.999985   0.00126074  1.02786e-05 
         150      71.3078     0.999985   0.00126049  1.08569e-05 
         150      71.6535     0.999985   0.00126026  1.14331e-05 
         150      72.0001     0.999985   0.00126007   1.2003e-05 
         150      72.3475     0.999986   0.00125996  1.25619e-05 
         150      72.6958     0.999987   0.00125992  1.31074e-05 
         150      73.0448     0.999989   0.00125995  1.36372e-05 
         150      73.3948      0.99999   0.00126003  1.41512e-05 
         150      73.7455     0.999991   0.00126015  1.46496e-05 
         150      74.0972     0.999993   0.00126027  1.51354e-05 
         150      74.4495     0.999994   0.00126037  1.56113e-05 
         150      74.8027     0.999994   0.00126043  1.60826e-05 
         150      75.1569     0.999994   0.00126042  1.65554e-05 
         150      75.5117     0.999994   0.00126034  1.70362e-05 
         150      75.8676     0.999994   0.00126019  1.75336e-05 
         150      76.2241     0.999994   0.00125998  1.80559e-05 
         150      76.5817     0.999994   0.00125973  1.86138e-05 
         150      76.9399     0.999995   0.00125946   1.9218e-05 
         150      77.2991     0.999996    0.0012592  1.98818e-05 
         150      77.6589     0.999997   0.00125893  2.06188e-05 
         150      78.0198     0.999998   0.00125874   2.1285e-05 
         150      78.3814     0.999999   0.00125883  2.17435e-05 
         150      78.7437     0.999999   0.00125903  2.22112e-05 
         150      79.1071            1   0.00125926  2.26859e-05 
         150      79.4712            1   0.00125945   2.3168e-05 
         150      79.8363            1   0.00125952  2.36638e-05 
         150       80.202            1   0.00125942   2.4184e-05 
         150      80.5687            1   0.00125916  2.47465e-05 
         150      80.9361            1   0.00125886  2.53748e-05 
         150      81.3045      1.00001   0.00125884  2.61006e-05 
         150      81.6736      1.00001   0.00125909  2.67201e-05 
         150      82.0435            1   0.00125885  2.71536e-05 
         150      82.4144            1   0.00125854  2.76451e-05 
         150       82.786            1   0.00125827    2.818e-05 
         150      83.1586            1   0.00125806  2.87473e-05 
         150      83.5318            1   0.00125793  2.93364e-05 
         150      83.9061      1.00001   0.00125788  2.99397e-05 
         150       84.281      1.00001   0.00125787  3.05502e-05 
         150      84.6569      1.00001   0.00125789  3.11635e-05 
         150      85.0335      1.00001    0.0012579   3.1775e-05 
         150      85.4109      1.00001    0.0012579  3.23825e-05 