Variables = x, y, u, v, p

Zone, I=400, F=POINT
         700            0           -0           -0 -2.64188e-05 
         700     0.000942   0.00030692  6.96859e-11 -2.64187e-05 
         700     0.003768   0.00122768  1.11482e-09 -2.64182e-05 
         700     0.008478   0.00276228  5.64374e-09 -2.64175e-05 
         700     0.015075   0.00491169  1.78443e-08 -2.64165e-05 
         700     0.023553   0.00767398  4.35589e-08 -2.64151e-05 
         700     0.033916    0.0110504  9.03222e-08 -2.64135e-05 
         700     0.046163    0.0150407   1.6733e-07 -2.64116e-05 
         700       0.0603    0.0196468  2.85511e-07 -2.64094e-05 
         700     0.076315    0.0248648  4.57307e-07 -2.64068e-05 
         700     0.094215    0.0306969  6.96994e-07  -2.6404e-05 
         700     0.113999    0.0371427  1.02044e-06 -2.64009e-05 
         700     0.135675    0.0442049  1.44539e-06 -2.63975e-05 
         700     0.159228    0.0518783  1.99076e-06 -2.63938e-05 
         700     0.184664    0.0601649  2.67755e-06 -2.63898e-05 
         700     0.211985    0.0690649  3.52835e-06 -2.63855e-05 
         700     0.241201    0.0785814  4.56774e-06 -2.63809e-05 
         700      0.27229    0.0887065  5.82079e-06 -2.63761e-05 
         700     0.305263    0.0994433  7.31529e-06 -2.63709e-05 
         700     0.340135     0.110796   9.0812e-06 -2.63654e-05 
         700     0.376877     0.122753  1.11475e-05 -2.63596e-05 
         700     0.415503     0.135318  1.35471e-05 -2.63535e-05 
         700     0.456013     0.148489  1.63137e-05 -2.63471e-05 
         700     0.498424     0.162269  1.94836e-05 -2.63404e-05 
         700     0.542703     0.176643  2.30906e-05 -2.63334e-05 
         700     0.588866     0.191614  2.71736e-05 -2.63261e-05 
         700     0.636912     0.207175   3.1771e-05 -2.63184e-05 
         700     0.686864     0.223328  3.69247e-05 -2.63105e-05 
         700     0.738679     0.240053  4.26712e-05 -2.63022e-05 
         700     0.792379     0.257346  4.90536e-05 -2.62936e-05 
         700     0.847962     0.275198  5.61119e-05 -2.62845e-05 
         700     0.905453     0.293604  6.38904e-05 -2.62752e-05 
         700     0.964806     0.312535  7.24236e-05 -2.62655e-05 
         700      1.02604     0.331981  8.17545e-05 -2.62554e-05 
         700      1.08919     0.351931  9.19263e-05 -2.62449e-05 
         700      1.15419     0.372346  0.000102967 -2.62339e-05 
         700      1.22108     0.393209  0.000114911 -2.62224e-05 
         700      1.28985     0.414491   0.00012779 -2.62104e-05 
         700      1.36054     0.436167  0.000141635 -2.61982e-05 
         700      1.43308     0.458183  0.000156461 -2.61856e-05 
         700      1.50751     0.480507  0.000172294 -2.61718e-05 
         700      1.58382     0.503093  0.000189097 -2.61555e-05 
         700      1.66204     0.525899  0.000206965 -2.61418e-05 
         700      1.74212     0.548853   0.00022582 -2.61281e-05 
         700      1.82409     0.571903   0.00024563 -2.61127e-05 
         700      1.90793     0.594986  0.000266371 -2.60953e-05 
         700       1.9937      0.61804  0.000288025 -2.60759e-05 
         700      2.08131     0.640975  0.000310536 -2.60551e-05 
         700      2.17081     0.663724  0.000333854 -2.60336e-05 
         700      2.26223     0.686214  0.000357905 -2.60118e-05 
         700       2.3555     0.708347  0.000382566 -2.59901e-05 
         700      2.45065     0.730047  0.000407725  -2.5968e-05 
         700      2.54769      0.75123  0.000433249 -2.59451e-05 
         700      2.64665     0.771822  0.000459009 -2.59206e-05 
         700      2.74746     0.791725  0.000484847 -2.58935e-05 
         700      2.85014     0.810869  0.000510636 -2.58633e-05 
         700      2.95472     0.829184  0.000536238   -2.583e-05 
         700      3.06122     0.846609  0.000561517 -2.57944e-05 
         700      3.16956     0.863074  0.000586286 -2.57583e-05 
         700      3.27979     0.878538  0.000610365 -2.57238e-05 
         700       3.3919     0.892962   0.00063355 -2.56928e-05 
         700      3.50594     0.906326  0.000655672  -2.5665e-05 
         700      3.62181     0.918606  0.000676668 -2.56343e-05 
         700      3.73958     0.929805  0.000696841 -2.55841e-05 
         700      3.85927     0.939939  0.000715235  -2.5584e-05 
         700       3.9808     0.949025  0.000732321 -2.55527e-05 
         700      4.10422     0.957101  0.000748055 -2.54983e-05 
         700      4.22952     0.964213  0.000762357 -2.54321e-05 
         700      4.35675     0.970416  0.000775218 -2.53617e-05 
         700      4.48582      0.97577  0.000786671 -2.52922e-05 
         700      4.61677     0.980345  0.000796803  -2.5229e-05 
         700      4.74961     0.984212  0.000805414 -2.52035e-05 
         700      4.88438     0.987445  0.000812849  -2.5159e-05 
         700      5.02099     0.990116  0.000819196 -2.51042e-05 
         700      5.15948     0.992296  0.000824552 -2.50452e-05 
         700      5.29985     0.994054  0.000829015 -2.49857e-05 
         700      5.44217     0.995454   0.00083268 -2.49276e-05 
         700      5.58631     0.996553  0.000835639 -2.48711e-05 
         700      5.73233     0.997405  0.000837988 -2.48152e-05 
         700      5.88024     0.998056  0.000839817 -2.47583e-05 
         700       6.0301     0.998548  0.000841215 -2.46982e-05 
         700      6.18178     0.998913  0.000842266 -2.46334e-05 
         700      6.33534      0.99918  0.000843048 -2.45624e-05 
         700      6.49085     0.999372  0.000843629  -2.4485e-05 
         700      6.64818     0.999509  0.000844063 -2.44018e-05 
         700      6.80739     0.999604   0.00084439 -2.43151e-05 
         700      6.96849     0.999669  0.000844632 -2.42281e-05 
         700      7.13154     0.999714  0.000844798 -2.41453e-05 
         700      7.29641     0.999743  0.000844896 -2.40719e-05 
         700      7.46316     0.999763  0.000844958  -2.4013e-05 
         700       7.6318     0.999775  0.000845027 -2.39635e-05 
         700      7.80239     0.999783  0.000845072 -2.39201e-05 
         700      7.97479     0.999788  0.000845116 -2.38688e-05 
         700      8.14908     0.999792  0.000845147 -2.38043e-05 
         700      8.32526     0.999794  0.000845149 -2.37293e-05 
         700      8.50338     0.999795  0.000845119 -2.36497e-05 
         700      8.68333     0.999796  0.000845073  -2.3572e-05 
         700      8.86515     0.999797  0.000845036 -2.34992e-05 
         700      9.04894     0.999798  0.000845034 -2.34303e-05 
         700      9.23453     0.999799  0.000845081 -2.33599e-05 
         700      9.42201       0.9998   0.00084517  -2.3281e-05 
         700      9.61137       0.9998   0.00084527 -2.31898e-05 
         700      9.80269     0.999801  0.000845328 -2.30952e-05 
         700      9.99583     0.999801  0.000845268 -2.30316e-05 
         700      10.1908     0.999802  0.000844985 -2.30771e-05 
         700      10.3877     0.999802  0.000845067 -2.28619e-05 
         700      10.5866     0.999803  0.000845233  -2.2727e-05 
         700      10.7873     0.999804  0.000845448 -2.26346e-05 
         700      10.9898     0.999804  0.000844916 -2.25324e-05 
         700      11.1943     0.999805  0.000845394 -2.25953e-05 
         700      11.4007     0.999806  0.000845302 -2.25956e-05 
         700      11.6089     0.999806   0.00084508 -2.25345e-05 
         700       11.819     0.999807   0.00084504 -2.24401e-05 
         700       12.031     0.999808  0.000845175   -2.233e-05 
         700      12.2449     0.999808  0.000845359 -2.22145e-05 
         700      12.4606     0.999809   0.00084547  -2.2099e-05 
         700      12.6782      0.99981  0.000845455 -2.19857e-05 
         700      12.8978     0.999811  0.000845334 -2.18756e-05 
         700      13.1192     0.999811  0.000845179  -2.1769e-05 
         700      13.3425     0.999812  0.000845073 -2.16659e-05 
         700      13.5677     0.999813  0.000845065 -2.15668e-05 
         700      13.7948     0.999813  0.000845221  -2.1484e-05 
         700      14.0237     0.999814  0.000845454   -2.141e-05 
         700      14.2546     0.999815  0.000845549 -2.13225e-05 
         700      14.4873     0.999816  0.000845454 -2.12197e-05 
         700      14.7219     0.999816  0.000845274 -2.11117e-05 
         700      14.9584     0.999817  0.000845236 -2.10214e-05 
         700      15.1968     0.999818  0.000845416 -2.09749e-05 
         700      15.4371     0.999819  0.000845036 -2.09746e-05 
         700      15.6792     0.999819  0.000845663 -2.07377e-05 
         700      15.9232      0.99982  0.000845609 -2.04972e-05 
         700      16.1691     0.999821   0.00084518 -2.03969e-05 
         700       16.417     0.999822  0.000845316 -2.03663e-05 
         700      16.6666     0.999823  0.000845677  -2.0382e-05 
         700      16.9182     0.999824  0.000845693 -2.02894e-05 
         700      17.1716     0.999824  0.000845635 -2.01775e-05 
         700       17.427     0.999825  0.000845569 -2.00566e-05 
         700      17.6842     0.999826  0.000845515 -1.99309e-05 
         700      17.9433     0.999826  0.000845475 -1.98045e-05 
         700      18.2042     0.999827  0.000845447 -1.96808e-05 
         700      18.4672     0.999828  0.000845431 -1.95621e-05 
         700      18.7319     0.999829  0.000845426 -1.94496e-05 
         700      18.9985      0.99983  0.000845433 -1.93432e-05 
         700       19.267     0.999831  0.000845453 -1.92414e-05 
         700      19.5375     0.999832  0.000845486 -1.91421e-05 
         700      19.8098     0.999833  0.000845526 -1.90423e-05 
         700       20.084     0.999834  0.000845567 -1.89392e-05 
         700      20.3601     0.999834  0.000845598 -1.88301e-05 
         700       20.638     0.999835   0.00084561 -1.87133e-05 
         700      20.9178     0.999836    0.0008456 -1.85885e-05 
         700      21.1995     0.999837  0.000845572 -1.84568e-05 
         700      21.4832     0.999838  0.000845543 -1.83213e-05 
         700      21.7687     0.999839  0.000845539 -1.81868e-05 
         700       22.056      0.99984   0.00084559 -1.80593e-05 
         700      22.3452     0.999841  0.000845707  -1.7945e-05 
         700      22.6365     0.999842  0.000845844 -1.78488e-05 
         700      22.9295     0.999843  0.000845839  -1.7772e-05 
         700      23.2243     0.999843   0.00084584 -1.76762e-05 
         700      23.5211     0.999844  0.000845804 -1.75537e-05 
         700      23.8199     0.999846  0.000845602 -1.74488e-05 
         700      24.1204     0.999847  0.000845537 -1.73485e-05 
         700      24.4228     0.999848  0.000845595 -1.72421e-05 
         700      24.7272     0.999848  0.000845676 -1.71224e-05 
         700      25.0334     0.999849  0.000845705 -1.69863e-05 
         700      25.3415      0.99985  0.000845672 -1.68352e-05 
         700      25.6514     0.999851  0.000845616 -1.66747e-05 
         700      25.9634     0.999852  0.000845596 -1.65144e-05 
         700      26.2771     0.999853  0.000845648 -1.63664e-05 
         700      26.5927     0.999854  0.000845778  -1.6244e-05 
         700      26.9102     0.999855  0.000845969 -1.61591e-05 
         700      27.2297     0.999856   0.00084611 -1.60817e-05 
         700       27.551     0.999857  0.000845732 -1.58556e-05 
         700      27.8741     0.999858  0.000845615 -1.56897e-05 
         700      28.1991      0.99986  0.000845704 -1.55635e-05 
         700      28.5262     0.999861  0.000845892 -1.54579e-05 
         700       28.855     0.999862  0.000846051 -1.53563e-05 
         700      29.1856     0.999862  0.000846065  -1.5245e-05 
         700      29.5183     0.999863  0.000845879 -1.51155e-05 
         700      29.8528     0.999863  0.000845572 -1.49649e-05 
         700      30.1891     0.999865  0.000845436 -1.47973e-05 
         700      30.5273     0.999867   0.00084548 -1.46451e-05 
         700      30.8676     0.999868  0.000845513 -1.45434e-05 
         700      31.2096     0.999869  0.000845813 -1.44473e-05 
         700      31.5534     0.999871  0.000846089 -1.43379e-05 
         700      31.8992     0.999872  0.000846208 -1.42061e-05 
         700      32.2469     0.999873  0.000846152 -1.40508e-05 
         700      32.5965     0.999874  0.000845977 -1.38765e-05 
         700      32.9479     0.999874  0.000845768  -1.3691e-05 
         700      33.3012     0.999875  0.000845611 -1.35037e-05 
         700      33.6565     0.999876  0.000845561 -1.33233e-05 
         700      34.0135     0.999877   0.00084563 -1.31563e-05 
         700      34.3725     0.999879  0.000845787 -1.30061e-05 
         700      34.7334      0.99988   0.00084597 -1.28715e-05 
         700      35.0962     0.999882  0.000846104 -1.27475e-05 
         700      35.4608     0.999883  0.000846136 -1.26255e-05 
         700      35.8272     0.999884  0.000846057  -1.2495e-05 
         700      36.1957     0.999885  0.000845921 -1.23465e-05 
         700       36.566     0.999886  0.000845838 -1.21756e-05 
         700      36.9381     0.999887  0.000845928 -1.19887e-05 
         700      37.3121     0.999888  0.000846213 -1.18101e-05 
         700      37.6882      0.99989  0.000846418 -1.16918e-05 
         700       38.066     0.999891  0.000845942 -1.16583e-05 
         700      38.4456     0.999893  0.000846154 -1.13778e-05 
         700      38.8272     0.999894  0.000846056 -1.11982e-05 
         700      39.2108     0.999895  0.000845969 -1.10592e-05 
         700      39.5961     0.999895  0.000846081 -1.09229e-05 
         700      39.9833     0.999896  0.000846279  -1.0772e-05 
         700      40.3724     0.999898  0.000845883 -1.06111e-05 
         700      40.7635       0.9999  0.000846031 -1.04991e-05 
         700      41.1564     0.999901  0.000846254  -1.0343e-05 
         700      41.5511     0.999902  0.000846075 -1.01358e-05 
         700      41.9479     0.999903  0.000845896 -9.90884e-06 
         700      42.3464     0.999904  0.000845856 -9.68881e-06 
         700      42.7468     0.999906  0.000845942 -9.49832e-06 
         700      43.1491     0.999907  0.000846071 -9.35799e-06 
         700      43.5534     0.999908  0.000846127 -9.28928e-06 
         700      43.9595      0.99991  0.000845988 -9.31842e-06 
         700      44.3674     0.999912  0.000845517 -9.48078e-06 
         700      44.7772     0.999912   0.00084602 -9.11069e-06 
         700      45.1891     0.999913  0.000846381 -8.75826e-06 
         700      45.6027     0.999914  0.000846504 -8.48601e-06 
         700      46.0181     0.999916  0.000846465 -8.27453e-06 
         700      46.4355     0.999917  0.000846339 -8.10541e-06 
         700      46.8549     0.999918  0.000846187 -7.96185e-06 
         700       47.276      0.99992  0.000846056 -7.82946e-06 
         700       47.699     0.999921  0.000845973 -7.69639e-06 
         700      48.1241     0.999922  0.000845946 -7.55393e-06 
         700      48.5508     0.999924  0.000845967 -7.39676e-06 
         700      48.9795     0.999925  0.000846017 -7.22269e-06 
         700        49.41     0.999926  0.000846078 -7.03259e-06 
         700      49.8426     0.999927  0.000846133 -6.82977e-06 
         700      50.2769     0.999929  0.000846182 -6.61955e-06 
         700      50.7131      0.99993  0.000846238 -6.40771e-06 
         700      51.1512     0.999931  0.000846324 -6.19936e-06 
         700      51.5914     0.999933  0.000846452 -5.99701e-06 
         700      52.0332     0.999934  0.000846591  -5.7986e-06 
         700      52.4769     0.999936  0.000846603 -5.59441e-06 
         700      52.9225     0.999937  0.000846476  -5.4047e-06 
         700      53.3702      0.99994  0.000846579 -5.26266e-06 
         700      53.8196      0.99994  0.000846588 -5.11513e-06 
         700      54.2709     0.999941  0.000846509 -4.95892e-06 
         700      54.7242     0.999942  0.000846382 -4.79238e-06 
         700      55.1792     0.999944  0.000846254  -4.6153e-06 
         700      55.6362     0.999946  0.000846159 -4.42833e-06 
         700       56.095     0.999948  0.000846117 -4.23308e-06 
         700      56.5558      0.99995  0.000846128  -4.0318e-06 
         700      57.0184     0.999951  0.000846177 -3.82758e-06 
         700      57.4829     0.999952  0.000846243 -3.62362e-06 
         700      57.9492     0.999954    0.0008463  -3.4232e-06 
         700      58.4176     0.999955   0.00084633 -3.22903e-06 
         700      58.8877     0.999956  0.000846326  -3.0429e-06 
         700      59.3597     0.999958  0.000846287 -2.86416e-06 
         700      59.8336     0.999959  0.000846217 -2.68877e-06 
         700      60.3096     0.999961   0.00084611 -2.50739e-06 
         700      60.7872     0.999963  0.000846164 -2.32582e-06 
         700      61.2667     0.999964  0.000846283 -2.13711e-06 
         700      61.7484     0.999965  0.000846334 -1.92868e-06 
         700      62.2317     0.999966   0.00084638  -1.7077e-06 
         700      62.7168     0.999967  0.000846437 -1.47958e-06 
         700      63.2039     0.999968  0.000846481 -1.24756e-06 
         700      63.6931      0.99997  0.000846465 -1.01289e-06 
         700      64.1839     0.999972  0.000846344 -7.77033e-07 
         700      64.6766     0.999974  0.000846117 -5.44886e-07 
         700      65.1712     0.999976  0.000845891 -3.31287e-07 
         700      65.6679     0.999976  0.000845969 -1.69943e-07 
         700      66.1663     0.999975  0.000846311 -2.62318e-09 
         700      66.6665     0.999978  0.000846133  2.82467e-07 
         700      67.1687      0.99998  0.000846198   5.0642e-07 
         700      67.6729     0.999982  0.000846362  6.93657e-07 
         700      68.1788     0.999984  0.000846527  8.62374e-07 
         700      68.6866     0.999985  0.000846633  1.02614e-06 
         700      69.1963     0.999987  0.000846656  1.19457e-06 
         700      69.7081     0.999989  0.000846598  1.37423e-06 
         700      70.2215     0.999991  0.000846481  1.56901e-06 
         700      70.7368     0.999992  0.000846339  1.78098e-06 
         700      71.2543     0.999994  0.000846209  2.01051e-06 
         700      71.7734     0.999996  0.000846126  2.25622e-06 
         700      72.2943     0.999997   0.00084611  2.51557e-06 
         700      72.8172     0.999998  0.000846167  2.78459e-06 
         700      73.3422     0.999999  0.000846274  3.05802e-06 
         700      73.8688            1  0.000846348  3.29598e-06 
         700      74.3973            1  0.000846349  3.43484e-06 
         700      74.9277            1  0.000846398  3.59243e-06 
         700      75.4602      1.00001  0.000846459  3.76902e-06 
         700      75.9944      1.00001  0.000846513  3.96346e-06 
         700      76.5305      1.00001   0.00084655  4.17364e-06 
         700      77.0684      1.00001  0.000846563  4.39645e-06 
         700      77.6084      1.00001  0.000846547  4.62841e-06 
         700      78.1502      1.00001  0.000846499  4.86595e-06 
         700      78.6937      1.00002  0.000846417  5.10655e-06 
         700      79.2394      1.00002  0.000846304   5.3491e-06 
         700      79.7868      1.00002  0.000846172  5.59399e-06 
         700      80.3361      1.00002  0.000846045   5.8438e-06 
         700      80.8872      1.00002  0.000845955  6.10262e-06 
         700      81.4404      1.00002  0.000845933  6.37538e-06 
         700      81.9953      1.00002  0.000845987  6.66586e-06 
         700      82.5521      1.00003  0.000846068  6.97479e-06 
         700      83.1108      1.00003  0.000846002  7.29599e-06 
         700      83.6715      1.00003  0.000846276  7.47867e-06 
         700       84.234      1.00003  0.000846447  7.63148e-06 
         700      84.7983      1.00003  0.000846389   7.8408e-06 
         700      85.3645      1.00003  0.000846265  8.09298e-06 
         700      85.9328      1.00004   0.00084611   8.3679e-06 
         700      86.5028      1.00004  0.000845933  8.63813e-06 
         700      87.0747      1.00004  0.000845802  8.86792e-06 
         700      87.6486      1.00004  0.000845926  9.00989e-06 
         700      88.2243      1.00004  0.000846731   9.0006e-06 
         700      88.8018      1.00004  0.000846216  9.29796e-06 
         700      89.3812      1.00004  0.000845828  9.61068e-06 
         700      89.9627      1.00005  0.000846188  9.74475e-06 
         700      90.5458      1.00005  0.000846536  9.83848e-06 
         700      91.1309      1.00005  0.000846594  9.96854e-06 
         700      91.7178      1.00005  0.000846371  1.01662e-05 
         700      92.3069      1.00005  0.000846011   1.0432e-05 
         700      92.8976      1.00005  0.000845688  1.07473e-05 
         700      93.4901      1.00006  0.000845534  1.10852e-05 
         700      94.0846      1.00006  0.000845609  1.14183e-05 
         700      94.6812      1.00006  0.000845888  1.17244e-05 
         700      95.2794      1.00006   0.00084628  1.19902e-05 
         700      95.8796      1.00006  0.000846656  1.22139e-05 
         700      96.4818      1.00007  0.000846883  1.24049e-05 
         700      97.0857      1.00007  0.000846871  1.25817e-05 
         700      97.6915      1.00007  0.000846599  1.27692e-05 
         700      98.2991      1.00007  0.000846139  1.29929e-05 
         700      98.9089      1.00008  0.000845647   1.3273e-05 
         700      99.5203      1.00008  0.000845333  1.36162e-05 
         700      100.134      1.00008  0.000845379  1.40071e-05 
         700      100.749      1.00008  0.000845818  1.43984e-05 
         700      101.366      1.00008  0.000846342  1.47003e-05 
         700      101.985      1.00008  0.000846047  1.47691e-05 
         700      102.606      1.00008  0.000845771  1.48994e-05 
         700      103.229      1.00008  0.000846431   1.5267e-05 
         700      103.854      1.00009  0.000846183  1.55444e-05 
         700       104.48      1.00009  0.000845395  1.57742e-05 
         700      105.108      1.00009  0.000844591  1.59205e-05 
         700      105.739      1.00009  0.000844473  1.58774e-05 
         700      106.371      1.00009  0.000845264  1.58783e-05 
         700      107.005      1.00009  0.000845539   1.6523e-05 
         700      107.641      1.00009  0.000845922  1.69875e-05 
         700      108.279      1.00009  0.000846187  1.73188e-05 
         700      108.919       1.0001  0.000846259  1.75702e-05 
         700       109.56       1.0001  0.000846158  1.77901e-05 
         700      110.204       1.0001  0.000845957  1.80139e-05 
         700      110.849      1.00011   0.00084574  1.82614e-05 
         700      111.497      1.00011  0.000845578  1.85362e-05 
         700      112.146      1.00011  0.000845509  1.88296e-05 
         700      112.797      1.00011  0.000845534  1.91248e-05 
         700       113.45      1.00011  0.000845621  1.94034e-05 
         700      114.105      1.00011   0.00084572  1.96511e-05 
         700      114.761      1.00011  0.000845778  1.98639e-05 
         700       115.42      1.00012  0.000845763  2.00513e-05 
         700      116.081      1.00012  0.000845681  2.02374e-05 
         700      116.743      1.00012  0.000845583  2.04566e-05 
         700      117.407      1.00013  0.000845553  2.07458e-05 
         700      118.073      1.00013  0.000845675  2.11274e-05 
         700      118.741      1.00013   0.00084595  2.15849e-05 
         700      119.411      1.00013  0.000846169  2.20287e-05 
         700      120.083      1.00013   0.00084572  2.22497e-05 
         700      120.757      1.00013   0.00084461  2.22266e-05 
         700      121.432      1.00013  0.000845561  2.27739e-05 
         700       122.11      1.00013  0.000845839  2.31299e-05 
         700      122.789      1.00013  0.000845773   2.3368e-05 
         700       123.47      1.00014  0.000845578  2.35449e-05 
         700      124.153      1.00014  0.000845381  2.37018e-05 
         700      124.838      1.00015  0.000845242  2.38672e-05 
         700      125.525      1.00015  0.000845178  2.40584e-05 
         700      126.214      1.00016  0.000845175  2.42833e-05 
         700      126.905      1.00016  0.000845209  2.45422e-05 
         700      127.597      1.00016  0.000845255  2.48305e-05 
         700      128.292      1.00016  0.000845298    2.514e-05 
         700      128.988      1.00016  0.000845334  2.54612e-05 
         700      129.686      1.00016  0.000845372  2.57854e-05 
         700      130.386      1.00016  0.000845426  2.61066e-05 
         700      131.088      1.00016  0.000845503  2.64239e-05 
         700      131.792      1.00016  0.000845584  2.67426e-05 
         700      132.497      1.00016  0.000845594  2.70776e-05 
         700      133.205      1.00016  0.000845366  2.74542e-05 
         700      133.915      1.00016  0.000844594  2.79111e-05 
         700      134.626      1.00017  0.000844996  2.81183e-05 
         700      135.339      1.00018  0.000845464  2.83063e-05 
         700      136.054      1.00018  0.000845586   2.8554e-05 
         700      136.771      1.00019  0.000845474  2.88437e-05 
         700       137.49      1.00019  0.000845231  2.91587e-05 
         700      138.211      1.00019  0.000844945  2.94851e-05 
         700      138.934      1.00019  0.000844684  2.98122e-05 
         700      139.658      1.00019   0.00084449  3.01319e-05 
         700      140.385      1.00019  0.000844385  3.04398e-05 
         700      141.113      1.00019  0.000844368  3.07346e-05 
         700      141.843      1.00019  0.000844421  3.10178e-05 
         700      142.575      1.00018  0.000844516  3.12932e-05 
         700      143.309      1.00018  0.000844622  3.15666e-05 
         700      144.045      1.00019  0.000844711  3.18455e-05 
         700      144.783      1.00019  0.000844768  3.21382e-05 
         700      145.523      1.00021  0.000844789  3.24532e-05 
         700      146.264      1.00022  0.000844788  3.27996e-05 
         700      147.007      1.00023   0.00084479   3.3186e-05 
         700      147.753      1.00023  0.000844814  3.36212e-05 
         700        148.5       1.0002  0.000844857  3.41138e-05 
         700      149.249      1.00014  0.000844852  3.46735e-05 
         700          150            1  0.000844615  3.53118e-05 
