Variables = x, y, u, v, p

Zone, I=600, F=POINT
         350            0            0            0 -5.14447e-05 
         350     0.000417  0.000166935  2.53712e-11 -5.14446e-05 
         350     0.001671  0.000668942  4.07425e-10 -5.14442e-05 
         350     0.003762   0.00150602  2.06508e-09 -5.14436e-05 
         350     0.006687   0.00267697  6.52473e-09 -5.14427e-05 
         350      0.01045   0.00418339  1.59343e-08 -5.14416e-05 
         350     0.015048   0.00602409  3.30415e-08 -5.14403e-05 
         350     0.020484   0.00820026  6.12256e-08 -5.14387e-05 
         350     0.026753    0.0107099  1.04436e-07 -5.14369e-05 
         350     0.033862    0.0135558  1.67314e-07 -5.14348e-05 
         350     0.041803    0.0167348  2.54991e-07 -5.14325e-05 
         350     0.050579    0.0202481  3.73295e-07 -5.14299e-05 
         350     0.060198    0.0240989  5.28783e-07 -5.14271e-05 
         350     0.070646    0.0282815  7.28267e-07 -5.14241e-05 
         350     0.081937    0.0328015  9.79664e-07 -5.14208e-05 
         350     0.094057    0.0376534  1.29092e-06 -5.14172e-05 
         350     0.107021    0.0428432  1.67131e-06 -5.14135e-05 
         350     0.120813    0.0483642  2.12983e-06 -5.14094e-05 
         350      0.13545    0.0542234  2.67716e-06 -5.14052e-05 
         350     0.150914    0.0604134  3.32332e-06 -5.14006e-05 
         350     0.167213    0.0669373  4.07988e-06 -5.13959e-05 
         350     0.184359    0.0737998  4.95938e-06 -5.13909e-05 
         350      0.20233     0.080992  5.97321e-06 -5.13856e-05 
         350     0.221149    0.0885227  7.13577e-06 -5.13801e-05 
         350     0.240792    0.0963821  8.45929e-06 -5.13744e-05 
         350     0.261284      0.10458  9.95975e-06 -5.13684e-05 
         350     0.282599     0.113105  1.16501e-05 -5.13622e-05 
         350     0.304763     0.121968  1.35479e-05 -5.13557e-05 
         350      0.32775     0.131157  1.56668e-05 -5.13489e-05 
         350     0.351587     0.140682  1.80259e-05 -5.13419e-05 
         350     0.376246     0.150532  2.06395e-05 -5.13347e-05 
         350      0.40174      0.16071  2.35264e-05 -5.13272e-05 
         350     0.428086     0.171221  2.67066e-05 -5.13195e-05 
         350     0.455252     0.182052  3.01949e-05 -5.13115e-05 
         350     0.483271     0.193214  3.40143e-05 -5.13032e-05 
         350     0.512109     0.204692  3.81796e-05 -5.12947e-05 
         350     0.541801     0.216496  4.27155e-05 -5.12859e-05 
         350     0.572311     0.228609  4.76362e-05 -5.12768e-05 
         350     0.603676     0.241044  5.29681e-05 -5.12674e-05 
         350     0.635857     0.253781  5.87246e-05 -5.12578e-05 
         350     0.668875     0.266824  6.49296e-05 -5.12479e-05 
         350     0.702748     0.280176  7.16073e-05 -5.12377e-05 
         350     0.737438     0.293817  7.87704e-05 -5.12272e-05 
         350     0.772984     0.307755  8.64469e-05 -5.12164e-05 
         350     0.809345     0.321968  9.46476e-05 -5.12052e-05 
         350     0.846564     0.336466  0.000103401 -5.11937e-05 
         350     0.884597     0.351223  0.000112717 -5.11819e-05 
         350     0.923489     0.366248  0.000122622 -5.11697e-05 
         350     0.963194     0.381512  0.000133123 -5.11572e-05 
         350      1.00376     0.397022  0.000144247 -5.11442e-05 
         350      1.04514     0.412749  0.000155996 -5.11309e-05 
         350      1.08735     0.428687  0.000168389 -5.11171e-05 
         350      1.13042     0.444833  0.000181445 -5.11028e-05 
         350      1.17431      0.46115  0.000195157 -5.10881e-05 
         350      1.21905     0.477641  0.000209548 -5.10729e-05 
         350      1.26461     0.494269  0.000224604 -5.10572e-05 
         350      1.31103     0.511033  0.000240346 -5.10409e-05 
         350      1.35826     0.527891  0.000256751 -5.10241e-05 
         350      1.40635     0.544843  0.000273836 -5.10066e-05 
         350      1.45525     0.561842   0.00029157 -5.09885e-05 
         350      1.50498     0.578875  0.000309949 -5.09697e-05 
         350      1.55558     0.595924  0.000328967 -5.09506e-05 
         350      1.60699     0.612941  0.000348583 -5.09303e-05 
         350      1.65927     0.629917  0.000368793 -5.09091e-05 
         350      1.71235     0.646801  0.000389541 -5.08869e-05 
         350      1.76629     0.663582  0.000410814 -5.08639e-05 
         350      1.82104     0.680208  0.000432546 -5.08402e-05 
         350      1.87666     0.696665  0.000454719 -5.08155e-05 
         350      1.93309     0.712901  0.000477253   -5.079e-05 
         350      1.99034     0.728891  0.000500107 -5.07635e-05 
         350      2.04847     0.744612  0.000523235  -5.0736e-05 
         350       2.1074      0.76001  0.000546545 -5.07073e-05 
         350      2.16721     0.775071  0.000569994 -5.06775e-05 
         350      2.22781     0.789746  0.000593483 -5.06464e-05 
         350      2.28928     0.804019  0.000616964 -5.06139e-05 
         350      2.35156     0.817846   0.00064033 -5.05802e-05 
         350       2.4147     0.831214  0.000663531  -5.0545e-05 
         350      2.47865     0.844082  0.000686456 -5.05086e-05 
         350      2.54347     0.856443  0.000709055 -5.04707e-05 
         350      2.60909      0.86826  0.000731219 -5.04316e-05 
         350      2.67554     0.879524  0.000752885 -5.03913e-05 
         350      2.74287     0.890228  0.000773992 -5.03497e-05 
         350        2.811     0.900346  0.000794444 -5.03069e-05 
         350         2.88     0.909885  0.000814199 -5.02629e-05 
         350      2.94979     0.918829  0.000833175 -5.02177e-05 
         350      3.02047     0.927189  0.000851341 -5.01712e-05 
         350      3.09194      0.93496  0.000868629 -5.01235e-05 
         350      3.16429     0.942158   0.00088502 -5.00743e-05 
         350      3.23743     0.948787  0.000900465 -5.00237e-05 
         350       3.3114     0.954864  0.000914951 -4.99716e-05 
         350      3.38626     0.960412  0.000928473 -4.99181e-05 
         350      3.46191     0.965444  0.000941011 -4.98634e-05 
         350      3.53844     0.969989  0.000952585  -4.9808e-05 
         350      3.61576     0.974066  0.000963199  -4.9753e-05 
         350      3.69396     0.977708  0.000972897 -4.96998e-05 
         350      3.77295     0.980939   0.00098169 -4.96474e-05 
         350      3.85283      0.98379  0.000989589  -4.9588e-05 
         350      3.93349     0.986289  0.000996675 -4.95268e-05 
         350      4.01504     0.988468   0.00100299 -4.94637e-05 
         350      4.09737     0.990354   0.00100857 -4.93991e-05 
         350      4.18054     0.991975   0.00101346 -4.93331e-05 
         350       4.2646     0.993362   0.00101773 -4.92661e-05 
         350      4.34945     0.994537   0.00102141 -4.91986e-05 
         350      4.43518     0.995528   0.00102458 -4.91311e-05 
         350      4.52169     0.996357   0.00102728 -4.90638e-05 
         350      4.60909     0.997045   0.00102957 -4.89968e-05 
         350      4.69728     0.997612    0.0010315 -4.89304e-05 
         350      4.78636     0.998076   0.00103312 -4.88641e-05 
         350      4.87621     0.998453   0.00103447 -4.87977e-05 
         350      4.96691     0.998756   0.00103557 -4.87307e-05 
         350      5.05849     0.998998   0.00103646 -4.86624e-05 
         350      5.15086     0.999189   0.00103718 -4.85924e-05 
         350      5.24411      0.99934   0.00103774 -4.85202e-05 
         350      5.33815     0.999457   0.00103819 -4.84461e-05 
         350      5.43308     0.999547   0.00103854 -4.83706e-05 
         350      5.52879     0.999617   0.00103883 -4.82957e-05 
         350       5.6254     0.999669   0.00103907 -4.82249e-05 
         350      5.72278     0.999709   0.00103926 -4.81602e-05 
         350      5.82099     0.999738   0.00103946 -4.80863e-05 
         350      5.92011      0.99976   0.00103953 -4.80046e-05 
         350         6.02     0.999776   0.00103961  -4.7917e-05 
         350      6.12078     0.999787    0.0010397 -4.78392e-05 
         350      6.22234     0.999795   0.00103969  -4.7763e-05 
         350       6.3248     0.999801   0.00103973 -4.76854e-05 
         350      6.42803     0.999806   0.00103973 -4.76076e-05 
         350      6.53216     0.999809   0.00103974 -4.75282e-05 
         350      6.63707     0.999811   0.00103975 -4.74472e-05 
         350      6.74287     0.999813   0.00103978 -4.73647e-05 
         350      6.84945     0.999814   0.00103981 -4.72814e-05 
         350      6.95686     0.999815   0.00103984 -4.71977e-05 
         350      7.06517     0.999815   0.00103987 -4.71139e-05 
         350      7.17426     0.999816   0.00103988 -4.70301e-05 
         350      7.28424     0.999816   0.00103989 -4.69461e-05 
         350        7.395     0.999817    0.0010399 -4.68617e-05 
         350      7.50666     0.999817   0.00103991 -4.67764e-05 
         350      7.61908     0.999817   0.00103992   -4.669e-05 
         350      7.73241     0.999818   0.00103994 -4.66022e-05 
         350      7.84651     0.999818   0.00103995 -4.65131e-05 
         350      7.96145     0.999818   0.00103997 -4.64231e-05 
         350      8.07729     0.999819   0.00103998 -4.63327e-05 
         350      8.19389     0.999819   0.00103998 -4.62429e-05 
         350      8.31141     0.999819   0.00103998 -4.61538e-05 
         350      8.42969      0.99982   0.00103998 -4.60653e-05 
         350      8.54887      0.99982      0.00104 -4.59749e-05 
         350      8.66882      0.99982   0.00104004 -4.58773e-05 
         350      8.78968     0.999821   0.00104003 -4.57917e-05 
         350      8.91131     0.999821   0.00104004 -4.57007e-05 
         350      9.03384     0.999821   0.00104007  -4.5608e-05 
         350      9.15713     0.999822   0.00104009 -4.55158e-05 
         350      9.28126     0.999822   0.00104011 -4.54244e-05 
         350       9.4063     0.999822   0.00104013 -4.53329e-05 
         350       9.5321     0.999823   0.00104014 -4.52402e-05 
         350      9.65882     0.999823   0.00104015 -4.51451e-05 
         350      9.78629     0.999824   0.00104016 -4.50467e-05 
         350      9.91468     0.999824   0.00104017 -4.49444e-05 
         350      10.0438     0.999824   0.00104018 -4.48387e-05 
         350      10.1739     0.999825   0.00104019 -4.47305e-05 
         350      10.3047     0.999825    0.0010402 -4.46215e-05 
         350      10.4363     0.999825   0.00104022 -4.45136e-05 
         350      10.5689     0.999826   0.00104024 -4.44085e-05 
         350      10.7022     0.999826   0.00104027 -4.43075e-05 
         350      10.8365     0.999826   0.00104029   -4.421e-05 
         350      10.9715     0.999827   0.00104031 -4.41128e-05 
         350      11.1074     0.999827   0.00104033 -4.40088e-05 
         350      11.2441     0.999828   0.00104032 -4.38855e-05 
         350      11.3816     0.999828   0.00104033 -4.37765e-05 
         350        11.52     0.999828   0.00104037 -4.37168e-05 
         350      11.6592     0.999829   0.00104038 -4.36414e-05 
         350      11.7993     0.999829   0.00104039 -4.35578e-05 
         350      11.9401      0.99983   0.00104039 -4.34569e-05 
         350      12.0819      0.99983   0.00104038 -4.33059e-05 
         350      12.2244      0.99983   0.00104048 -4.30721e-05 
         350      12.3678     0.999831   0.00104045 -4.29821e-05 
         350       12.512     0.999831   0.00104037 -4.29689e-05 
         350      12.6571     0.999832    0.0010404 -4.28834e-05 
         350       12.803     0.999832   0.00104047 -4.27576e-05 
         350      12.9498     0.999832   0.00104053 -4.26144e-05 
         350      13.0973     0.999833   0.00104056 -4.24695e-05 
         350      13.2457     0.999833   0.00104057 -4.23319e-05 
         350       13.395     0.999834   0.00104057 -4.22053e-05 
         350       13.545     0.999834   0.00104056 -4.20902e-05 
         350       13.696     0.999834   0.00104056 -4.19839e-05 
         350      13.8477     0.999835   0.00104058 -4.18826e-05 
         350      14.0004     0.999835    0.0010406 -4.17818e-05 
         350      14.1537     0.999836   0.00104062 -4.16777e-05 
         350      14.3081     0.999836   0.00104063 -4.15674e-05 
         350      14.4631     0.999837   0.00104063 -4.14499e-05 
         350       14.619     0.999837   0.00104063 -4.13259e-05 
         350      14.7758     0.999838   0.00104065 -4.11975e-05 
         350      14.9334     0.999838   0.00104068 -4.10685e-05 
         350      15.0919     0.999838   0.00104068 -4.09423e-05 
         350      15.2511     0.999839    0.0010407 -4.08038e-05 
         350      15.4113     0.999839   0.00104077  -4.0669e-05 
         350      15.5722      0.99984    0.0010408 -4.05456e-05 
         350      15.7341      0.99984   0.00104078 -4.04293e-05 
         350      15.8966     0.999841   0.00104073 -4.03141e-05 
         350      16.0602     0.999841   0.00104077 -4.01927e-05 
         350      16.2244     0.999842   0.00104092 -4.00611e-05 
         350      16.3895     0.999842   0.00104087 -3.99259e-05 
         350      16.5555     0.999843   0.00104095 -3.97958e-05 
         350      16.7223     0.999843   0.00104092 -3.96688e-05 
         350        16.89     0.999844   0.00104087 -3.95423e-05 
         350      17.0584     0.999844   0.00104085 -3.94146e-05 
         350      17.2278     0.999844   0.00104086 -3.92843e-05 
         350      17.3979     0.999845    0.0010409 -3.91508e-05 
         350      17.5689     0.999845   0.00104094 -3.90136e-05 
         350      17.7407     0.999846   0.00104098  -3.8873e-05 
         350      17.9133     0.999846   0.00104101 -3.87297e-05 
         350      18.0869     0.999847   0.00104102  -3.8585e-05 
         350      18.2611     0.999847   0.00104104 -3.84414e-05 
         350      18.4364     0.999848   0.00104105 -3.83026e-05 
         350      18.6123     0.999849   0.00104106  -3.8174e-05 
         350      18.7892     0.999849   0.00104106 -3.80632e-05 
         350      18.9669      0.99985   0.00104103 -3.79811e-05 
         350      19.1454      0.99985   0.00104105 -3.78591e-05 
         350      19.3247     0.999851   0.00104118 -3.76554e-05 
         350       19.505     0.999851   0.00104125 -3.74841e-05 
         350      19.6859     0.999851   0.00104128 -3.73357e-05 
         350      19.8677     0.999852   0.00104129 -3.72016e-05 
         350      20.0505     0.999853   0.00104129 -3.70743e-05 
         350       20.234     0.999853   0.00104126 -3.69482e-05 
         350      20.4184     0.999854   0.00104124 -3.68193e-05 
         350      20.6035     0.999854   0.00104121 -3.66856e-05 
         350      20.7896     0.999855   0.00104121 -3.65475e-05 
         350      20.9765     0.999855   0.00104122 -3.64079e-05 
         350      21.1642     0.999856   0.00104124 -3.62727e-05 
         350      21.3527     0.999856    0.0010413 -3.61163e-05 
         350      21.5421     0.999857   0.00104136 -3.59665e-05 
         350      21.7323     0.999857    0.0010414 -3.58197e-05 
         350      21.9233     0.999857   0.00104141 -3.56693e-05 
         350      22.1153     0.999858   0.00104141 -3.55135e-05 
         350       22.308     0.999859   0.00104141 -3.53542e-05 
         350      22.5016     0.999859   0.00104142 -3.51943e-05 
         350      22.6959      0.99986   0.00104145 -3.50364e-05 
         350      22.8912     0.999861   0.00104149 -3.48804e-05 
         350      23.0872     0.999861   0.00104153 -3.47232e-05 
         350      23.2841     0.999861   0.00104155  -3.4556e-05 
         350      23.4819     0.999862   0.00104152 -3.43643e-05 
         350      23.6804     0.999863   0.00104153  -3.4239e-05 
         350      23.8799     0.999863   0.00104155 -3.41427e-05 
         350      24.0801     0.999864   0.00104153 -3.40175e-05 
         350      24.2813     0.999865   0.00104151 -3.38697e-05 
         350      24.4831     0.999865    0.0010415 -3.37051e-05 
         350       24.686     0.999866   0.00104152 -3.35286e-05 
         350      24.8895     0.999866   0.00104157  -3.3345e-05 
         350       25.094     0.999867   0.00104162 -3.31584e-05 
         350      25.2992     0.999867   0.00104166 -3.29734e-05 
         350      25.5052     0.999868   0.00104166 -3.27946e-05 
         350      25.7123     0.999868   0.00104163 -3.26266e-05 
         350        25.92     0.999869   0.00104167 -3.24743e-05 
         350      26.1287     0.999869   0.00104191 -3.23405e-05 
         350       26.338      0.99987   0.00104175 -3.21517e-05 
         350      26.5484     0.999871   0.00104167 -3.19832e-05 
         350      26.7595     0.999871   0.00104167 -3.18264e-05 
         350      26.9715     0.999872   0.00104171  -3.1675e-05 
         350      27.1842     0.999873   0.00104178 -3.15255e-05 
         350      27.3978     0.999873   0.00104184 -3.13755e-05 
         350      27.6123     0.999874   0.00104189 -3.12233e-05 
         350      27.8276     0.999875   0.00104191 -3.10676e-05 
         350      28.0438     0.999875    0.0010419 -3.09055e-05 
         350      28.2607     0.999876   0.00104187 -3.07334e-05 
         350      28.4786     0.999876   0.00104184 -3.05447e-05 
         350      28.6972     0.999876   0.00104183 -3.03695e-05 
         350      28.9167     0.999877   0.00104186 -3.02215e-05 
         350       29.137     0.999878    0.0010419 -3.00555e-05 
         350      29.3582     0.999879   0.00104195 -2.98787e-05 
         350      29.5801      0.99988     0.001042 -2.96968e-05 
         350      29.8029      0.99988   0.00104202 -2.95136e-05 
         350      30.0266     0.999881   0.00104203 -2.93313e-05 
         350      30.2511     0.999882   0.00104203 -2.91513e-05 
         350      30.4765     0.999882   0.00104204 -2.89733e-05 
         350      30.7026     0.999883   0.00104207 -2.87968e-05 
         350      30.9297     0.999883   0.00104213 -2.86202e-05 
         350      31.1574     0.999884   0.00104218 -2.84423e-05 
         350      31.3862     0.999884   0.00104221 -2.82617e-05 
         350      31.6156     0.999885   0.00104218 -2.80789e-05 
         350      31.8459     0.999886   0.00104213 -2.78964e-05 
         350      32.0772     0.999887   0.00104216 -2.77209e-05 
         350      32.3092     0.999887   0.00104218 -2.75411e-05 
         350      32.5421     0.999888   0.00104211 -2.73658e-05 
         350      32.7757     0.999888   0.00104215 -2.72068e-05 
         350      33.0103     0.999889   0.00104219 -2.70485e-05 
         350      33.2456     0.999889    0.0010422 -2.68807e-05 
         350      33.4819      0.99989   0.00104219 -2.66984e-05 
         350      33.7189     0.999891    0.0010422 -2.65027e-05 
         350      33.9567     0.999891   0.00104221 -2.63018e-05 
         350      34.1955     0.999892    0.0010422 -2.61133e-05 
         350       34.435     0.999893   0.00104223 -2.59135e-05 
         350      34.6754     0.999894   0.00104239 -2.56651e-05 
         350      34.9166     0.999895   0.00104244 -2.54398e-05 
         350      35.1587     0.999896   0.00104244 -2.52335e-05 
         350      35.4016     0.999896   0.00104244 -2.50428e-05 
         350      35.6454     0.999897   0.00104245 -2.48639e-05 
         350      35.8899     0.999898   0.00104246 -2.46938e-05 
         350      36.1353     0.999898   0.00104249 -2.45288e-05 
         350      36.3815     0.999899   0.00104252 -2.43662e-05 
         350      36.6285       0.9999   0.00104254 -2.42031e-05 
         350      36.8765       0.9999   0.00104256 -2.40369e-05 
         350      37.1252     0.999901   0.00104257 -2.38658e-05 
         350      37.3749     0.999902   0.00104257 -2.36878e-05 
         350      37.6252     0.999902   0.00104255 -2.35022e-05 
         350      37.8765     0.999903   0.00104254 -2.33081e-05 
         350      38.1286     0.999904   0.00104252 -2.31058e-05 
         350      38.3816     0.999904   0.00104251 -2.28959e-05 
         350      38.6353     0.999905   0.00104251 -2.26799e-05 
         350      38.8898     0.999906   0.00104253 -2.24597e-05 
         350      39.1453     0.999907   0.00104256 -2.22375e-05 
         350      39.4015     0.999907    0.0010426 -2.20164e-05 
         350      39.6587     0.999908   0.00104265 -2.17991e-05 
         350      39.9166     0.999909    0.0010427 -2.15884e-05 
         350      40.1754     0.999909   0.00104276 -2.13864e-05 
         350       40.435      0.99991   0.00104281 -2.11945e-05 
         350      40.6955     0.999911   0.00104284 -2.10121e-05 
         350      40.9567     0.999912   0.00104286 -2.08366e-05 
         350      41.2189     0.999913   0.00104286 -2.06619e-05 
         350      41.4818     0.999914   0.00104286 -2.04782e-05 
         350      41.7456     0.999914   0.00104285 -2.02699e-05 
         350      42.0103     0.999915   0.00104288 -2.00149e-05 
         350      42.2757     0.999915   0.00104296 -1.96828e-05 
         350      42.5421     0.999916   0.00104286 -1.95446e-05 
         350      42.8091     0.999917   0.00104275 -1.93734e-05 
         350      43.0772     0.999918   0.00104263 -1.91638e-05 
         350      43.3459     0.999919   0.00104256  -1.8937e-05 
         350      43.6157      0.99992   0.00104259  -1.8706e-05 
         350      43.8861      0.99992   0.00104275 -1.84755e-05 
         350      44.1573     0.999921   0.00104294 -1.82409e-05 
         350      44.4296      0.99992   0.00104277 -1.79859e-05 
         350      44.7025     0.999921   0.00104273 -1.77482e-05 
         350      44.9764     0.999923   0.00104303 -1.75572e-05 
         350       45.251     0.999924   0.00104311 -1.73768e-05 
         350      45.5266     0.999925   0.00104308  -1.7202e-05 
         350      45.8029     0.999925   0.00104301 -1.70283e-05 
         350      46.0801     0.999925   0.00104294 -1.68506e-05 
         350      46.3581     0.999926    0.0010429 -1.66636e-05 
         350      46.6368     0.999927   0.00104288 -1.64607e-05 
         350      46.9166     0.999928   0.00104287 -1.62343e-05 
         350       47.197     0.999929   0.00104288 -1.59755e-05 
         350      47.4785     0.999929   0.00104288 -1.56731e-05 
         350      47.7606      0.99993   0.00104289 -1.54647e-05 
         350      48.0437     0.999931   0.00104293 -1.52553e-05 
         350      48.3275     0.999932     0.001043 -1.50308e-05 
         350      48.6123     0.999933   0.00104308 -1.47978e-05 
         350      48.8978     0.999933   0.00104316 -1.45616e-05 
         350      49.1842     0.999934   0.00104321 -1.43256e-05 
         350      49.4714     0.999935   0.00104325 -1.40922e-05 
         350      49.7593     0.999936   0.00104325 -1.38623e-05 
         350      50.0483     0.999936   0.00104323 -1.36362e-05 
         350      50.3379     0.999937   0.00104319 -1.34138e-05 
         350      50.6286     0.999937   0.00104314  -1.3194e-05 
         350      50.9199     0.999938   0.00104308 -1.29761e-05 
         350      51.2122     0.999939   0.00104302 -1.27586e-05 
         350      51.5052     0.999939   0.00104298 -1.25408e-05 
         350      51.7992      0.99994   0.00104297 -1.23212e-05 
         350      52.0938     0.999941   0.00104298 -1.20994e-05 
         350      52.3893     0.999942   0.00104302 -1.18749e-05 
         350      52.6858     0.999943   0.00104308 -1.16474e-05 
         350       52.983     0.999944   0.00104315 -1.14173e-05 
         350      53.2811     0.999945   0.00104324 -1.11848e-05 
         350        53.58     0.999946   0.00104332 -1.09511e-05 
         350      53.8798     0.999948   0.00104337 -1.07166e-05 
         350      54.1803     0.999949   0.00104339 -1.04827e-05 
         350      54.4819     0.999949   0.00104337 -1.02498e-05 
         350       54.784      0.99995   0.00104331 -1.00184e-05 
         350      55.0872      0.99995   0.00104322   -9.788e-06 
         350      55.3911     0.999951   0.00104313 -9.55748e-06 
         350      55.6957     0.999951    0.0010431 -9.32401e-06 
         350      56.0014     0.999952    0.0010432 -9.08291e-06 
         350      56.3078     0.999954   0.00104356 -8.82765e-06 
         350      56.6152     0.999955   0.00104331 -8.57739e-06 
         350      56.9232     0.999955   0.00104315 -8.32521e-06 
         350      57.2323     0.999956    0.0010432 -8.06463e-06 
         350      57.5419     0.999956    0.0010433 -7.79927e-06 
         350      57.8527     0.999957   0.00104336 -7.53218e-06 
         350       58.164     0.999958   0.00104336 -7.26681e-06 
         350      58.4762      0.99996   0.00104331 -7.00557e-06 
         350      58.7895     0.999961   0.00104324 -6.75019e-06 
         350      59.1034     0.999962   0.00104318 -6.50201e-06 
         350      59.4183     0.999963   0.00104315 -6.26087e-06 
         350      59.7338     0.999964   0.00104317 -6.02632e-06 
         350      60.0504     0.999964   0.00104324 -5.79651e-06 
         350      60.3676     0.999965   0.00104334 -5.56948e-06 
         350      60.6858     0.999965   0.00104345 -5.34224e-06 
         350      61.0047     0.999966   0.00104356 -5.11211e-06 
         350      61.3245     0.999967   0.00104363 -4.87606e-06 
         350      61.6452     0.999967   0.00104366 -4.63147e-06 
         350      61.9666     0.999968   0.00104363 -4.37696e-06 
         350      62.2891     0.999969   0.00104356 -4.11176e-06 
         350      62.6121     0.999971   0.00104347 -3.83744e-06 
         350      62.9362     0.999972   0.00104338  -3.5571e-06 
         350       63.261     0.999972   0.00104334  -3.2772e-06 
         350      63.5868     0.999973   0.00104337 -3.00674e-06 
         350      63.9132     0.999974   0.00104348 -2.75914e-06 
         350      64.2406     0.999974   0.00104362 -2.55149e-06 
         350      64.5687     0.999974    0.0010437 -2.40621e-06 
         350      64.8976     0.999975   0.00104377 -2.13814e-06 
         350      65.2276     0.999976   0.00104381 -1.78773e-06 
         350      65.5582     0.999978   0.00104371  -1.4961e-06 
         350      65.8898     0.999979   0.00104354 -1.24045e-06 
         350      66.2221      0.99998   0.00104336 -1.00352e-06 
         350      66.5554     0.999981   0.00104324 -7.71717e-07 
         350      66.8893     0.999981   0.00104322 -5.35932e-07 
         350      67.2243     0.999982   0.00104331 -2.90617e-07 
         350      67.5599     0.999982   0.00104344 -3.55087e-08 
         350      67.8964     0.999983   0.00104349   2.2428e-07 
         350      68.2338     0.999985   0.00104321  4.76172e-07 
         350       68.572     0.999987   0.00104319    7.728e-07 
         350      68.9111     0.999987   0.00104351  1.07997e-06 
         350      69.2509     0.999987   0.00104361  1.35356e-06 
         350      69.5917     0.999988   0.00104355  1.60836e-06 
         350      69.9332     0.999989   0.00104342  1.85479e-06 
         350      70.2757     0.999991   0.00104328  2.10078e-06 
         350      70.6188     0.999992   0.00104316  2.35113e-06 
         350       70.963     0.999993   0.00104311  2.60922e-06 
         350      71.3078     0.999995   0.00104313  2.87624e-06 
         350      71.6535     0.999996   0.00104321  3.15265e-06 
         350      72.0001     0.999996   0.00104334  3.43809e-06 
         350      72.3475     0.999997    0.0010435  3.73111e-06 
         350      72.6958     0.999997   0.00104364  4.03064e-06 
         350      73.0448     0.999998   0.00104376  4.33473e-06 
         350      73.3948     0.999998   0.00104382  4.64213e-06 
         350      73.7455     0.999998   0.00104382  4.95095e-06 
         350      74.0972     0.999999   0.00104375  5.26017e-06 
         350      74.4495            1   0.00104362  5.56818e-06 
         350      74.8027            1   0.00104345  5.87404e-06 
         350      75.1569            1   0.00104327  6.17694e-06 
         350      75.5117            1   0.00104311  6.47552e-06 
         350      75.8676      1.00001     0.001043   6.7691e-06 
         350      76.2241      1.00001   0.00104297  7.05618e-06 
         350      76.5817      1.00001   0.00104304  7.33566e-06 
         350      76.9399      1.00001    0.0010432  7.60548e-06 
         350      77.2991      1.00001   0.00104344  7.86377e-06 
         350      77.6589      1.00001   0.00104371  8.10755e-06 
         350      78.0198      1.00001   0.00104395  8.33385e-06 
         350      78.3814      1.00001   0.00104409   8.5386e-06 
         350      78.7437      1.00001   0.00104404  8.71755e-06 
         350      79.1071      1.00001   0.00104373   8.8659e-06 
         350      79.4712      1.00001   0.00104311  8.97823e-06 
         350      79.8363      1.00002   0.00104223  9.04921e-06 
         350       80.202      1.00002   0.00104174  9.51257e-06 
         350      80.5687      1.00002   0.00104201   9.9627e-06 
         350      80.9361      1.00002   0.00104391  1.03872e-05 
         350      81.3045      1.00002     0.001045  1.07006e-05 
         350      81.6736      1.00002   0.00104305  1.09463e-05 
         350      82.0435      1.00002   0.00104223  1.12365e-05 
         350      82.4144      1.00002   0.00104213  1.15553e-05 
         350       82.786      1.00002   0.00104245  1.18901e-05 
         350      83.1586      1.00002   0.00104298  1.22323e-05 
         350      83.5318      1.00002   0.00104355  1.25753e-05 
         350      83.9061      1.00002   0.00104407  1.29158e-05 
         350       84.281      1.00003   0.00104438  1.32597e-05 
         350      84.6569      1.00003   0.00104441  1.35804e-05 
         350      85.0335      1.00003   0.00104425  1.38779e-05 
         350      85.4109      1.00003   0.00104395  1.41605e-05 