Variables = x, y, u, v, p

Zone, I=416, F=POINT
         -50            0            0            0      5.39418 
         -50     0.013333  5.79142e-06  1.26178e-09      5.39418 
         -50     0.053333  7.35203e-06  -1.6559e-09      5.39418 
         -50         0.12  8.60277e-06 -3.16112e-09      5.39418 
         -50     0.213332  9.18133e-06  2.46033e-08      5.39418 
         -50     0.333332  9.11199e-06  9.86525e-08      5.39417 
         -50         0.48  8.71114e-06  1.78177e-07      5.39416 
         -50     0.653331  8.27593e-06  3.82393e-07      5.39414 
         -50     0.853332  7.83138e-06  5.23735e-07      5.39412 
         -50         1.08  7.28654e-06  7.19001e-07      5.39408 
         -50      1.33333  6.60666e-06  8.55344e-07      5.39403 
         -50      1.61333   5.6512e-06  9.69702e-07      5.39395 
         -50         1.92  5.18082e-06  1.07578e-06      5.39386 
         -50      2.25333  3.96042e-06  9.08391e-07      5.39374 
         -50      2.61333  2.94501e-06  9.30751e-07      5.39359 
         -50            3   3.5959e-06  1.59476e-06       5.3934 
         -25            0           -0           -0      5.17856 
         -25     0.013333  4.16271e-06  9.88465e-10      5.17856 
         -25     0.053333  4.99721e-06  4.90793e-09      5.17856 
         -25         0.12  5.33401e-06  2.08403e-08      5.17856 
         -25     0.213332  5.03438e-06  6.44141e-08      5.17856 
         -25     0.333332  4.24323e-06  1.53747e-07      5.17856 
         -25         0.48  3.28718e-06  2.90579e-07      5.17855 
         -25     0.653331  2.61068e-06   4.5673e-07      5.17855 
         -25     0.853332  2.41052e-06  6.62869e-07      5.17854 
         -25         1.08  2.53225e-06  8.84079e-07      5.17852 
         -25      1.33333  2.70476e-06  1.07519e-06       5.1785 
         -25      1.61333  2.94265e-06  1.23339e-06      5.17847 
         -25         1.92  3.55923e-06  1.30946e-06      5.17844 
         -25      2.25333  3.61693e-06  1.29267e-06      5.17839 
         -25      2.61333  3.27273e-06  1.21599e-06      5.17834 
         -25            3  3.31312e-06  1.20158e-06      5.17826 
           0            0            0            0      4.99996 
           0     0.013333  7.24016e-06 -6.14028e-06      5.00017 
           0     0.053333  8.40748e-06 -3.69235e-06      5.00052 
           0         0.12  7.03152e-06 -3.12287e-06      5.00091 
           0     0.213332  5.12417e-06 -2.35373e-06      5.00133 
           0     0.333332   3.5487e-06 -1.72591e-06      5.00176 
           0         0.48  2.47377e-06 -1.10086e-06       5.0022 
           0     0.653331   2.1095e-06 -4.73983e-07      5.00263 
           0     0.853332  2.28551e-06  1.52009e-07      5.00306 
           0         1.08  2.49102e-06   7.4302e-07      5.00347 
           0      1.33333  2.42553e-06  1.25472e-06      5.00388 
           0      1.61333  2.21225e-06  1.65378e-06      5.00426 
           0         1.92    2.203e-06  1.92991e-06      5.00463 
           0      2.25333  2.55055e-06  2.05396e-06      5.00498 
           0      2.61333  2.88551e-06  2.10056e-06      5.00532 
           0            3  3.52244e-06  2.33785e-06      5.00563 
          20            0            0            0      4.90297 
          20     0.013333  3.00255e-06  2.09457e-06      4.90278 
          20     0.053333   4.8878e-06 -1.91193e-06      4.90246 
          20         0.12  7.91074e-06  -2.9288e-06      4.90209 
          20     0.213332  1.23026e-05  -3.7594e-06       4.9017 
          20     0.333332  1.80768e-05 -4.14055e-06      4.90129 
          20         0.48   2.4004e-05 -4.23456e-06      4.90088 
          20     0.653331   2.7867e-05  -4.1327e-06      4.90046 
          20     0.853332  2.77099e-05 -3.96378e-06      4.90005 
          20         1.08  2.39853e-05 -3.78449e-06      4.89965 
          20      1.33333  1.85458e-05  -3.5819e-06      4.89925 
          20      1.61333  1.23261e-05 -3.33284e-06      4.89886 
          20         1.92   6.1051e-06  -3.0379e-06      4.89848 
          20      2.25333  1.11393e-06 -2.70861e-06      4.89811 
          20      2.61333 -2.10274e-06 -2.37049e-06      4.89775 
          20            3 -4.03977e-06 -2.17127e-06      4.89739 
          40            0  4.54778e-21  3.27242e-25        4.783 
          40     0.013333  3.58935e-07 -7.19723e-09        4.783 
          40     0.053333 -3.58781e-06 -1.16536e-07        4.783 
          40         0.12 -3.13089e-06 -5.54852e-07        4.783 
          40     0.213332   3.7174e-06 -1.53317e-06        4.783 
          40     0.333332  1.23891e-05 -3.07068e-06        4.783 
          40         0.48  1.74376e-05 -5.04175e-06      4.78299 
          40     0.653331  1.76459e-05 -7.31242e-06      4.78299 
          40     0.853332  1.57271e-05 -9.70633e-06      4.78299 
          40         1.08  1.34846e-05 -1.20194e-05      4.78299 
          40      1.33333  1.11228e-05 -1.40348e-05      4.78298 
          40      1.61333  8.72963e-06 -1.55076e-05      4.78297 
          40         1.92  5.44741e-06 -1.62144e-05      4.78297 
          40      2.25333  3.33652e-06 -1.60928e-05      4.78295 
          40      2.61333  2.28545e-06 -1.52993e-05      4.78294 
          40            3  1.32891e-06 -1.41105e-05      4.78292 
          60            0  1.98516e-21   8.3097e-26      4.67619 
          60     0.013333 -1.92182e-07  -6.8475e-09      4.67619 
          60     0.053333 -5.49418e-06 -1.08655e-07      4.67619 
          60         0.12 -7.32429e-06 -5.13261e-07      4.67619 
          60     0.213332 -3.18986e-06 -1.41523e-06      4.67619 
          60     0.333332  3.32055e-06 -2.83614e-06      4.67619 
          60         0.48  7.35743e-06 -4.65206e-06      4.67619 
          60     0.653331  6.76702e-06 -6.74958e-06      4.67619 
          60     0.853332  2.37932e-06 -9.02463e-06      4.67619 
          60         1.08 -1.56806e-06  -1.1221e-05      4.67618 
          60      1.33333 -1.86909e-06 -1.30162e-05      4.67618 
          60      1.61333  -3.4234e-07 -1.42737e-05      4.67618 
          60         1.92  8.64106e-07  -1.4832e-05      4.67617 
          60      2.25333  2.01784e-06 -1.46491e-05      4.67617 
          60      2.61333  2.95615e-06 -1.38543e-05      4.67616 
          60            3  3.65668e-06 -1.26229e-05      4.67615 
          80            0            0            0      4.57298 
          80     0.013333 -2.45357e-06 -8.58275e-09      4.57298 
          80     0.053333 -1.25078e-05 -1.42442e-07      4.57298 
          80         0.12  -1.7339e-05 -7.14184e-07      4.57298 
          80     0.213332 -1.14413e-05 -2.07654e-06      4.57298 
          80     0.333332  1.20021e-07 -4.32996e-06      4.57298 
          80         0.48  8.52876e-06  -7.2749e-06      4.57298 
          80     0.653331  9.87342e-06 -1.06062e-05      4.57298 
          80     0.853332  7.12074e-06 -1.39566e-05      4.57297 
          80         1.08  5.73704e-06 -1.69428e-05      4.57297 
          80      1.33333  6.35323e-06 -1.93443e-05      4.57297 
          80      1.61333  6.94849e-06 -2.10791e-05      4.57297 
          80         1.92  6.50439e-06 -2.19066e-05      4.57297 
          80      2.25333  5.82931e-06 -2.17458e-05      4.57296 
          80      2.61333  4.84417e-06  -2.0742e-05      4.57296 
          80            3  3.79272e-06 -1.90719e-05      4.57295 
         100            0            0            0      4.47192 
         100     0.013333 -3.43077e-06 -1.16554e-08      4.47192 
         100     0.053333 -1.53749e-05 -1.87068e-07      4.47192 
         100         0.12 -2.16804e-05 -9.03421e-07      4.47192 
         100     0.213332 -1.70376e-05 -2.53371e-06      4.47192 
         100     0.333332 -7.63917e-06 -5.13066e-06      4.47192 
         100         0.48 -2.43132e-06 -8.45843e-06      4.47192 
         100     0.653331 -4.54453e-06  -1.2236e-05      4.47192 
         100     0.853332 -9.53898e-06 -1.60777e-05      4.47192 
         100         1.08 -9.78107e-06 -1.94432e-05      4.47192 
         100      1.33333 -6.17606e-06 -2.20583e-05      4.47192 
         100      1.61333 -3.02776e-06 -2.39274e-05      4.47192 
         100         1.92  5.09426e-08 -2.47627e-05      4.47192 
         100      2.25333  3.08593e-06 -2.44847e-05      4.47191 
         100      2.61333   5.4065e-06 -2.32376e-05      4.47191 
         100            3  6.99675e-06 -2.12401e-05      4.47191 
         150            0  6.13907e-21  1.05747e-26      4.22428 
         150     0.013333  1.12176e-05  9.04754e-09      4.22428 
         150     0.053333  3.04522e-05  1.53776e-07      4.22428 
         150         0.12  4.46063e-05  8.00133e-07      4.22428 
         150     0.213332  4.39791e-05  2.41367e-06      4.22428 
         150     0.333332   3.2777e-05  5.20324e-06      4.22428 
         150         0.48  2.20103e-05  8.99078e-06      4.22428 
         150     0.653331  1.81375e-05  1.34294e-05      4.22428 
         150     0.853332  1.94227e-05  1.81131e-05      4.22428 
         150         1.08  1.92718e-05  2.25383e-05      4.22428 
         150      1.33333  1.50326e-05   2.6282e-05      4.22428 
         150      1.61333   9.8582e-06  2.91823e-05      4.22427 
         150         1.92    5.273e-06  3.09492e-05      4.22427 
         150      2.25333  1.11898e-06  3.13815e-05      4.22427 
         150      2.61333 -1.96319e-06   3.0582e-05      4.22427 
         150            3  -3.7084e-06  2.87288e-05      4.22427 
         200            0            0            0      3.97974 
         200     0.013333  1.98687e-06   1.9855e-08      3.97974 
         200     0.053333  -4.1913e-06  2.89032e-07      3.97974 
         200         0.12 -2.26764e-05  1.24191e-06      3.97974 
         200     0.213332  -4.9407e-05  3.11196e-06      3.97974 
         200     0.333332 -7.26331e-05  5.71381e-06      3.97974 
         200         0.48 -8.50032e-05  8.69134e-06      3.97974 
         200     0.653331 -8.63845e-05  1.18861e-05      3.97974 
         200     0.853332 -7.80724e-05  1.53743e-05      3.97974 
         200         1.08 -6.27046e-05  1.90993e-05      3.97974 
         200      1.33333 -4.67731e-05  2.26567e-05      3.97974 
         200      1.61333 -3.24538e-05  2.55836e-05      3.97974 
         200         1.92 -1.65922e-05  2.76135e-05      3.97974 
         200      2.25333 -2.18858e-06  2.85747e-05      3.97974 
         200      2.61333  9.45726e-06  2.84054e-05      3.97974 
         200            3  1.82363e-05  2.72358e-05      3.97974 
         250            0            0            0      3.73636 
         250     0.013333   1.0098e-05  1.07514e-08      3.73636 
         250     0.053333  2.64194e-05  1.72541e-07      3.73636 
         250         0.12  3.70555e-05  8.47684e-07      3.73636 
         250     0.213332   3.3411e-05  2.45864e-06      3.73636 
         250     0.333332  1.94941e-05  5.19167e-06      3.73636 
         250         0.48   5.7283e-06    8.898e-06      3.73636 
         250     0.653331 -9.70923e-07  1.32917e-05      3.73636 
         250     0.853332 -2.96662e-07  1.81016e-05      3.73636 
         250         1.08  3.23942e-06  2.29989e-05      3.73636 
         250      1.33333  4.69157e-06  2.75783e-05      3.73636 
         250      1.61333  3.82739e-06  3.15041e-05      3.73636 
         250         1.92  3.17393e-06  3.44515e-05      3.73636 
         250      2.25333  2.48754e-06  3.61616e-05      3.73636 
         250      2.61333  1.87313e-06  3.65224e-05      3.73636 
         250            3  1.46056e-06  3.55594e-05      3.73636 
         300            0            0            0      3.49339 
         300     0.013333  1.30676e-05 -2.80405e-09      3.49339 
         300     0.053333  4.05723e-05 -2.27827e-08      3.49339 
         300         0.12   7.2447e-05  2.06808e-08      3.49339 
         300     0.213332   9.4636e-05  4.24289e-07      3.49339 
         300     0.333332  0.000101361   1.5437e-06      3.49339 
         300         0.48  9.79372e-05  3.51489e-06      3.49339 
         300     0.653331  9.27238e-05  6.19026e-06      3.49339 
         300     0.853332  8.84474e-05  9.23745e-06      3.49339 
         300         1.08  8.13669e-05  1.22412e-05      3.49339 
         300      1.33333  6.85261e-05  1.48769e-05      3.49339 
         300      1.61333  5.24938e-05  1.70739e-05      3.49339 
         300         1.92  3.54758e-05  1.87686e-05      3.49339 
         300      2.25333  1.87168e-05  1.97906e-05      3.49339 
         300      2.61333  3.27959e-06  2.00941e-05      3.49339 
         300            3 -9.59389e-06  1.96902e-05      3.49339 
         350            0           -0           -0      3.25054 
         350     0.013333  3.74066e-06 -4.42858e-09      3.25054 
         350     0.053333  7.81749e-06 -5.97964e-08      3.25054 
         350         0.12  1.37463e-05 -2.27601e-07      3.25054 
         350     0.213332  1.91503e-05 -4.86466e-07      3.25054 
         350     0.333332  2.20534e-05 -7.47733e-07      3.25054 
         350         0.48  2.29324e-05 -9.73231e-07      3.25054 
         350     0.653331  2.30342e-05  -1.2345e-06      3.25054 
         350     0.853332  2.17351e-05 -1.66907e-06      3.25054 
         350         1.08  1.76181e-05 -2.37354e-06      3.25054 
         350      1.33333  1.20482e-05 -3.28114e-06      3.25054 
         350      1.61333  7.85087e-06 -4.19148e-06      3.25054 
         350         1.92  4.56481e-06 -4.98525e-06      3.25054 
         350      2.25333  1.76413e-06  -5.6285e-06      3.25053 
         350      2.61333 -5.35755e-07 -6.06953e-06      3.25053 
         350            3 -2.13534e-06 -6.27339e-06      3.25053 
         400            0            0            0      3.00782 
         400     0.013333  1.67607e-05 -1.83856e-08      3.00782 
         400     0.053333  5.81407e-05  -2.5041e-07      3.00782 
         400         0.12  0.000116343 -9.56289e-07      3.00782 
         400     0.213332  0.000169807 -1.98894e-06      3.00782 
         400     0.333332  0.000198796 -2.73347e-06      3.00782 
         400         0.48  0.000201438 -2.62639e-06      3.00782 
         400     0.653331  0.000189606 -1.62396e-06      3.00782 
         400     0.853332  0.000172327 -1.42034e-07      3.00782 
         400         1.08  0.000150396  1.35968e-06      3.00782 
         400      1.33333  0.000124581  2.73629e-06      3.00782 
         400      1.61333  9.79093e-05  4.10727e-06      3.00782 
         400         1.92  6.96381e-05  5.48148e-06      3.00782 
         400      2.25333  4.05865e-05  6.70467e-06      3.00782 
         400      2.61333  1.25109e-05  7.71604e-06      3.00782 
         400            3 -1.23028e-05  8.46618e-06      3.00781 
         450            0            0            0      2.76502 
         450     0.013333 -2.41804e-05 -1.87417e-08      2.76502 
         450     0.053333 -8.66668e-05 -3.18531e-07      2.76502 
         450         0.12 -0.000144278 -1.67781e-06      2.76502 
         450     0.213332 -0.000162622 -5.20595e-06      2.76502 
         450     0.333332 -0.000140643 -1.16565e-05      2.76502 
         450         0.48  -0.00010458 -2.09379e-05      2.76502 
         450     0.653331 -7.98487e-05 -3.23916e-05      2.76502 
         450     0.853332 -7.43486e-05 -4.52608e-05      2.76502 
         450         1.08 -7.83719e-05 -5.86627e-05      2.76502 
         450      1.33333 -7.50421e-05 -7.15031e-05      2.76502 
         450      1.61333 -5.99309e-05 -8.29439e-05      2.76502 
         450         1.92 -4.23111e-05 -9.25136e-05      2.76502 
         450      2.25333 -2.45389e-05 -9.96092e-05      2.76502 
         450      2.61333 -7.18503e-06 -0.000103683      2.76502 
         450            3  8.51463e-06 -0.000104386      2.76503 
         500            0           -0           -0      2.52236 
         500     0.013333  1.03139e-05  2.61195e-08      2.52236 
         500     0.053333   2.3241e-05  3.94649e-07      2.52236 
         500         0.12  2.06792e-05  1.79779e-06      2.52236 
         500     0.213332 -4.94694e-06  4.85004e-06      2.52236 
         500     0.333332 -4.14559e-05   9.6454e-06      2.52236 
         500         0.48 -7.12181e-05  1.58065e-05      2.52236 
         500     0.653331 -8.53378e-05  2.29368e-05      2.52236 
         500     0.853332 -8.29853e-05   3.0899e-05      2.52236 
         500         1.08 -6.69734e-05  3.96184e-05      2.52236 
         500      1.33333 -4.64901e-05  4.86286e-05      2.52236 
         500      1.61333 -3.19538e-05  5.70964e-05      2.52236 
         500         1.92 -2.13022e-05   6.4363e-05      2.52236 
         500      2.25333 -1.12582e-05  7.00189e-05      2.52236 
         500      2.61333 -1.32341e-06  7.36554e-05      2.52236 
         500            3  7.65858e-06  7.49614e-05      2.52236 
         550            0           -0           -0      2.27975 
         550     0.013333  4.77029e-06 -7.98338e-09      2.27975 
         550     0.053333  1.24684e-05 -1.11287e-07      2.27975 
         550         0.12  2.48557e-05 -4.46003e-07      2.27975 
         550     0.213332  3.74567e-05 -1.01741e-06      2.27975 
         550     0.333332  4.48228e-05 -1.66656e-06      2.27975 
         550         0.48  4.59913e-05 -2.24731e-06      2.27975 
         550     0.653331   4.3811e-05 -2.78891e-06      2.27975 
         550     0.853332  3.96822e-05 -3.47447e-06      2.27975 
         550         1.08  3.23259e-05 -4.48738e-06      2.27975 
         550      1.33333  2.23543e-05 -5.82055e-06      2.27975 
         550      1.61333   1.3834e-05 -7.23279e-06      2.27975 
         550         1.92  7.96035e-06 -8.49529e-06      2.27975 
         550      2.25333  3.07747e-06 -9.53982e-06      2.27975 
         550      2.61333 -1.44089e-06  -1.0308e-05      2.27975 
         550            3 -5.23368e-06 -1.07482e-05      2.27975 
         600            0 -3.25474e-21 -1.05933e-28       2.0371 
         600     0.013333 -1.42368e-05 -9.33927e-09       2.0371 
         600     0.053333 -5.39148e-05   -1.643e-07       2.0371 
         600         0.12 -9.13581e-05 -9.02399e-07       2.0371 
         600     0.213332 -0.000103016 -2.91576e-06       2.0371 
         600     0.333332 -8.56086e-05 -6.75706e-06       2.0371 
         600         0.48 -5.58787e-05 -1.24474e-05       2.0371 
         600     0.653331 -3.26797e-05  -1.9545e-05       2.0371 
         600     0.853332 -2.31789e-05 -2.74844e-05       2.0371 
         600         1.08 -2.22154e-05 -3.57038e-05       2.0371 
         600      1.33333 -2.00641e-05 -4.36491e-05       2.0371 
         600      1.61333 -1.33802e-05 -5.09481e-05       2.0371 
         600         1.92 -6.35773e-06 -5.74016e-05       2.0371 
         600      2.25333 -1.30195e-08 -6.26881e-05       2.0371 
         600      2.61333  5.83116e-06 -6.64237e-05       2.0371 
         600            3  1.09832e-05 -6.82892e-05       2.0371 
         650            0           -0           -0      1.79457 
         650     0.013333  2.34958e-05  1.04497e-08      1.79457 
         650     0.053333  7.46782e-05  1.81597e-07      1.79457 
         650         0.12   0.00012681  9.82751e-07      1.79457 
         650     0.213332  0.000153367  3.13286e-06      1.79457 
         650     0.333332   0.00014906   7.1916e-06      1.79457 
         650         0.48   0.00012941  1.31981e-05      1.79457 
         650     0.653331  0.000113353  2.07787e-05      1.79457 
         650     0.853332  0.000109519  2.94631e-05      1.79457 
         650         1.08  0.000113695  3.87099e-05      1.79457 
         650      1.33333  0.000113099  4.77838e-05      1.79457 
         650      1.61333  9.99701e-05  5.60147e-05      1.79457 
         650         1.92  8.09754e-05  6.31427e-05      1.79457 
         650      2.25333  6.06601e-05  6.89349e-05      1.79457 
         650      2.61333  3.99722e-05  7.30381e-05      1.79456 
         650            3  1.93518e-05  7.51145e-05      1.79456 
         700            0            0            0      1.55198 
         700     0.013333 -4.10649e-06 -1.67607e-08      1.55198 
         700     0.053333 -1.56332e-05 -2.61245e-07      1.55198 
         700         0.12 -1.55628e-05 -1.23951e-06      1.55198 
         700     0.213332  4.67165e-06 -3.47824e-06      1.55198 
         700     0.333332  3.58421e-05 -7.12305e-06      1.55198 
         700         0.48  6.06305e-05 -1.18435e-05      1.55198 
         700     0.653331  6.92247e-05 -1.71786e-05      1.55198 
         700     0.853332  6.24067e-05 -2.28574e-05      1.55198 
         700         1.08  4.68299e-05 -2.86981e-05      1.55198 
         700      1.33333  3.25529e-05 -3.43159e-05      1.55198 
         700      1.61333   2.6305e-05 -3.92452e-05      1.55198 
         700         1.92   2.3381e-05 -4.33209e-05      1.55198 
         700      2.25333  1.93965e-05 -4.64652e-05      1.55198 
         700      2.61333  1.41165e-05 -4.85095e-05      1.55198 
         700            3  8.79282e-06 -4.92623e-05      1.55198 
         750            0            0            0      1.30941 
         750     0.013333  1.45513e-05   2.4826e-08      1.30941 
         750     0.053333  3.81921e-05  3.83832e-07      1.30941 
         750         0.12  4.67996e-05  1.80719e-06      1.30941 
         750     0.213332  2.52608e-05  5.05879e-06      1.30941 
         750     0.333332 -1.69214e-05  1.04152e-05      1.30941 
         750         0.48 -5.72653e-05  1.75437e-05      1.30941 
         750     0.653331 -8.00852e-05  2.59224e-05      1.30941 
         750     0.853332 -8.18294e-05  3.52566e-05      1.30941 
         750         1.08 -6.63347e-05  4.53872e-05      1.30941 
         750      1.33333 -4.48531e-05  5.58374e-05      1.30941 
         750      1.61333 -3.08005e-05  6.57858e-05      1.30941 
         750         1.92 -2.40137e-05   7.4663e-05      1.30941 
         750      2.25333 -1.79255e-05  8.21349e-05      1.30941 
         750      2.61333 -1.06805e-05  8.78281e-05      1.30941 
         750            3 -3.38724e-06  9.13397e-05      1.30941 
         800            0           -0           -0      1.06691 
         800     0.013333  1.25704e-06 -1.07044e-08      1.06691 
         800     0.053333   9.2172e-07 -1.58663e-07      1.06691 
         800         0.12  6.52448e-06 -6.97908e-07      1.06691 
         800     0.213332  1.73921e-05 -1.78391e-06      1.06691 
         800     0.333332  2.59176e-05 -3.29853e-06      1.06691 
         800         0.48   2.5992e-05 -4.97138e-06      1.06691 
         800     0.653331   1.8265e-05  -6.6835e-06      1.06691 
         800     0.853332  5.51302e-06 -8.57859e-06      1.06691 
         800         1.08 -1.11775e-05 -1.08453e-05      1.06691 
         800      1.33333 -2.72797e-05   -1.333e-05      1.06691 
         800      1.61333 -3.41878e-05 -1.55233e-05      1.06691 
         800         1.92 -3.20804e-05 -1.71122e-05      1.06691 
         800      2.25333 -2.77098e-05 -1.81758e-05      1.06691 
         800      2.61333 -2.35782e-05 -1.87568e-05      1.06691 
         800            3 -1.89497e-05 -1.88093e-05      1.06691 
         850            0           -0           -0     0.824311 
         850     0.013333 -7.72965e-06   3.1467e-08     0.824311 
         850     0.053333 -4.46391e-05  4.61682e-07     0.824311 
         850         0.12 -0.000115305  2.01046e-06     0.824311 
         850     0.213332 -0.000206827  5.11358e-06     0.824311 
         850     0.333332 -0.000288315  9.45344e-06     0.824311 
         850         0.48  -0.00033544  1.42059e-05     0.824311 
         850     0.653331 -0.000346745  1.87525e-05     0.824311 
         850     0.853332 -0.000333893  2.30876e-05     0.824311 
         850         1.08 -0.000304839  2.76098e-05     0.824311 
         850      1.33333 -0.000264305  3.24974e-05     0.824311 
         850      1.61333 -0.000221885  3.73451e-05     0.824311 
         850         1.92 -0.000183558   4.1607e-05     0.824312 
         850      2.25333 -0.000144305  4.50535e-05     0.824313 
         850      2.61333  -0.00010188  4.75811e-05     0.824315 
         850            3 -5.79178e-05    4.904e-05     0.824318 
         900            0 -6.94419e-21 -2.04354e-27     0.581877 
         900     0.013333 -2.44077e-05 -1.71406e-08     0.581877 
         900     0.053333 -8.93015e-05 -2.80809e-07     0.581877 
         900         0.12 -0.000154715 -1.43113e-06     0.581877 
         900     0.213332 -0.000185631 -4.36925e-06     0.581877 
         900     0.333332  -0.00017359 -9.79511e-06     0.581877 
         900         0.48 -0.000137228 -1.78179e-05     0.581877 
         900     0.653331 -0.000101905 -2.80535e-05     0.581877 
         900     0.853332 -8.29831e-05 -4.00217e-05     0.581877 
         900         1.08 -8.27935e-05 -5.33038e-05     0.581877 
         900      1.33333 -9.14783e-05 -6.72873e-05     0.581877 
         900      1.61333 -9.27123e-05 -8.10206e-05     0.581877 
         900         1.92 -8.05359e-05 -9.36808e-05     0.581877 
         900      2.25333 -6.36549e-05 -0.000104817     0.581877 
         900      2.61333 -4.63634e-05 -0.000113995     0.581878 
         900            3 -2.82955e-05 -0.000120699     0.581879 
         950            0           -0           -0      0.33949 
         950     0.013333 -2.19321e-06 -2.15649e-08      0.33949 
         950     0.053333 -6.99169e-06 -3.29319e-07      0.33949 
         950         0.12  6.35507e-06 -1.52994e-06      0.33949 
         950     0.213332  4.68755e-05 -4.24628e-06      0.33949 
         950     0.333332  0.000103716 -8.71594e-06      0.33949 
         950         0.48  0.000155492 -1.46636e-05      0.33949 
         950     0.653331  0.000187571 -2.15689e-05      0.33949 
         950     0.853332  0.000198206 -2.90297e-05      0.33949 
         950         1.08  0.000192592 -3.68732e-05      0.33949 
         950      1.33333  0.000176459 -4.50177e-05      0.33949 
         950      1.61333   0.00015456  -5.3301e-05      0.33949 
         950         1.92  0.000131081 -6.13794e-05      0.33949 
         950      2.25333  0.000107065  -6.8782e-05     0.339489 
         950      2.61333  8.22688e-05 -7.50879e-05     0.339489 
         950            3  5.63113e-05 -7.99169e-05     0.339488 
        1000            0           -0           -0    0.0971013 
        1000     0.013333  2.50107e-05 -1.55232e-08    0.0971013 
        1000     0.053333  8.95897e-05  -2.0565e-07    0.0971013 
        1000         0.12  0.000181617 -7.61251e-07    0.0971013 
        1000     0.213332  0.000272078 -1.48681e-06    0.0971014 
        1000     0.333332  0.000331331  -1.7321e-06    0.0971014 
        1000         0.48  0.000350461 -8.47861e-07    0.0971015 
        1000     0.653331  0.000343775  1.31674e-06    0.0971016 
        1000     0.853332  0.000329467   4.3476e-06    0.0971017 
        1000         1.08  0.000312183  7.52345e-06    0.0971018 
        1000      1.33333  0.000285219  1.01866e-05    0.0971017 
        1000      1.61333  0.000246915  1.21551e-05    0.0971014 
        1000         1.92  0.000206558  1.37473e-05    0.0971007 
        1000      2.25333  0.000165927  1.51563e-05    0.0970995 
        1000      2.61333  0.000123774  1.63455e-05    0.0970976 
        1000            3   8.0332e-05  1.72047e-05     0.097095 
