Variables = x, y, u, v, p

Zone, I=416, F=POINT
         -50            0            0            0     -18.4681 
         -50     0.013333  -6.6437e-05 -1.57736e-08     -18.4681 
         -50     0.053333 -6.04987e-05 -6.27729e-08     -18.4681 
         -50         0.12 -5.79162e-05 -1.52168e-07     -18.4681 
         -50     0.213332   -5.665e-05 -2.87858e-07      -18.468 
         -50     0.333332 -5.58216e-05 -4.80715e-07      -18.468 
         -50         0.48 -5.51757e-05 -6.71925e-07      -18.468 
         -50     0.653331 -5.49706e-05  -9.0018e-07     -18.4679 
         -50     0.853332 -5.54329e-05 -1.15868e-06     -18.4678 
         -50         1.08 -5.63687e-05 -1.47939e-06     -18.4677 
         -50      1.33333 -5.75147e-05 -1.84597e-06     -18.4675 
         -50      1.61333 -5.87603e-05 -2.18288e-06     -18.4673 
         -50         1.92 -6.00571e-05 -2.56732e-06      -18.467 
         -50      2.25333 -6.16268e-05 -2.97285e-06     -18.4665 
         -50      2.61333 -6.27517e-05 -3.35349e-06      -18.466 
         -50            3 -6.27902e-05 -3.69781e-06     -18.4654 
         -25            0           -0           -0     -17.7306 
         -25     0.013333 -4.92565e-05  -5.5424e-09     -17.7306 
         -25     0.053333 -4.65668e-05  -1.7411e-08     -17.7306 
         -25         0.12 -4.68568e-05 -3.75678e-08     -17.7306 
         -25     0.213332 -4.77658e-05 -8.19421e-08     -17.7306 
         -25     0.333332 -4.82105e-05 -1.75143e-07     -17.7306 
         -25         0.48 -4.82069e-05 -3.33765e-07     -17.7306 
         -25     0.653331 -4.81236e-05 -5.37914e-07     -17.7305 
         -25     0.853332 -4.78526e-05 -7.65902e-07     -17.7305 
         -25         1.08 -4.71295e-05 -1.00252e-06     -17.7305 
         -25      1.33333 -4.59963e-05 -1.21986e-06     -17.7304 
         -25      1.61333 -4.48335e-05 -1.42074e-06     -17.7303 
         -25         1.92 -4.38689e-05 -1.63616e-06     -17.7302 
         -25      2.25333 -4.34247e-05  -1.7561e-06       -17.73 
         -25      2.61333 -4.32617e-05 -1.84365e-06     -17.7298 
         -25            3 -4.30542e-05 -2.06178e-06     -17.7296 
           0            0            0            0     -17.1199 
           0     0.013333 -0.000141251  8.43572e-05     -17.1206 
           0     0.053333 -8.53847e-05  4.48932e-05     -17.1218 
           0         0.12 -6.55237e-05  3.02541e-05     -17.1231 
           0     0.213332 -5.59675e-05  2.34492e-05     -17.1246 
           0     0.333332 -5.03148e-05  1.90371e-05      -17.126 
           0         0.48 -4.62598e-05  1.56024e-05     -17.1275 
           0     0.653331 -4.36706e-05  1.28374e-05      -17.129 
           0     0.853332 -4.19999e-05  1.05331e-05     -17.1305 
           0         1.08 -4.06904e-05  8.58963e-06     -17.1319 
           0      1.33333 -3.95347e-05  6.95447e-06     -17.1333 
           0      1.61333  -3.8558e-05  5.58682e-06     -17.1346 
           0         1.92   -3.769e-05   4.4788e-06     -17.1359 
           0      2.25333 -3.69338e-05  3.62318e-06     -17.1371 
           0      2.61333 -3.60612e-05  3.03587e-06     -17.1382 
           0            3 -3.51603e-05  2.57244e-06     -17.1393 
          20            0            0            0     -16.7883 
          20     0.013333 -0.000132416 -7.83107e-05     -16.7876 
          20     0.053333 -8.49689e-05 -4.13758e-05     -16.7865 
          20         0.12 -6.96894e-05  -2.5556e-05     -16.7852 
          20     0.213332 -6.57826e-05 -1.72147e-05     -16.7839 
          20     0.333332 -6.82947e-05 -1.21086e-05     -16.7825 
          20         0.48 -7.30986e-05 -8.80354e-06     -16.7811 
          20     0.653331  -7.6335e-05 -6.73246e-06     -16.7797 
          20     0.853332 -7.43642e-05 -5.37788e-06     -16.7783 
          20         1.08 -6.74059e-05  -4.4284e-06     -16.7769 
          20      1.33333 -5.81982e-05 -3.76838e-06     -16.7755 
          20      1.61333 -4.81264e-05 -3.35037e-06     -16.7742 
          20         1.92 -3.84667e-05 -3.11686e-06     -16.7729 
          20      2.25333 -3.07981e-05 -2.99454e-06     -16.7716 
          20      2.61333 -2.54887e-05 -2.90701e-06     -16.7704 
          20            3 -2.27034e-05 -2.91992e-06     -16.7692 
          40            0 -7.70894e-20 -1.28371e-24      -16.378 
          40     0.013333  -3.1177e-05  9.51301e-09      -16.378 
          40     0.053333 -2.05914e-05  1.74141e-07      -16.378 
          40         0.12 -2.04715e-05  8.76627e-07      -16.378 
          40     0.213332 -3.40694e-05  2.53743e-06      -16.378 
          40     0.333332 -5.27454e-05  5.26175e-06      -16.378 
          40         0.48 -6.54695e-05  8.79161e-06      -16.378 
          40     0.653331 -6.93969e-05  1.27664e-05      -16.378 
          40     0.853332 -6.84221e-05  1.68827e-05      -16.378 
          40         1.08 -6.42002e-05  2.09246e-05      -16.378 
          40      1.33333 -5.76439e-05  2.45491e-05      -16.378 
          40      1.61333 -5.02622e-05  2.72738e-05      -16.378 
          40         1.92 -4.14035e-05  2.86067e-05     -16.3779 
          40      2.25333 -3.45778e-05   2.8539e-05     -16.3779 
          40      2.61333 -3.00086e-05  2.72376e-05     -16.3778 
          40            3 -2.69011e-05  2.50127e-05     -16.3778 
          60            0 -3.39736e-20 -3.26824e-25     -16.0128 
          60     0.013333 -2.20075e-05  1.74273e-08     -16.0128 
          60     0.053333  6.00441e-06  2.96578e-07     -16.0128 
          60         0.12  2.20017e-05  1.48787e-06     -16.0128 
          60     0.213332  1.48426e-05  4.31704e-06     -16.0128 
          60     0.333332 -5.16291e-06  9.00948e-06     -16.0128 
          60         0.48 -1.95576e-05   1.5251e-05     -16.0128 
          60     0.653331 -1.82358e-05   2.2579e-05     -16.0128 
          60     0.853332  -6.5091e-06   3.0279e-05     -16.0128 
          60         1.08 -7.47425e-07  3.72864e-05     -16.0128 
          60      1.33333 -6.12128e-06  4.28557e-05     -16.0128 
          60      1.61333 -1.55633e-05  4.68263e-05     -16.0128 
          60         1.92 -2.43702e-05  4.86212e-05     -16.0128 
          60      2.25333 -3.19855e-05  4.80895e-05     -16.0128 
          60      2.61333 -3.71406e-05  4.56345e-05     -16.0127 
          60            3 -4.00366e-05  4.17494e-05     -16.0127 
          80            0            0            0       -15.66 
          80     0.013333  -2.3885e-05  1.06215e-08       -15.66 
          80     0.053333 -3.24455e-07   1.7985e-07       -15.66 
          80         0.12  1.75655e-05  8.97034e-07       -15.66 
          80     0.213332  2.16317e-05  2.59654e-06       -15.66 
          80     0.333332  1.62274e-05  5.44559e-06       -15.66 
          80         0.48  1.15216e-05  9.34051e-06       -15.66 
          80     0.653331  1.43094e-05  1.40865e-05       -15.66 
          80     0.853332  2.12726e-05  1.91908e-05       -15.66 
          80         1.08  1.88723e-05  2.36815e-05     -15.6599 
          80      1.33333  5.61546e-06  2.69367e-05     -15.6599 
          80      1.61333 -7.69064e-06  2.91441e-05     -15.6599 
          80         1.92 -1.96377e-05  3.00849e-05     -15.6599 
          80      2.25333 -2.97029e-05   2.9648e-05     -15.6599 
          80      2.61333 -3.69379e-05  2.80673e-05     -15.6599 
          80            3 -4.14895e-05  2.56244e-05     -15.6599 
         100            0            0            0     -15.3145 
         100     0.013333 -3.21988e-05  2.53246e-09     -15.3145 
         100     0.053333 -2.88483e-05   4.0413e-08     -15.3145 
         100         0.12 -2.80815e-05   1.7291e-07     -15.3145 
         100     0.213332 -2.80098e-05    4.119e-07     -15.3145 
         100     0.333332  -2.6563e-05  6.93423e-07     -15.3145 
         100         0.48 -2.35003e-05  9.54709e-07     -15.3145 
         100     0.653331 -1.99751e-05  1.19598e-06     -15.3145 
         100     0.853332 -1.73648e-05  1.40891e-06     -15.3145 
         100         1.08 -1.77614e-05  1.46356e-06     -15.3145 
         100      1.33333 -2.04104e-05   1.2831e-06     -15.3145 
         100      1.61333  -2.2243e-05  1.00213e-06     -15.3145 
         100         1.92  -2.4524e-05  6.45007e-07     -15.3144 
         100      2.25333 -2.70046e-05  2.14813e-07     -15.3144 
         100      2.61333 -2.90837e-05 -2.35551e-07     -15.3144 
         100            3 -3.03011e-05 -5.74414e-07     -15.3144 
         150            0 -3.73817e-20 -4.26478e-26     -14.4677 
         150     0.013333 -3.52204e-05 -6.08401e-09     -14.4677 
         150     0.053333 -3.89681e-05 -9.65554e-08     -14.4677 
         150         0.12 -4.10725e-05  -4.6958e-07     -14.4677 
         150     0.213332 -3.73608e-05 -1.33195e-06     -14.4677 
         150     0.333332 -3.06484e-05 -2.72523e-06     -14.4677 
         150         0.48 -2.59325e-05  -4.5168e-06     -14.4677 
         150     0.653331 -2.53563e-05 -6.54073e-06     -14.4677 
         150     0.853332  -2.7391e-05 -8.62657e-06     -14.4677 
         150         1.08 -2.86856e-05 -1.05482e-05     -14.4677 
         150      1.33333 -2.81753e-05 -1.21264e-05     -14.4677 
         150      1.61333 -2.74762e-05 -1.33052e-05     -14.4677 
         150         1.92 -2.73666e-05 -1.39625e-05     -14.4677 
         150      2.25333 -2.72942e-05 -1.40254e-05     -14.4677 
         150      2.61333 -2.72344e-05 -1.35331e-05     -14.4677 
         150            3 -2.71997e-05 -1.25594e-05     -14.4677 
         200            0            0            0     -13.6316 
         200     0.013333 -3.30131e-05 -3.47101e-10     -13.6316 
         200     0.053333 -3.34526e-05 -5.28823e-09     -13.6316 
         200         0.12 -3.58032e-05 -3.04534e-08     -13.6316 
         200     0.213332 -3.69734e-05 -1.17273e-07     -13.6316 
         200     0.333332 -3.53754e-05 -3.32837e-07     -13.6316 
         200         0.48  -3.1593e-05 -7.27071e-07     -13.6316 
         200     0.653331 -2.75042e-05 -1.30318e-06     -13.6316 
         200     0.853332 -2.49045e-05 -2.05837e-06     -13.6316 
         200         1.08 -2.48032e-05 -3.00188e-06     -13.6316 
         200      1.33333 -2.59268e-05 -4.05762e-06     -13.6316 
         200      1.61333 -2.64707e-05 -5.06258e-06     -13.6316 
         200         1.92 -2.69506e-05 -5.90852e-06     -13.6316 
         200      2.25333 -2.72327e-05 -6.51852e-06     -13.6316 
         200      2.61333 -2.73849e-05 -6.86479e-06     -13.6316 
         200            3 -2.76742e-05 -6.94772e-06     -13.6316 
         250            0            0            0     -12.7992 
         250     0.013333 -3.32449e-05  1.41469e-08     -12.7992 
         250     0.053333 -3.83997e-05  2.06658e-07     -12.7992 
         250         0.12 -5.55605e-05  8.93201e-07     -12.7992 
         250     0.213332 -8.02686e-05  2.25683e-06     -12.7992 
         250     0.333332 -0.000102631  4.17556e-06     -12.7992 
         250         0.48 -0.000116002  6.36826e-06     -12.7992 
         250     0.653331 -0.000120063  8.66469e-06     -12.7992 
         250     0.853332 -0.000116114  1.10927e-05     -12.7992 
         250         1.08 -0.000105103  1.36938e-05     -12.7992 
         250      1.33333 -9.04498e-05  1.63122e-05     -12.7992 
         250      1.61333 -7.53294e-05  1.86281e-05     -12.7992 
         250         1.92 -5.86854e-05  2.03947e-05     -12.7992 
         250      2.25333 -4.25748e-05  2.14751e-05     -12.7992 
         250      2.61333 -2.83651e-05  2.17629e-05     -12.7992 
         250            3 -1.69863e-05  2.12716e-05     -12.7992 
         300            0            0            0      -11.968 
         300     0.013333 -2.80345e-05   6.0669e-09      -11.968 
         300     0.053333 -1.75739e-05  9.41409e-08      -11.968 
         300         0.12 -1.08678e-05  4.40376e-07      -11.968 
         300     0.213332 -1.00447e-05  1.20891e-06      -11.968 
         300     0.333332 -1.24937e-05  2.42685e-06      -11.968 
         300         0.48 -1.42626e-05  4.01333e-06      -11.968 
         300     0.653331 -1.32463e-05  5.90552e-06      -11.968 
         300     0.853332 -9.41329e-06  8.05651e-06      -11.968 
         300         1.08 -5.74432e-06  1.02836e-05      -11.968 
         300      1.33333 -6.21009e-06  1.22877e-05      -11.968 
         300      1.61333 -1.00842e-05  1.39051e-05      -11.968 
         300         1.92 -1.44787e-05  1.50709e-05      -11.968 
         300      2.25333 -1.89845e-05  1.57053e-05      -11.968 
         300      2.61333 -2.33765e-05  1.57635e-05      -11.968 
         300            3 -2.72574e-05  1.52551e-05      -11.968 
         350            0           -0           -0     -11.1373 
         350     0.013333  -3.6025e-05  2.05993e-08     -11.1373 
         350     0.053333 -5.03227e-05  2.99335e-07     -11.1373 
         350         0.12 -8.26551e-05  1.28092e-06     -11.1373 
         350     0.213332 -0.000124001  3.18042e-06     -11.1373 
         350     0.333332 -0.000157766   5.7312e-06     -11.1373 
         350         0.48 -0.000174346  8.44859e-06     -11.1373 
         350     0.653331 -0.000175628  1.10777e-05     -11.1373 
         350     0.853332 -0.000166241  1.37017e-05     -11.1373 
         350         1.08 -0.000148886   1.6438e-05     -11.1373 
         350      1.33333 -0.000127945  1.91255e-05     -11.1373 
         350      1.61333 -0.000106937  2.14331e-05     -11.1373 
         350         1.92  -8.3932e-05  2.31585e-05     -11.1373 
         350      2.25333 -6.03667e-05  2.41907e-05     -11.1373 
         350      2.61333 -3.78942e-05  2.44184e-05     -11.1373 
         350            3 -1.80769e-05  2.38233e-05     -11.1373 
         400            0            0            0     -10.3065 
         400     0.013333 -2.04971e-05   5.2741e-10     -10.3065 
         400     0.053333  1.05497e-05  2.42461e-08     -10.3065 
         400         0.12  4.37994e-05  2.12931e-07     -10.3065 
         400     0.213332  6.63443e-05  8.76086e-07     -10.3065 
         400     0.333332  7.37958e-05  2.31833e-06     -10.3065 
         400         0.48  7.18772e-05  4.63054e-06     -10.3065 
         400     0.653331   6.8774e-05  7.68884e-06     -10.3065 
         400     0.853332  6.78761e-05  1.12396e-05     -10.3065 
         400         1.08  6.53861e-05  1.48827e-05     -10.3065 
         400      1.33333  5.54607e-05  1.81661e-05     -10.3065 
         400      1.61333  3.91195e-05  2.08848e-05     -10.3065 
         400         1.92  2.11353e-05  2.30053e-05     -10.3065 
         400      2.25333  2.74838e-06  2.44133e-05     -10.3065 
         400      2.61333 -1.52702e-05  2.50002e-05     -10.3065 
         400            3 -3.15746e-05  2.47164e-05     -10.3065 
         450            0            0            0     -9.47589 
         450     0.013333 -3.57982e-05  7.13178e-09     -9.47589 
         450     0.053333 -4.59596e-05  1.02582e-07     -9.47589 
         450         0.12 -6.52308e-05  4.29485e-07     -9.47589 
         450     0.213332 -8.64166e-05  1.02251e-06     -9.47589 
         450     0.333332 -0.000100791  1.71161e-06     -9.47589 
         450         0.48 -0.000104568   2.2461e-06     -9.47589 
         450     0.653331 -0.000100402  2.50099e-06     -9.47589 
         450     0.853332 -9.26159e-05  2.51259e-06     -9.47589 
         450         1.08 -8.40951e-05  2.33977e-06     -9.47589 
         450      1.33333 -7.61463e-05  1.99059e-06     -9.47589 
         450      1.61333 -6.79408e-05  1.50509e-06     -9.47589 
         450         1.92 -5.81904e-05  9.63848e-07     -9.47589 
         450      2.25333 -4.75842e-05  3.97728e-07     -9.47589 
         450      2.61333 -3.69813e-05 -1.64041e-07     -9.47589 
         450            3 -2.71458e-05 -6.89913e-07     -9.47589 
         500            0           -0           -0     -8.64509 
         500     0.013333 -1.62516e-05 -1.09305e-08     -8.64509 
         500     0.053333   2.9173e-05 -1.41975e-07     -8.64509 
         500         0.12  8.74345e-05 -4.94126e-07     -8.64509 
         500     0.213332  0.000138632 -8.54186e-07     -8.64509 
         500     0.333332  0.000166864 -7.15344e-07     -8.64509 
         500         0.48  0.000171953  3.44936e-07     -8.64509 
         500     0.653331  0.000165102  2.37489e-06     -8.64509 
         500     0.853332   0.00015539  5.06967e-06     -8.64509 
         500         1.08   0.00014225  7.92799e-06     -8.64509 
         500      1.33333   0.00012123  1.05173e-05     -8.64509 
         500      1.61333   9.4028e-05  1.27451e-05     -8.64509 
         500         1.92   6.4684e-05  1.46895e-05     -8.64509 
         500      2.25333  3.40038e-05  1.62589e-05      -8.6451 
         500      2.61333  3.00145e-06  1.73461e-05      -8.6451 
         500            3 -2.62063e-05  1.78735e-05      -8.6451 
         550            0           -0           -0     -7.81444 
         550     0.013333 -4.46711e-05  2.20792e-08     -7.81444 
         550     0.053333 -8.22771e-05  3.14078e-07     -7.81444 
         550         0.12 -0.000145135  1.30031e-06     -7.81444 
         550     0.213332 -0.000214436  3.08609e-06     -7.81444 
         550     0.333332 -0.000266115     5.23e-06     -7.81444 
         550         0.48 -0.000289037  7.09097e-06     -7.81444 
         550     0.653331 -0.000289269  8.35003e-06     -7.81444 
         550     0.853332  -0.00027702   9.1541e-06     -7.81444 
         550         1.08 -0.000256279  9.86361e-06     -7.81444 
         550      1.33333 -0.000227784   1.0686e-05     -7.81444 
         550      1.61333 -0.000194381  1.15479e-05     -7.81444 
         550         1.92 -0.000158095  1.22678e-05     -7.81444 
         550      2.25333 -0.000119444    1.276e-05     -7.81443 
         550      2.61333 -7.97237e-05  1.29605e-05     -7.81443 
         550            3 -4.14575e-05  1.28277e-05     -7.81443 
         600            0 -3.16918e-20  6.38472e-28     -6.98345 
         600     0.013333 -1.95413e-05 -2.64967e-08     -6.98345 
         600     0.053333  2.19166e-05 -3.75755e-07     -6.98345 
         600         0.12  8.64788e-05 -1.55048e-06     -6.98345 
         600     0.213332  0.000157562  -3.6797e-06     -6.98345 
         600     0.333332  0.000211203 -6.29183e-06     -6.98345 
         600         0.48  0.000236638 -8.74611e-06     -6.98345 
         600     0.653331  0.000240278  -1.0802e-05     -6.98345 
         600     0.853332  0.000230937 -1.27511e-05     -6.98345 
         600         1.08  0.000209021 -1.51258e-05     -6.98345 
         600      1.33333  0.000174379 -1.81468e-05     -6.98345 
         600      1.61333  0.000135544 -2.14238e-05     -6.98345 
         600         1.92  9.82915e-05 -2.44023e-05     -6.98345 
         600      2.25333   6.0263e-05 -2.68645e-05     -6.98345 
         600      2.61333  2.11858e-05 -2.86622e-05     -6.98345 
         600            3 -1.64736e-05 -2.96627e-05     -6.98346 
         650            0           -0           -0     -6.15265 
         650     0.013333  -4.3717e-05  1.09758e-08     -6.15265 
         650     0.053333 -7.49515e-05  1.44437e-07     -6.15265 
         650         0.12 -0.000119958  5.17446e-07     -6.15265 
         650     0.213332 -0.000160129  9.58511e-07     -6.15265 
         650     0.333332 -0.000180828  1.02551e-06     -6.15265 
         650         0.48 -0.000182091  3.74585e-07     -6.15265 
         650     0.653331 -0.000174402 -9.62483e-07     -6.15265 
         650     0.853332 -0.000165479 -2.63252e-06     -6.15265 
         650         1.08 -0.000153898  -4.1495e-06     -6.15265 
         650      1.33333 -0.000135226  -5.1595e-06     -6.15265 
         650      1.61333  -0.00011216 -5.70802e-06     -6.15265 
         650         1.92  -9.0861e-05 -6.08399e-06     -6.15265 
         650      2.25333 -7.03957e-05 -6.37409e-06     -6.15265 
         650      2.61333 -4.98752e-05 -6.52824e-06     -6.15264 
         650            3 -3.02239e-05 -6.49929e-06     -6.15264 
         700            0            0            0     -5.32151 
         700     0.013333 -1.32585e-05 -1.55829e-08     -5.32151 
         700     0.053333  4.17419e-05 -2.10931e-07     -5.32151 
         700         0.12   0.00011597 -7.96203e-07     -5.32151 
         700     0.213332  0.000185441  -1.6144e-06     -5.32151 
         700     0.333332  0.000227113 -2.06961e-06     -5.32151 
         700         0.48  0.000236223 -1.56122e-06     -5.32151 
         700     0.653331  0.000225392  6.37211e-08     -5.32151 
         700     0.853332  0.000208382  2.48072e-06     -5.32151 
         700         1.08  0.000188621  5.14917e-06     -5.32151 
         700      1.33333  0.000162959  7.63136e-06     -5.32151 
         700      1.61333  0.000131774  9.80875e-06     -5.32151 
         700         1.92  9.91696e-05  1.18166e-05     -5.32152 
         700      2.25333  6.51807e-05   1.3632e-05     -5.32152 
         700      2.61333  2.98835e-05  1.51498e-05     -5.32152 
         700            3 -5.16055e-06  1.62695e-05     -5.32152 
         750            0            0            0     -4.49055 
         750     0.013333 -3.87259e-05  3.77934e-08     -4.49055 
         750     0.053333 -6.62407e-05  5.56922e-07     -4.49055 
         750         0.12 -0.000130916  2.44464e-06     -4.49055 
         750     0.213332 -0.000222396  6.29637e-06     -4.49055 
         750     0.333332 -0.000308619  1.18552e-05     -4.49055 
         750         0.48 -0.000362137    1.826e-05     -4.49055 
         750     0.653331 -0.000378835  2.48263e-05     -4.49055 
         750     0.853332 -0.000368532  3.14929e-05     -4.49055 
         750         1.08 -0.000338877  3.85778e-05     -4.49055 
         750      1.33333 -0.000296158  4.61368e-05     -4.49055 
         750      1.61333 -0.000251065  5.36572e-05     -4.49055 
         750         1.92 -0.000208884  6.04828e-05     -4.49055 
         750      2.25333 -0.000165619  6.62108e-05     -4.49055 
         750      2.61333 -0.000119949  7.05229e-05     -4.49054 
         750            3  -7.3885e-05  7.31146e-05     -4.49054 
         800            0           -0           -0     -3.65916 
         800     0.013333 -4.53974e-05 -3.48269e-08     -3.65916 
         800     0.053333 -6.76229e-05 -5.34213e-07     -3.65916 
         800         0.12 -6.95781e-05 -2.48839e-06     -3.65916 
         800     0.213332 -3.31057e-05 -6.88507e-06     -3.65916 
         800     0.333332  2.67426e-05 -1.40138e-05     -3.65916 
         800         0.48  7.94229e-05 -2.33514e-05     -3.65916 
         800     0.653331  0.000105825 -3.41676e-05     -3.65916 
         800     0.853332  0.000103781 -4.60925e-05     -3.65916 
         800         1.08  7.93811e-05 -5.90157e-05     -3.65916 
         800      1.33333  4.63694e-05 -7.24443e-05     -3.65916 
         800      1.61333  2.24039e-05 -8.53464e-05     -3.65916 
         800         1.92  9.96197e-06 -9.69336e-05     -3.65916 
         800      2.25333 -9.13998e-09 -0.000106703     -3.65916 
         800      2.61333 -1.13851e-05 -0.000114245     -3.65916 
         800            3 -2.31471e-05 -0.000119069     -3.65916 
         850            0           -0           -0     -2.82775 
         850     0.013333 -1.39191e-05  1.91925e-08     -2.82775 
         850     0.053333  2.87663e-05  3.06761e-07     -2.82775 
         850         0.12  6.20253e-05  1.50929e-06     -2.82775 
         850     0.213332  6.39453e-05  4.42191e-06     -2.82775 
         850     0.333332  3.71786e-05  9.48812e-06     -2.82775 
         850         0.48  3.10001e-06  1.65339e-05     -2.82775 
         850     0.653331 -1.87814e-05  2.50549e-05     -2.82775 
         850     0.853332 -2.12614e-05  3.46489e-05     -2.82775 
         850         1.08  -7.7397e-06  4.50177e-05     -2.82775 
         850      1.33333  8.81162e-06  5.55785e-05     -2.82775 
         850      1.61333  1.33137e-05  6.54526e-05     -2.82775 
         850         1.92  6.59208e-06  7.41092e-05     -2.82775 
         850      2.25333 -1.94378e-06  8.13908e-05     -2.82775 
         850      2.61333 -9.24305e-06  8.70294e-05     -2.82775 
         850            3 -1.65846e-05  9.06516e-05     -2.82775 
         900            0 -4.08514e-20 -2.39257e-27     -1.99622 
         900     0.013333 -4.57017e-05 -1.92524e-09     -1.99622 
         900     0.053333 -7.89296e-05 -4.37289e-08     -1.99622 
         900         0.12 -0.000119492 -2.96307e-07     -1.99622 
         900     0.213332 -0.000148403 -1.10462e-06     -1.99622 
         900     0.333332 -0.000157185 -2.82123e-06     -1.99622 
         900         0.48 -0.000151281  -5.5745e-06     -1.99622 
         900     0.653331 -0.000142157 -9.24569e-06     -1.99622 
         900     0.853332 -0.000137882 -1.36187e-05     -1.99622 
         900         1.08 -0.000139258 -1.84308e-05     -1.99622 
         900      1.33333 -0.000139229 -2.32439e-05     -1.99622 
         900      1.61333 -0.000129349 -2.75504e-05     -1.99622 
         900         1.92 -0.000111794  -3.1169e-05     -1.99622 
         900      2.25333 -9.31632e-05 -3.41717e-05     -1.99622 
         900      2.61333 -7.51039e-05  -3.6505e-05     -1.99622 
         900            3  -5.6538e-05 -3.80158e-05     -1.99622 
         950            0           -0           -0     -1.16448 
         950     0.013333 -3.59515e-05 -5.36069e-09     -1.16448 
         950     0.053333 -4.23849e-05 -8.54373e-08     -1.16448 
         950         0.12 -4.68712e-05 -4.22297e-07     -1.16448 
         950     0.213332 -4.14241e-05 -1.25996e-06     -1.16448 
         950     0.333332 -2.57697e-05 -2.78166e-06     -1.16448 
         950         0.48 -6.69129e-06 -4.99161e-06     -1.16448 
         950     0.653331  8.24728e-06 -7.71359e-06     -1.16448 
         950     0.853332  1.63183e-05 -1.07055e-05     -1.16448 
         950         1.08  1.93302e-05 -1.37812e-05     -1.16448 
         950      1.33333  1.91979e-05 -1.68839e-05     -1.16448 
         950      1.61333  1.56272e-05 -2.00525e-05     -1.16448 
         950         1.92  9.52696e-06 -2.32199e-05     -1.16448 
         950      2.25333  3.00444e-06 -2.61694e-05     -1.16448 
         950      2.61333 -3.40934e-06 -2.87046e-05     -1.16448 
         950            3 -1.02204e-05 -3.06687e-05     -1.16448 
        1000            0           -0           -0    -0.332627 
        1000     0.013333 -2.32763e-05 -1.87057e-08    -0.332627 
        1000     0.053333  8.19531e-06 -2.67302e-07    -0.332627 
        1000         0.12  6.15057e-05 -1.14169e-06    -0.332627 
        1000     0.213332  0.000128028 -2.83751e-06    -0.332627 
        1000     0.333332  0.000186809 -5.09454e-06    -0.332627 
        1000         0.48  0.000221021 -7.37614e-06    -0.332627 
        1000     0.653331  0.000229751 -9.31158e-06    -0.332627 
        1000     0.853332  0.000221982  -1.0944e-05    -0.332627 
        1000         1.08  0.000203799 -1.26073e-05    -0.332627 
        1000      1.33333   0.00017702 -1.45473e-05    -0.332627 
        1000      1.61333    0.0001465  -1.6626e-05    -0.332628 
        1000         1.92  0.000117991 -1.84952e-05    -0.332628 
        1000      2.25333   8.9066e-05 -2.00069e-05    -0.332629 
        1000      2.61333  5.78743e-05 -2.11082e-05     -0.33263 
        1000            3  2.53869e-05  -2.1744e-05    -0.332632 
