Variables = x, y, u, v, p

Zone, I=416, F=POINT
         -50            0            0            0     -9.06866 
         -50     0.013333 -8.94022e-06 -3.35434e-09     -9.06866 
         -50     0.053333  -8.4158e-06 -5.87629e-09     -9.06866 
         -50         0.12 -7.70294e-06 -9.08144e-09     -9.06865 
         -50     0.213332 -7.11719e-06  -2.2857e-08     -9.06865 
         -50     0.333332 -6.47338e-06 -1.81817e-08     -9.06864 
         -50         0.48 -5.78832e-06  3.01555e-08     -9.06862 
         -50     0.653331 -5.20577e-06  6.31633e-09     -9.06859 
         -50     0.853332 -5.05875e-06  9.38174e-08     -9.06855 
         -50         1.08 -5.52643e-06  1.30688e-07     -9.06848 
         -50      1.33333 -6.49373e-06  1.44236e-07     -9.06839 
         -50      1.61333 -7.73542e-06  1.40864e-07     -9.06827 
         -50         1.92 -9.31577e-06  2.58885e-08     -9.06811 
         -50      2.25333 -1.06231e-05  2.25759e-08      -9.0679 
         -50      2.61333 -1.07818e-05  3.42581e-07     -9.06764 
         -50            3 -1.00367e-05  7.92044e-07     -9.06733 
         -25            0           -0           -0     -8.70637 
         -25     0.013333 -6.77653e-06 -1.34059e-09     -8.70637 
         -25     0.053333 -7.08036e-06 -7.92871e-10     -8.70637 
         -25         0.12 -7.54955e-06  4.94586e-09     -8.70637 
         -25     0.213332 -8.11384e-06  1.53619e-08     -8.70637 
         -25     0.333332 -8.35881e-06  1.72823e-08     -8.70636 
         -25         0.48 -8.31919e-06 -1.05559e-08     -8.70636 
         -25     0.653331 -8.26602e-06 -4.71774e-08     -8.70635 
         -25     0.853332 -8.33291e-06 -1.30214e-07     -8.70633 
         -25         1.08 -8.38176e-06 -2.26908e-07     -8.70631 
         -25      1.33333 -8.26888e-06 -3.17889e-07     -8.70627 
         -25      1.61333 -8.05886e-06 -4.05037e-07     -8.70623 
         -25         1.92 -7.70467e-06 -4.86575e-07     -8.70617 
         -25      2.25333   -7.402e-06 -5.68812e-07     -8.70609 
         -25      2.61333 -7.67191e-06 -8.03434e-07     -8.70599 
         -25            3  -8.4152e-06 -1.21315e-06     -8.70587 
           0            0            0            0     -8.40684 
           0     0.013333 -1.52339e-05  1.03958e-05     -8.40713 
           0     0.053333 -1.31875e-05  5.99726e-06      -8.4077 
           0         0.12 -1.18109e-05  4.49793e-06     -8.40835 
           0     0.213332 -1.09858e-05  3.51896e-06     -8.40905 
           0     0.333332  -1.0344e-05  2.82369e-06     -8.40977 
           0         0.48 -1.00389e-05   2.2198e-06     -8.41049 
           0     0.653331 -1.01011e-05  1.66806e-06     -8.41122 
           0     0.853332 -1.01369e-05  1.16396e-06     -8.41193 
           0         1.08 -9.75771e-06  7.27525e-07     -8.41262 
           0      1.33333 -9.13698e-06  3.68197e-07     -8.41329 
           0      1.61333 -8.55251e-06  8.85844e-08     -8.41394 
           0         1.92 -7.96267e-06 -1.02318e-07     -8.41456 
           0      2.25333 -7.13385e-06 -1.82611e-07     -8.41514 
           0      2.61333 -6.70741e-06 -3.30505e-07     -8.41569 
           0            3 -7.19397e-06 -6.47749e-07     -8.41621 
          20            0            0            0     -8.24394 
          20     0.013333 -2.06517e-05 -1.51396e-05     -8.24366 
          20     0.053333 -1.74999e-05 -1.21975e-05     -8.24313 
          20         0.12 -1.24157e-05 -1.17957e-05     -8.24252 
          20     0.213332 -7.62668e-06 -1.21111e-05     -8.24186 
          20     0.333332 -1.26437e-06 -1.22325e-05     -8.24118 
          20         0.48  6.30313e-06  -1.1945e-05     -8.24049 
          20     0.653331  1.17756e-05 -1.14429e-05      -8.2398 
          20     0.853332  1.20732e-05 -1.09677e-05     -8.23912 
          20         1.08  8.27395e-06 -1.05369e-05     -8.23844 
          20      1.33333  3.29625e-06 -1.00155e-05     -8.23777 
          20      1.61333  -1.9321e-06 -9.31479e-06     -8.23712 
          20         1.92 -6.76157e-06 -8.40923e-06     -8.23649 
          20      2.25333 -1.01717e-05 -7.34634e-06     -8.23587 
          20      2.61333 -1.19469e-05 -6.20156e-06     -8.23526 
          20            3 -1.20655e-05 -4.90494e-06     -8.23467 
          40            0 -4.40899e-21 -4.74356e-25     -8.04292 
          40     0.013333   4.0303e-06 -6.33151e-09     -8.04292 
          40     0.053333  2.64062e-05 -5.51774e-08     -8.04292 
          40         0.12   4.9485e-05 -3.45972e-08     -8.04292 
          40     0.213332  6.01046e-05  4.84948e-07     -8.04292 
          40     0.333332  5.78881e-05  1.90704e-06     -8.04292 
          40         0.48  5.23045e-05  4.18279e-06     -8.04292 
          40     0.653331  4.84517e-05  6.85012e-06     -8.04291 
          40     0.853332  4.36676e-05  9.42347e-06     -8.04291 
          40         1.08   3.5102e-05   1.1726e-05      -8.0429 
          40      1.33333  2.17615e-05   1.3605e-05      -8.0429 
          40      1.61333  7.08269e-06  1.49389e-05     -8.04288 
          40         1.92 -6.67377e-06   1.5521e-05     -8.04287 
          40      2.25333 -1.68858e-05  1.52956e-05     -8.04285 
          40      2.61333 -2.28184e-05  1.44663e-05     -8.04283 
          40            3 -2.52916e-05  1.32665e-05      -8.0428 
          60            0 -9.31648e-22 -1.21838e-25     -7.86397 
          60     0.013333  6.82006e-06   6.8462e-09     -7.86397 
          60     0.053333  3.29743e-05  1.37686e-07     -7.86397 
          60         0.12  5.45667e-05  8.07041e-07     -7.86397 
          60     0.213332  5.79489e-05  2.61762e-06     -7.86397 
          60     0.333332  4.79294e-05  5.87408e-06     -7.86397 
          60         0.48  3.92747e-05  1.03899e-05     -7.86397 
          60     0.653331  4.06074e-05  1.56952e-05     -7.86397 
          60     0.853332  4.55614e-05  2.09659e-05     -7.86397 
          60         1.08  4.07878e-05  2.52633e-05     -7.86396 
          60      1.33333  2.75993e-05  2.82987e-05     -7.86396 
          60      1.61333  1.34475e-05  3.03161e-05     -7.86395 
          60         1.92 -4.34067e-07  3.09678e-05     -7.86395 
          60      2.25333 -1.13774e-05  3.02134e-05     -7.86394 
          60      2.61333 -1.83235e-05   2.8314e-05     -7.86393 
          60            3 -2.22528e-05  2.55756e-05     -7.86391 
          80            0            0            0      -7.6911 
          80     0.013333  1.47901e-06  7.75864e-09      -7.6911 
          80     0.053333  1.49265e-05  1.25823e-07      -7.6911 
          80         0.12  2.62805e-05  6.06279e-07      -7.6911 
          80     0.213332  3.00588e-05  1.69721e-06      -7.6911 
          80     0.333332  2.87794e-05  3.46633e-06      -7.6911 
          80         0.48   2.8129e-05  5.86633e-06      -7.6911 
          80     0.653331  3.22597e-05  8.84305e-06      -7.6911 
          80     0.853332  3.84866e-05  1.20742e-05      -7.6911 
          80         1.08  3.60463e-05  1.47941e-05      -7.6911 
          80      1.33333  2.46652e-05  1.65662e-05      -7.6911 
          80      1.61333   1.3821e-05  1.76651e-05     -7.69109 
          80         1.92  3.94246e-06  1.79976e-05     -7.69109 
          80      2.25333 -4.18192e-06   1.7534e-05     -7.69108 
          80      2.61333 -9.82193e-06  1.64223e-05     -7.69107 
          80            3 -1.34535e-05  1.47735e-05     -7.69107 
         100            0            0            0     -7.52189 
         100     0.013333 -9.54743e-06 -2.18301e-09     -7.52189 
         100     0.053333 -2.08979e-05 -5.06963e-08     -7.52189 
         100         0.12 -2.89374e-05 -3.44264e-07     -7.52189 
         100     0.213332 -2.63692e-05 -1.23328e-06     -7.52189 
         100     0.333332 -1.55925e-05 -2.93499e-06     -7.52189 
         100         0.48 -5.17075e-06 -5.30536e-06     -7.52189 
         100     0.653331  5.89556e-07 -7.95375e-06     -7.52189 
         100     0.853332  3.94198e-06 -1.04767e-05     -7.52189 
         100         1.08  6.10469e-06 -1.27327e-05     -7.52188 
         100      1.33333  6.00073e-06 -1.47399e-05     -7.52188 
         100      1.61333  5.54158e-06 -1.63424e-05     -7.52188 
         100         1.92  3.99664e-06 -1.72915e-05     -7.52188 
         100      2.25333  1.98666e-06 -1.75067e-05     -7.52187 
         100      2.61333  3.12599e-08  -1.7044e-05     -7.52187 
         100            3 -1.45039e-06 -1.59727e-05     -7.52186 
         150            0 -2.68818e-21 -1.65059e-26     -7.10719 
         150     0.013333  1.65417e-06 -3.72752e-09     -7.10719 
         150     0.053333  1.70921e-05 -3.59365e-08     -7.10719 
         150         0.12  3.41135e-05 -4.39053e-08     -7.10719 
         150     0.213332  4.40329e-05   2.0068e-07     -7.10719 
         150     0.333332  4.52659e-05  9.21529e-07     -7.10719 
         150         0.48  4.28785e-05  2.11671e-06     -7.10719 
         150     0.653331  4.09753e-05  3.56788e-06     -7.10719 
         150     0.853332  3.77962e-05  4.91068e-06     -7.10719 
         150         1.08  2.95064e-05  5.80761e-06     -7.10719 
         150      1.33333  1.87582e-05  6.23934e-06     -7.10719 
         150      1.61333  9.42723e-06  6.43751e-06     -7.10719 
         150         1.92  4.59604e-08  6.36918e-06     -7.10719 
         150      2.25333 -7.91915e-06  6.00836e-06     -7.10719 
         150      2.61333 -1.38943e-05  5.43494e-06     -7.10719 
         150            3 -1.80474e-05  4.70506e-06     -7.10719 
         200            0            0            0     -6.69779 
         200     0.013333  2.83645e-06  6.22012e-10     -6.69779 
         200     0.053333  2.05201e-05  2.34212e-08     -6.69779 
         200         0.12  3.87312e-05  1.97061e-07     -6.69779 
         200     0.213332   4.7465e-05  8.04152e-07     -6.69779 
         200     0.333332  4.48525e-05  2.11809e-06     -6.69779 
         200         0.48  3.69284e-05  4.18191e-06     -6.69779 
         200     0.653331  3.00356e-05  6.80753e-06     -6.69779 
         200     0.853332  2.57407e-05  9.72998e-06     -6.69779 
         200         1.08  2.21536e-05   1.2711e-05     -6.69779 
         200      1.33333  1.71936e-05  1.55139e-05     -6.69779 
         200      1.61333  1.07153e-05  1.79341e-05     -6.69779 
         200         1.92  3.95708e-06  1.97403e-05     -6.69779 
         200      2.25333 -2.38715e-06  2.07585e-05     -6.69779 
         200      2.61333 -7.68348e-06  2.09608e-05     -6.69779 
         200            3 -1.15909e-05  2.03747e-05     -6.69779 
         250            0            0            0     -6.29014 
         250     0.013333  1.35331e-05  1.43607e-08     -6.29014 
         250     0.053333  5.43072e-05  2.48541e-07     -6.29014 
         250         0.12  8.85844e-05  1.32269e-06     -6.29014 
         250     0.213332  9.42388e-05  4.09112e-06     -6.29014 
         250     0.333332  7.51155e-05    9.041e-06     -6.29014 
         250         0.48  5.17796e-05  1.59743e-05     -6.29014 
         250     0.653331  3.98709e-05  2.43245e-05     -6.29014 
         250     0.853332  4.00033e-05  3.34096e-05     -6.29014 
         250         1.08  4.04079e-05  4.23387e-05     -6.29014 
         250      1.33333  3.22867e-05  5.02755e-05     -6.29014 
         250      1.61333  2.01978e-05  5.68713e-05     -6.29014 
         250         1.92  8.82217e-06  6.16952e-05     -6.29014 
         250      2.25333 -1.72608e-06   6.4279e-05     -6.29015 
         250      2.61333 -1.06989e-05  6.44876e-05     -6.29015 
         250            3 -1.73106e-05  6.24206e-05     -6.29015 
         300            0            0            0     -5.88301 
         300     0.013333  2.23589e-06 -1.87833e-09     -5.88301 
         300     0.053333  1.94029e-05 -1.69359e-08     -5.88301 
         300         0.12  4.00451e-05 -6.68013e-09     -5.88301 
         300     0.213332  5.58611e-05  1.83237e-07     -5.88301 
         300     0.333332  6.34129e-05   7.3595e-07     -5.88301 
         300         0.48  6.51195e-05  1.72436e-06     -5.88301 
         300     0.653331  6.50304e-05  3.08569e-06     -5.88301 
         300     0.853332  6.44176e-05  4.65688e-06     -5.88301 
         300         1.08  6.07585e-05   6.1859e-06     -5.88301 
         300      1.33333  5.14868e-05  7.41169e-06     -5.88301 
         300      1.61333   3.8619e-05  8.27196e-06     -5.88301 
         300         1.92  2.48662e-05  8.80038e-06     -5.88301 
         300      2.25333  1.14082e-05  8.96495e-06     -5.88301 
         300      2.61333 -1.02222e-06  8.77361e-06     -5.88301 
         300            3 -1.16163e-05  8.24746e-06     -5.88301 
         350            0           -0           -0     -5.47595 
         350     0.013333 -2.38344e-06  4.17545e-10     -5.47595 
         350     0.053333  2.39279e-06  1.03111e-08     -5.47595 
         350         0.12   7.2621e-06  7.14561e-08     -5.47595 
         350     0.213332  9.57363e-06  2.60516e-07     -5.47595 
         350     0.333332  9.18074e-06  6.35196e-07     -5.47595 
         350         0.48  7.88083e-06  1.18898e-06     -5.47595 
         350     0.653331   7.3722e-06  1.86907e-06     -5.47595 
         350     0.853332  7.69621e-06  2.59545e-06     -5.47595 
         350         1.08  7.23836e-06  3.25729e-06     -5.47595 
         350      1.33333  5.13859e-06  3.78231e-06     -5.47595 
         350      1.61333  2.63817e-06  4.19849e-06     -5.47595 
         350         1.92  3.13475e-07  4.51029e-06     -5.47595 
         350      2.25333 -1.92024e-06  4.69426e-06     -5.47595 
         350      2.61333 -3.93406e-06  4.72964e-06     -5.47595 
         350            3 -5.46433e-06   4.6123e-06     -5.47595 
         400            0            0            0     -5.06878 
         400     0.013333 -4.05008e-06  6.64409e-09     -5.06878 
         400     0.053333 -5.25237e-06  9.96529e-08     -5.06878 
         400         0.12 -1.13373e-05  4.46758e-07     -5.06878 
         400     0.213332 -2.21001e-05  1.17226e-06     -5.06878 
         400     0.333332 -3.27906e-05  2.24106e-06     -5.06878 
         400         0.48 -3.90995e-05  3.50481e-06     -5.06878 
         400     0.653331 -4.01562e-05  4.85358e-06     -5.06878 
         400     0.853332 -3.70657e-05  6.26815e-06     -5.06878 
         400         1.08 -3.16797e-05  7.71477e-06     -5.06878 
         400      1.33333 -2.65845e-05  9.06249e-06     -5.06878 
         400      1.61333 -2.24789e-05  1.01918e-05     -5.06878 
         400         1.92 -1.78114e-05  1.10658e-05     -5.06878 
         400      2.25333 -1.28127e-05  1.16193e-05     -5.06878 
         400      2.61333 -7.87462e-06  1.18076e-05     -5.06878 
         400            3 -3.21084e-06  1.16183e-05     -5.06878 
         450            0            0            0     -4.66142 
         450     0.013333 -8.45932e-07 -4.18401e-10     -4.66142 
         450     0.053333  8.17978e-06 -8.12765e-10     -4.66142 
         450         0.12   1.8735e-05  3.10885e-08     -4.66142 
         450     0.213332  2.62176e-05  1.86032e-07     -4.66142 
         450     0.333332  2.89068e-05  5.63174e-07     -4.66142 
         450         0.48  2.84125e-05  1.19629e-06     -4.66142 
         450     0.653331  2.73832e-05  2.04617e-06     -4.66142 
         450     0.853332  2.69982e-05  3.03095e-06     -4.66142 
         450         1.08  2.61014e-05  4.02412e-06     -4.66142 
         450      1.33333  2.27509e-05  4.88547e-06     -4.66142 
         450      1.61333  1.73107e-05  5.56094e-06     -4.66142 
         450         1.92  1.15663e-05  6.08089e-06     -4.66142 
         450      2.25333  5.81041e-06  6.42171e-06     -4.66142 
         450      2.61333  1.47981e-07  6.55991e-06     -4.66142 
         450            3 -5.03255e-06  6.48029e-06     -4.66142 
         500            0           -0           -0      -4.2539 
         500     0.013333 -4.69902e-06 -7.51999e-10      -4.2539 
         500     0.053333 -5.41875e-06 -1.14127e-08      -4.2539 
         500         0.12 -5.81835e-06 -5.22087e-08      -4.2539 
         500     0.213332 -5.65255e-06 -1.41597e-07      -4.2539 
         500     0.333332 -5.05399e-06 -2.83823e-07      -4.2539 
         500         0.48 -4.48228e-06 -4.70483e-07      -4.2539 
         500     0.653331 -4.21771e-06 -6.92644e-07      -4.2539 
         500     0.853332 -4.33811e-06 -9.48216e-07      -4.2539 
         500         1.08 -4.81251e-06  -1.2345e-06      -4.2539 
         500      1.33333 -5.34942e-06 -1.53417e-06      -4.2539 
         500      1.61333 -5.54938e-06 -1.81141e-06      -4.2539 
         500         1.92 -5.48956e-06 -2.05187e-06      -4.2539 
         500      2.25333 -5.36476e-06 -2.22376e-06      -4.2539 
         500      2.61333 -5.17832e-06  -2.3282e-06      -4.2539 
         500            3 -4.86004e-06 -2.36667e-06      -4.2539 
         550            0           -0           -0     -3.84619 
         550     0.013333 -4.32237e-06  9.66019e-11     -3.84619 
         550     0.053333 -4.28198e-06  1.37357e-09     -3.84619 
         550         0.12 -4.28225e-06  5.82575e-09     -3.84619 
         550     0.213332 -4.42461e-06  1.45372e-08     -3.84619 
         550     0.333332 -4.54917e-06  2.68304e-08     -3.84619 
         550         0.48  -4.6224e-06  4.12634e-08     -3.84619 
         550     0.653331  -4.6556e-06  5.71692e-08     -3.84619 
         550     0.853332 -4.65426e-06  7.47772e-08     -3.84619 
         550         1.08 -4.61094e-06   9.5967e-08     -3.84619 
         550      1.33333 -4.53209e-06  1.20391e-07     -3.84619 
         550      1.61333 -4.45916e-06  1.45308e-07     -3.84619 
         550         1.92 -4.43936e-06  1.67054e-07     -3.84619 
         550      2.25333 -4.44584e-06  1.85745e-07     -3.84619 
         550      2.61333 -4.45886e-06  2.01253e-07     -3.84619 
         550            3 -4.48648e-06   2.1025e-07     -3.84619 
         600            0 -4.81622e-21  8.62609e-28     -3.43829 
         600     0.013333 -4.31938e-06 -7.56031e-12     -3.43829 
         600     0.053333 -4.23487e-06 -1.29329e-10     -3.43829 
         600         0.12 -4.12259e-06 -5.57078e-10     -3.43829 
         600     0.213332 -4.10557e-06 -1.35914e-09     -3.43829 
         600     0.333332 -4.08581e-06 -2.43104e-09     -3.43829 
         600         0.48 -4.06993e-06 -3.62445e-09     -3.43829 
         600     0.653331 -4.06658e-06 -5.00535e-09     -3.43829 
         600     0.853332 -4.06996e-06 -6.36178e-09     -3.43829 
         600         1.08 -4.07767e-06 -8.33215e-09     -3.43829 
         600      1.33333 -4.09321e-06 -1.03134e-08     -3.43829 
         600      1.61333 -4.12275e-06  -1.4411e-08     -3.43829 
         600         1.92 -4.17145e-06 -1.82305e-08     -3.43829 
         600      2.25333 -4.26169e-06 -1.90091e-08     -3.43829 
         600      2.61333 -4.39703e-06 -1.99337e-08     -3.43829 
         600            3 -4.53105e-06 -2.19988e-08     -3.43829 
         650            0           -0           -0     -3.03017 
         650     0.013333 -4.32606e-06  3.84084e-12     -3.03017 
         650     0.053333 -4.25003e-06  2.89849e-11     -3.03017 
         650         0.12 -4.15424e-06  8.33695e-11     -3.03017 
         650     0.213332 -4.15647e-06  1.48872e-10     -3.03017 
         650     0.333332 -4.15208e-06  2.26061e-10     -3.03017 
         650         0.48 -4.14484e-06  2.89114e-10     -3.03017 
         650     0.653331 -4.14517e-06  3.22676e-10     -3.03017 
         650     0.853332 -4.14755e-06  4.52846e-10     -3.03017 
         650         1.08 -4.14797e-06  9.25938e-10     -3.03017 
         650      1.33333  -4.1428e-06  -1.7315e-09     -3.03017 
         650      1.61333   -4.145e-06  1.21123e-09     -3.03017 
         650         1.92 -4.15321e-06 -8.85197e-11     -3.03017 
         650      2.25333 -4.19395e-06  3.66145e-09     -3.03017 
         650      2.61333 -4.27038e-06  3.78457e-09     -3.03017 
         650            3 -4.36928e-06 -3.11336e-09     -3.03017 
         700            0            0            0     -2.62178 
         700     0.013333 -4.33084e-06  2.03389e-12     -2.62178 
         700     0.053333 -4.25342e-06  9.43319e-12     -2.62178 
         700         0.12 -4.15572e-06  3.16847e-11     -2.62178 
         700     0.213332 -4.15646e-06  6.45903e-11     -2.62178 
         700     0.333332 -4.15109e-06  1.13267e-10     -2.62178 
         700         0.48 -4.14359e-06  1.84172e-10     -2.62178 
         700     0.653331 -4.14432e-06    2.178e-10     -2.62178 
         700     0.853332 -4.14839e-06  5.76148e-10     -2.62178 
         700         1.08 -4.14946e-06  7.75013e-10     -2.62178 
         700      1.33333 -4.14585e-06  9.90835e-10     -2.62178 
         700      1.61333 -4.13853e-06  1.60962e-09     -2.62178 
         700         1.92 -4.11644e-06  4.47774e-10     -2.62178 
         700      2.25333 -4.13688e-06  2.14161e-09     -2.62178 
         700      2.61333 -4.18465e-06 -7.04643e-10     -2.62178 
         700            3 -4.21282e-06 -8.93716e-09     -2.62178 
         750            0            0            0     -2.21309 
         750     0.013333 -4.33609e-06  2.52742e-12     -2.21309 
         750     0.053333 -4.25727e-06  8.75103e-12     -2.21309 
         750         0.12 -4.15943e-06  2.70649e-11     -2.21309 
         750     0.213332 -4.16104e-06  6.49765e-11     -2.21309 
         750     0.333332 -4.15656e-06   1.1489e-10     -2.21309 
         750         0.48 -4.14952e-06  1.67919e-10     -2.21309 
         750     0.653331 -4.15092e-06  3.72863e-10     -2.21309 
         750     0.853332 -4.15569e-06  1.39858e-10     -2.21309 
         750         1.08  -4.1602e-06  4.19328e-10     -2.21309 
         750      1.33333 -4.16023e-06  9.07871e-10     -2.21309 
         750      1.61333  -4.1543e-06  1.26803e-09     -2.21309 
         750         1.92 -4.13663e-06  3.63925e-10     -2.21309 
         750      2.25333 -4.10553e-06  2.35349e-09     -2.21309 
         750      2.61333 -4.07849e-06 -2.03023e-10     -2.21309 
         750            3 -4.11672e-06 -1.02813e-08     -2.21309 
         800            0           -0           -0     -1.80404 
         800     0.013333 -4.34243e-06  1.23232e-12     -1.80404 
         800     0.053333 -4.26179e-06 -7.54927e-12     -1.80404 
         800         0.12 -4.16237e-06 -1.88968e-11     -1.80404 
         800     0.213332 -4.16234e-06 -2.08289e-11     -1.80404 
         800     0.333332 -4.15632e-06 -2.15272e-11     -1.80404 
         800         0.48 -4.14822e-06  -2.9267e-11     -1.80404 
         800     0.653331 -4.14878e-06 -4.02993e-10     -1.80404 
         800     0.853332 -4.15332e-06  9.10809e-12     -1.80404 
         800         1.08 -4.15872e-06 -8.96148e-10     -1.80404 
         800      1.33333 -4.16358e-06  9.99127e-10     -1.80404 
         800      1.61333 -4.17173e-06 -4.47347e-09     -1.80404 
         800         1.92 -4.16359e-06  6.52246e-09     -1.80404 
         800      2.25333 -4.13619e-06  2.89476e-09     -1.80404 
         800      2.61333  -4.0878e-06 -4.45511e-09     -1.80404 
         800            3 -4.00851e-06  4.52226e-09     -1.80404 
         850            0           -0           -0     -1.39457 
         850     0.013333 -4.34918e-06  1.39454e-12     -1.39457 
         850     0.053333  -4.2679e-06 -1.93525e-12     -1.39457 
         850         0.12 -4.16837e-06  6.29045e-12     -1.39457 
         850     0.213332 -4.16835e-06  4.00951e-11     -1.39457 
         850     0.333332 -4.16268e-06  8.32496e-11     -1.39457 
         850         0.48 -4.15474e-06  1.45401e-10     -1.39457 
         850     0.653331 -4.15509e-06   1.5447e-10     -1.39457 
         850     0.853332 -4.15928e-06  2.83615e-10     -1.39457 
         850         1.08 -4.16344e-06  1.49769e-10     -1.39457 
         850      1.33333 -4.16943e-06  4.90582e-10     -1.39457 
         850      1.61333 -4.17368e-06 -1.34163e-11     -1.39457 
         850         1.92 -4.17767e-06  1.43745e-09     -1.39457 
         850      2.25333 -4.18128e-06 -3.89728e-09     -1.39457 
         850      2.61333 -4.16473e-06 -4.83731e-09     -1.39457 
         850            3 -4.10095e-06  4.83363e-09     -1.39457 
         900            0  -4.8568e-21  1.05731e-27    -0.984728 
         900     0.013333 -4.35584e-06  2.51662e-12    -0.984728 
         900     0.053333 -4.27577e-06  3.45378e-12    -0.984728 
         900         0.12 -4.17693e-06 -2.65789e-11    -0.984728 
         900     0.213332  -4.1767e-06 -9.37777e-11    -0.984728 
         900     0.333332   -4.171e-06 -1.62257e-10    -0.984728 
         900         0.48 -4.16338e-06  -2.3948e-10    -0.984728 
         900     0.653331 -4.16404e-06  -2.5187e-10    -0.984728 
         900     0.853332 -4.16829e-06  -5.4549e-10    -0.984728 
         900         1.08   -4.172e-06  -5.8262e-10    -0.984728 
         900      1.33333 -4.17388e-06 -2.86685e-09    -0.984728 
         900      1.61333 -4.17598e-06 -2.56206e-09    -0.984728 
         900         1.92 -4.19127e-06  2.56284e-10    -0.984728 
         900      2.25333 -4.21362e-06 -1.21525e-09    -0.984728 
         900      2.61333 -4.23579e-06 -4.05962e-09    -0.984728 
         900            3 -4.24112e-06  -3.3914e-09    -0.984728 
         950            0           -0           -0    -0.574576 
         950     0.013333 -4.36054e-06   1.8454e-12    -0.574576 
         950     0.053333    -4.28e-06    4.609e-12    -0.574576 
         950         0.12 -4.18153e-06 -1.73944e-12    -0.574576 
         950     0.213332 -4.18221e-06 -2.59893e-11    -0.574576 
         950     0.333332 -4.17719e-06 -7.00683e-11    -0.574576 
         950         0.48 -4.16976e-06 -1.20967e-10    -0.574576 
         950     0.653331 -4.17057e-06 -1.84564e-10    -0.574576 
         950     0.853332 -4.17414e-06 -1.79368e-10    -0.574576 
         950         1.08 -4.17826e-06 -2.04425e-11    -0.574576 
         950      1.33333 -4.18103e-06 -2.55006e-10    -0.574576 
         950      1.61333 -4.18325e-06   1.3669e-09    -0.574576 
         950         1.92  -4.1854e-06 -3.87274e-09    -0.574576 
         950      2.25333 -4.18845e-06 -6.44644e-09    -0.574576 
         950      2.61333 -4.20271e-06 -8.16992e-09    -0.574576 
         950            3 -4.24246e-06 -1.43659e-08    -0.574576 
        1000            0           -0           -0    -0.164189 
        1000     0.013333 -4.36365e-06  3.88494e-12    -0.164189 
        1000     0.053333  -4.2834e-06  3.55997e-11    -0.164189 
        1000         0.12 -4.18562e-06  8.97128e-11    -0.164189 
        1000     0.213332  -4.1862e-06  1.31507e-10    -0.164189 
        1000     0.333332 -4.18058e-06  1.77692e-10    -0.164189 
        1000         0.48  -4.1728e-06  2.51828e-10    -0.164189 
        1000     0.653331 -4.17345e-06  5.57644e-10    -0.164189 
        1000     0.853332  -4.1773e-06  4.28653e-10    -0.164189 
        1000         1.08 -4.18105e-06  9.97772e-10    -0.164189 
        1000      1.33333 -4.18265e-06    1.522e-09    -0.164189 
        1000      1.61333 -4.18275e-06  1.77269e-09    -0.164189 
        1000         1.92 -4.18346e-06  4.78332e-10    -0.164189 
        1000      2.25333 -4.18365e-06  3.04518e-09    -0.164189 
        1000      2.61333 -4.19289e-06  2.58262e-09     -0.16419 
        1000            3 -4.22009e-06 -2.69257e-09     -0.16419 
