Variables = x, y, u, v, p

Zone, I=416, F=POINT
         -50            0            0            0     -10.8491 
         -50     0.013333  -5.0214e-05 -1.26609e-08     -10.8491 
         -50     0.053333 -4.61535e-05 -6.42504e-08     -10.8491 
         -50         0.12 -4.45497e-05 -1.88578e-07     -10.8491 
         -50     0.213332 -4.33634e-05 -4.02857e-07     -10.8491 
         -50     0.333332 -4.24214e-05 -6.96037e-07     -10.8491 
         -50         0.48 -4.19785e-05 -1.10747e-06     -10.8491 
         -50     0.653331  -4.2273e-05 -1.49365e-06      -10.849 
         -50     0.853332 -4.29322e-05 -1.93955e-06      -10.849 
         -50         1.08 -4.34902e-05 -2.36225e-06     -10.8489 
         -50      1.33333 -4.37391e-05 -2.76286e-06     -10.8488 
         -50      1.61333 -4.35509e-05 -3.05984e-06     -10.8486 
         -50         1.92  -4.3446e-05 -3.26789e-06     -10.8485 
         -50      2.25333 -4.36624e-05 -3.56357e-06     -10.8482 
         -50      2.61333 -4.45977e-05  -4.2664e-06     -10.8479 
         -50            3 -4.58505e-05 -5.25845e-06     -10.8475 
         -25            0           -0           -0     -10.4155 
         -25     0.013333 -3.63672e-05 -6.22357e-09     -10.4155 
         -25     0.053333 -3.20721e-05 -4.63786e-08     -10.4155 
         -25         0.12  -2.8722e-05 -1.65138e-07     -10.4155 
         -25     0.213332 -2.54368e-05 -3.79185e-07     -10.4155 
         -25     0.333332  -2.2852e-05 -6.54758e-07     -10.4155 
         -25         0.48 -2.14118e-05 -9.50204e-07     -10.4155 
         -25     0.653331 -2.12442e-05 -1.25755e-06     -10.4154 
         -25     0.853332  -2.2276e-05 -1.57028e-06     -10.4154 
         -25         1.08 -2.41429e-05 -1.85736e-06     -10.4154 
         -25      1.33333 -2.64755e-05 -2.11333e-06     -10.4154 
         -25      1.61333  -2.9197e-05 -2.29605e-06     -10.4153 
         -25         1.92 -3.17141e-05 -2.36276e-06     -10.4152 
         -25      2.25333 -3.31025e-05 -2.38386e-06     -10.4151 
         -25      2.61333 -3.38008e-05  -2.3637e-06      -10.415 
         -25            3 -3.44278e-05 -2.27036e-06     -10.4149 
           0            0            0            0     -10.0564 
           0     0.013333 -0.000106133  6.35472e-05     -10.0568 
           0     0.053333 -6.02559e-05  3.32115e-05     -10.0575 
           0         0.12 -4.39841e-05   2.2027e-05     -10.0583 
           0     0.213332 -3.72203e-05    1.708e-05     -10.0592 
           0     0.333332 -3.41888e-05  1.41377e-05       -10.06 
           0         0.48 -3.20577e-05  1.20783e-05     -10.0609 
           0     0.653331 -3.03722e-05  1.06298e-05     -10.0618 
           0     0.853332   -2.918e-05  9.56785e-06     -10.0626 
           0         1.08 -2.87201e-05   8.7351e-06     -10.0635 
           0      1.33333 -2.87699e-05  8.03271e-06     -10.0643 
           0      1.61333 -2.89568e-05   7.4128e-06     -10.0651 
           0         1.92 -2.88209e-05  6.83135e-06     -10.0658 
           0      2.25333 -2.85082e-05  6.23947e-06     -10.0665 
           0      2.61333 -2.88434e-05  5.50504e-06     -10.0672 
           0            3 -2.93888e-05  4.74543e-06     -10.0678 
          20            0            0            0     -9.86152 
          20     0.013333 -6.06213e-05 -3.16644e-05     -9.86108 
          20     0.053333 -6.17215e-06  3.22768e-06     -9.86043 
          20         0.12 -2.22596e-06  3.20406e-06     -9.85969 
          20     0.213332 -6.64451e-06  -1.5324e-06      -9.8589 
          20     0.333332  -8.9871e-06 -4.51684e-06     -9.85808 
          20         0.48 -7.65032e-06 -5.52859e-06     -9.85725 
          20     0.653331 -4.91519e-06 -5.13598e-06     -9.85642 
          20     0.853332 -4.50618e-06 -3.96077e-06     -9.85559 
          20         1.08  -7.9083e-06 -2.55596e-06     -9.85478 
          20      1.33333 -1.36205e-05 -1.22569e-06     -9.85398 
          20      1.61333 -2.04503e-05 -1.21518e-07      -9.8532 
          20         1.92 -2.72017e-05  6.35558e-07     -9.85243 
          20      2.25333   -3.268e-05  1.00432e-06     -9.85169 
          20      2.61333 -3.60497e-05  1.11996e-06     -9.85096 
          20            3  -3.6747e-05  1.02326e-06     -9.85025 
          40            0 -6.00809e-20  -8.4525e-25     -9.62026 
          40     0.013333 -2.59026e-05  5.99586e-09     -9.62026 
          40     0.053333 -2.32141e-05  1.03239e-07     -9.62026 
          40         0.12 -2.60023e-05  4.70091e-07     -9.62026 
          40     0.213332 -3.18157e-05  1.20336e-06     -9.62026 
          40     0.333332 -3.54107e-05  2.19759e-06     -9.62026 
          40         0.48 -3.44087e-05  3.28485e-06     -9.62026 
          40     0.653331 -3.05631e-05  4.38848e-06     -9.62026 
          40     0.853332  -2.7017e-05  5.42669e-06     -9.62025 
          40         1.08 -2.50204e-05  6.26198e-06     -9.62024 
          40      1.33333 -2.41509e-05  6.75552e-06     -9.62023 
          40      1.61333 -2.36479e-05  6.83346e-06     -9.62022 
          40         1.92 -2.29982e-05  6.45696e-06      -9.6202 
          40      2.25333 -2.26196e-05  5.73619e-06     -9.62018 
          40      2.61333 -2.22818e-05  4.81037e-06     -9.62015 
          40            3 -2.19674e-05  3.71484e-06     -9.62011 
          60            0 -2.87858e-20 -2.13715e-25     -9.40554 
          60     0.013333 -2.51805e-05  1.57001e-08     -9.40554 
          60     0.053333 -2.61419e-05  2.38509e-07     -9.40554 
          60         0.12  -3.8913e-05  1.05054e-06     -9.40554 
          60     0.213332 -6.03352e-05  2.68275e-06     -9.40554 
          60     0.333332 -8.03452e-05  4.99108e-06     -9.40553 
          60         0.48 -9.16843e-05  7.67265e-06     -9.40553 
          60     0.653331 -9.23563e-05  1.06149e-05     -9.40553 
          60     0.853332 -8.28826e-05  1.38453e-05     -9.40553 
          60         1.08 -6.87122e-05  1.71221e-05     -9.40553 
          60      1.33333 -5.62367e-05  1.99867e-05     -9.40552 
          60      1.61333 -4.48411e-05  2.20926e-05     -9.40551 
          60         1.92 -3.14425e-05  2.31377e-05      -9.4055 
          60      2.25333 -2.01797e-05  2.30867e-05     -9.40549 
          60      2.61333 -1.23383e-05   2.2027e-05     -9.40547 
          60            3 -8.06803e-06  2.01628e-05     -9.40545 
          80            0            0            0     -9.19798 
          80     0.013333 -1.84382e-05  1.17539e-08     -9.19798 
          80     0.053333  -2.8118e-06  1.88202e-07     -9.19798 
          80         0.12  6.02777e-06  8.95881e-07     -9.19798 
          80     0.213332  2.98932e-06  2.50101e-06     -9.19798 
          80     0.333332 -6.82279e-06  5.11141e-06     -9.19798 
          80         0.48 -1.44461e-05  8.60443e-06     -9.19798 
          80     0.653331 -1.41663e-05  1.28127e-05     -9.19798 
          80     0.853332 -7.36903e-06   1.7431e-05     -9.19798 
          80         1.08 -3.18208e-06  2.18362e-05     -9.19798 
          80      1.33333 -6.35207e-06  2.54458e-05     -9.19797 
          80      1.61333 -1.19847e-05  2.81031e-05     -9.19797 
          80         1.92 -1.68468e-05  2.95213e-05     -9.19796 
          80      2.25333 -2.12913e-05  2.96201e-05     -9.19796 
          80      2.61333 -2.43229e-05   2.8556e-05     -9.19795 
          80            3  -2.5716e-05  2.65847e-05     -9.19794 
         100            0            0            0     -8.99477 
         100     0.013333 -2.35171e-05  3.01717e-09     -8.99477 
         100     0.053333 -1.93356e-05  4.67322e-08     -8.99477 
         100         0.12 -1.70661e-05  2.00925e-07     -8.99477 
         100     0.213332  -1.5305e-05  4.85408e-07     -8.99477 
         100     0.333332 -1.23047e-05  8.40494e-07     -8.99477 
         100         0.48  -7.8727e-06  1.21638e-06     -8.99477 
         100     0.653331 -3.10187e-06  1.62465e-06     -8.99477 
         100     0.853332  1.85164e-08  2.02075e-06     -8.99477 
         100         1.08 -1.27778e-06  2.22363e-06     -8.99477 
         100      1.33333 -5.51525e-06  2.16367e-06     -8.99477 
         100      1.61333 -9.48996e-06  1.97166e-06     -8.99476 
         100         1.92 -1.42798e-05  1.66136e-06     -8.99476 
         100      2.25333   -1.886e-05  1.22402e-06     -8.99476 
         100      2.61333 -2.25261e-05  7.35964e-07     -8.99475 
         100            3 -2.52944e-05   2.1928e-07     -8.99474 
         150            0 -2.91434e-20 -2.78516e-26      -8.4967 
         150     0.013333 -2.91601e-05  1.62435e-09      -8.4967 
         150     0.053333 -4.03633e-05  1.47906e-08      -8.4967 
         150         0.12 -5.52227e-05  9.52987e-10      -8.4967 
         150     0.213332 -6.58143e-05  -1.9477e-07      -8.4967 
         150     0.333332   -6.911e-05 -7.60184e-07      -8.4967 
         150         0.48 -6.77418e-05 -1.76486e-06      -8.4967 
         150     0.653331   -6.538e-05 -3.12193e-06      -8.4967 
         150     0.853332 -6.25803e-05 -4.64166e-06      -8.4967 
         150         1.08 -5.76828e-05 -6.12525e-06      -8.4967 
         150      1.33333 -5.02734e-05 -7.42631e-06      -8.4967 
         150      1.61333  -4.1506e-05 -8.48956e-06      -8.4967 
         150         1.92 -3.21217e-05 -9.20396e-06      -8.4967 
         150      2.25333 -2.36973e-05 -9.50992e-06      -8.4967 
         150      2.61333 -1.70392e-05 -9.42801e-06     -8.49669 
         150            3 -1.23054e-05 -8.99395e-06     -8.49669 
         200            0            0            0     -8.00488 
         200     0.013333 -1.78084e-05  8.36675e-09     -8.00488 
         200     0.053333 -3.30802e-06  1.40611e-07     -8.00488 
         200         0.12  3.54904e-06  7.24501e-07     -8.00488 
         200     0.213332 -3.99881e-06  2.17838e-06     -8.00488 
         200     0.333332  -2.0868e-05  4.69035e-06     -8.00488 
         200         0.48 -3.59923e-05  8.07014e-06     -8.00488 
         200     0.653331  -4.3209e-05  1.19485e-05     -8.00488 
         200     0.853332 -4.38624e-05  1.59671e-05     -8.00488 
         200         1.08 -4.23561e-05  1.98166e-05     -8.00488 
         200      1.33333 -4.05255e-05  2.32845e-05     -8.00488 
         200      1.61333 -3.78726e-05  2.62053e-05     -8.00488 
         200         1.92 -3.39495e-05  2.82685e-05     -8.00488 
         200      2.25333 -3.00212e-05  2.92672e-05     -8.00488 
         200      2.61333 -2.63205e-05  2.91621e-05     -8.00488 
         200            3 -2.29652e-05  2.80282e-05     -8.00488 
         250            0            0            0     -7.51525 
         250     0.013333 -1.50948e-05  6.62743e-09     -7.51525 
         250     0.053333  7.54151e-06  1.09634e-07     -7.51525 
         250         0.12  2.80166e-05  5.56807e-07     -7.51525 
         250     0.213332  3.75432e-05  1.66743e-06     -7.51525 
         250     0.333332  3.62932e-05  3.63799e-06     -7.51525 
         250         0.48  3.08896e-05  6.46264e-06     -7.51525 
         250     0.653331  2.76351e-05  1.00322e-05     -7.51525 
         250     0.853332  2.86301e-05  1.41776e-05     -7.51525 
         250         1.08  2.98297e-05  1.85363e-05     -7.51525 
         250      1.33333  2.49613e-05  2.25717e-05     -7.51525 
         250      1.61333  1.47102e-05   2.5937e-05     -7.51525 
         250         1.92  3.26828e-06  2.84238e-05     -7.51525 
         250      2.25333 -8.14326e-06   2.9835e-05     -7.51525 
         250      2.61333 -1.84716e-05  3.01063e-05     -7.51525 
         250            3 -2.67346e-05  2.92732e-05     -7.51525 
         300            0            0            0     -7.02643 
         300     0.013333 -2.27587e-05 -7.63462e-09     -7.02643 
         300     0.053333  -1.6189e-05 -1.10469e-07     -7.02643 
         300         0.12 -6.16704e-06 -4.68964e-07     -7.02643 
         300     0.213332  5.56834e-06 -1.15053e-06     -7.02643 
         300     0.333332  1.40809e-05  -2.0458e-06     -7.02643 
         300         0.48   1.6847e-05 -2.98834e-06     -7.02643 
         300     0.653331  1.48701e-05 -3.91884e-06     -7.02643 
         300     0.853332  9.79418e-06 -4.88605e-06     -7.02643 
         300         1.08  3.12488e-06 -5.89229e-06     -7.02643 
         300      1.33333 -3.04147e-06 -6.83004e-06     -7.02643 
         300      1.61333 -8.26471e-06  -7.5831e-06     -7.02643 
         300         1.92 -1.38327e-05 -8.11207e-06     -7.02643 
         300      2.25333 -1.91165e-05 -8.36368e-06     -7.02644 
         300      2.61333  -2.3727e-05 -8.32114e-06     -7.02644 
         300            3 -2.75606e-05 -8.00677e-06     -7.02644 
         350            0           -0           -0     -6.53793 
         350     0.013333  -2.5388e-05  -1.0457e-08     -6.53793 
         350     0.053333 -2.47052e-05 -1.55729e-07     -6.53793 
         350         0.12 -1.92916e-05 -6.92607e-07     -6.53793 
         350     0.213332 -7.48469e-06 -1.81021e-06     -6.53793 
         350     0.333332  5.47996e-06 -3.47643e-06     -6.53793 
         350         0.48  1.41177e-05 -5.51872e-06     -6.53793 
         350     0.653331  1.66268e-05 -7.82531e-06     -6.53793 
         350     0.853332  1.32272e-05  -1.0401e-05     -6.53793 
         350         1.08  5.54802e-06 -1.31986e-05     -6.53793 
         350      1.33333 -2.07546e-06 -1.59629e-05     -6.53793 
         350      1.61333 -7.25101e-06 -1.83884e-05     -6.53793 
         350         1.92 -1.23427e-05 -2.03103e-05     -6.53793 
         350      2.25333 -1.74408e-05 -2.15958e-05     -6.53793 
         350      2.61333 -2.21087e-05  -2.2144e-05     -6.53793 
         350            3 -2.59653e-05 -2.19246e-05     -6.53793 
         400            0            0            0     -6.04958 
         400     0.013333 -2.40997e-05  1.46255e-09     -6.04958 
         400     0.053333 -2.33566e-05  2.21364e-08     -6.04958 
         400         0.12 -2.55318e-05  1.00701e-07     -6.04958 
         400     0.213332 -2.92589e-05  2.68556e-07     -6.04958 
         400     0.333332 -3.28105e-05  5.18788e-07     -6.04958 
         400         0.48 -3.48294e-05  8.09423e-07     -6.04958 
         400     0.653331 -3.51198e-05  1.09784e-06     -6.04958 
         400     0.853332 -3.43451e-05  1.35424e-06     -6.04958 
         400         1.08 -3.34061e-05  1.55596e-06     -6.04958 
         400      1.33333 -3.23222e-05  1.71436e-06     -6.04958 
         400      1.61333  -3.0474e-05   1.8719e-06     -6.04958 
         400         1.92  -2.8239e-05  2.02584e-06     -6.04958 
         400      2.25333  -2.5976e-05  2.13908e-06     -6.04958 
         400      2.61333 -2.37445e-05  2.20138e-06     -6.04958 
         400            3 -2.16202e-05  2.20837e-06     -6.04958 
         450            0            0            0      -5.5613 
         450     0.013333 -2.05293e-05  3.24174e-09      -5.5613 
         450     0.053333 -1.11842e-05  5.37192e-08      -5.5613 
         450         0.12 -4.78074e-06  2.73995e-07      -5.5613 
         450     0.213332 -4.40344e-06  8.21943e-07      -5.5613 
         450     0.333332 -8.88729e-06   1.7815e-06      -5.5613 
         450         0.48 -1.40639e-05  3.10993e-06      -5.5613 
         450     0.653331 -1.66847e-05  4.70526e-06      -5.5613 
         450     0.853332 -1.61349e-05  6.46711e-06      -5.5613 
         450         1.08 -1.44606e-05  8.25809e-06      -5.5613 
         450      1.33333 -1.44965e-05  9.90555e-06      -5.5613 
         450      1.61333 -1.62301e-05   1.1323e-05      -5.5613 
         450         1.92 -1.79091e-05  1.24889e-05      -5.5613 
         450      2.25333 -1.95332e-05  1.33314e-05      -5.5613 
         450      2.61333 -2.12605e-05   1.3774e-05      -5.5613 
         450            3 -2.29666e-05  1.37733e-05      -5.5613 
         500            0           -0           -0     -5.07309 
         500     0.013333 -1.78272e-05  4.32487e-10     -5.07309 
         500     0.053333 -1.05968e-06  1.74817e-08     -5.07309 
         500         0.12  1.46708e-05  1.51714e-07     -5.07309 
         500     0.213332  2.14845e-05  6.31673e-07     -5.07309 
         500     0.333332  1.72952e-05  1.69064e-06     -5.07309 
         500         0.48  7.54441e-06  3.37718e-06     -5.07309 
         500     0.653331 -9.44436e-07  5.52934e-06     -5.07309 
         500     0.853332 -5.75154e-06  7.89587e-06     -5.07309 
         500         1.08 -9.02156e-06  1.02337e-05     -5.07309 
         500      1.33333 -1.31234e-05   1.2385e-05     -5.07309 
         500      1.61333 -1.73156e-05  1.43238e-05     -5.07309 
         500         1.92 -2.05119e-05  1.60231e-05     -5.07309 
         500      2.25333 -2.32262e-05  1.73652e-05     -5.07309 
         500      2.61333 -2.56793e-05  1.82362e-05     -5.07309 
         500            3 -2.77023e-05   1.8555e-05     -5.07309 
         550            0           -0           -0     -4.58495 
         550     0.013333 -3.32846e-05 -1.27919e-08     -4.58495 
         550     0.053333 -5.18021e-05 -2.03863e-07     -4.58495 
         550         0.12 -6.53547e-05  -9.9708e-07     -4.58495 
         550     0.213332 -6.09424e-05 -2.89504e-06     -4.58495 
         550     0.333332 -4.17633e-05 -6.14455e-06     -4.58495 
         550         0.48 -2.11729e-05 -1.05911e-05     -4.58495 
         550     0.653331 -9.64366e-06 -1.58913e-05     -4.58495 
         550     0.853332 -9.37032e-06 -2.17568e-05     -4.58495 
         550         1.08 -1.60552e-05 -2.79114e-05     -4.58495 
         550      1.33333 -2.19348e-05 -3.39454e-05     -4.58495 
         550      1.61333  -2.2775e-05 -3.94464e-05     -4.58495 
         550         1.92 -2.20038e-05 -4.41734e-05     -4.58495 
         550      2.25333 -2.12933e-05 -4.78769e-05     -4.58495 
         550      2.61333 -2.07304e-05 -5.02964e-05     -4.58495 
         550            3 -2.01521e-05 -5.12231e-05     -4.58495 
         600            0 -2.67947e-20 -2.96098e-28     -4.09689 
         600     0.013333 -2.37486e-05  1.95253e-08     -4.09689 
         600     0.053333 -2.72929e-05  2.90158e-07     -4.09689 
         600         0.12 -4.68955e-05  1.28655e-06     -4.09689 
         600     0.213332 -7.97292e-05  3.34403e-06     -4.09689 
         600     0.333332 -0.000111394  6.34744e-06     -4.09689 
         600         0.48 -0.000129116   9.8687e-06     -4.09689 
         600     0.653331 -0.000130947  1.35957e-05     -4.09689 
         600     0.853332 -0.000120894  1.75239e-05     -4.09689 
         600         1.08 -0.000103068  2.17296e-05     -4.09689 
         600      1.33333 -8.36313e-05  2.60101e-05     -4.09689 
         600      1.61333 -6.88648e-05  2.99313e-05     -4.09689 
         600         1.92 -5.69746e-05  3.31979e-05     -4.09689 
         600      2.25333 -4.48362e-05  3.56954e-05     -4.09689 
         600      2.61333 -3.21905e-05  3.72571e-05     -4.09689 
         600            3 -2.02445e-05  3.77281e-05     -4.09689 
         650            0           -0           -0     -3.60874 
         650     0.013333  -4.6642e-06 -2.95327e-08     -3.60874 
         650     0.053333  5.52225e-05 -4.14439e-07     -3.60874 
         650         0.12  0.000144006 -1.67285e-06     -3.60874 
         650     0.213332  0.000234613 -3.81121e-06     -3.60874 
         650     0.333332  0.000294267 -6.07744e-06     -3.60874 
         650         0.48  0.000311721  -7.5732e-06     -3.60874 
         650     0.653331  0.000300285  -8.0286e-06     -3.60874 
         650     0.853332  0.000275802 -7.91624e-06     -3.60874 
         650         1.08  0.000241969 -7.95673e-06     -3.60874 
         650      1.33333   0.00019974  -8.4357e-06     -3.60874 
         650      1.61333  0.000157058 -8.99731e-06     -3.60874 
         650         1.92  0.000117121 -9.26285e-06     -3.60874 
         650      2.25333  7.61094e-05 -9.21103e-06     -3.60875 
         650      2.61333  3.35562e-05 -8.89113e-06     -3.60875 
         650            3 -7.77383e-06 -8.31819e-06     -3.60875 
         700            0            0            0     -3.12103 
         700     0.013333 -5.54294e-05  4.40273e-08     -3.12103 
         700     0.053333 -0.000148255  6.14962e-07     -3.12103 
         700         0.12 -0.000290982  2.46614e-06     -3.12103 
         700     0.213332 -0.000438144  5.57829e-06     -3.12103 
         700     0.333332 -0.000538236  8.82774e-06     -3.12103 
         700         0.48 -0.000573618  1.08935e-05     -3.12103 
         700     0.653331 -0.000564625  1.13624e-05     -3.12103 
         700     0.853332 -0.000535798  1.09201e-05     -3.12103 
         700         1.08 -0.000491162  1.07591e-05     -3.12103 
         700      1.33333 -0.000426865   1.1593e-05     -3.12103 
         700      1.61333 -0.000353713  1.30527e-05     -3.12103 
         700         1.92 -0.000283972  1.43181e-05     -3.12102 
         700      2.25333 -0.000213131  1.51901e-05     -3.12102 
         700      2.61333 -0.000139345  1.56632e-05     -3.12102 
         700            3 -6.62579e-05  1.57185e-05     -3.12101 
         750            0            0            0     -2.63286 
         750     0.013333  -4.3661e-06 -5.08011e-08     -2.63286 
         750     0.053333  6.30933e-05 -7.29941e-07     -2.63286 
         750         0.12  0.000178056 -3.07803e-06     -2.63286 
         750     0.213332  0.000313749 -7.52292e-06     -2.63286 
         750     0.333332   0.00042317  -1.3326e-05     -2.63286 
         750         0.48  0.000478942 -1.92465e-05     -2.63286 
         750     0.653331  0.000488581 -2.46487e-05     -2.63286 
         750     0.853332  0.000470556 -2.99035e-05     -2.63286 
         750         1.08  0.000429613 -3.59413e-05     -2.63286 
         750      1.33333  0.000365203 -4.32691e-05     -2.63286 
         750      1.61333  0.000292129 -5.12316e-05     -2.63286 
         750         1.92  0.000226298 -5.86348e-05     -2.63286 
         750      2.25333  0.000161972 -6.48713e-05     -2.63286 
         750      2.61333   9.5336e-05  -6.9646e-05     -2.63286 
         750            3     2.87e-05 -7.26996e-05     -2.63287 
         800            0           -0           -0     -2.14529 
         800     0.013333 -2.39491e-05   4.4009e-08     -2.14529 
         800     0.053333 -3.59412e-05  6.54366e-07     -2.14529 
         800         0.12 -8.57208e-05  2.91354e-06     -2.14529 
         800     0.213332 -0.000171033  7.64838e-06     -2.14529 
         800     0.333332 -0.000260403  1.47418e-05     -2.14529 
         800         0.48 -0.000321136  2.33202e-05     -2.14529 
         800     0.653331  -0.00034385  3.25987e-05     -2.14529 
         800     0.853332 -0.000335968  4.24413e-05     -2.14529 
         800         1.08 -0.000304312  5.31661e-05     -2.14529 
         800      1.33333 -0.000256139  6.47717e-05     -2.14529 
         800      1.61333 -0.000207484  7.64299e-05     -2.14529 
         800         1.92 -0.000168738  8.70808e-05     -2.14529 
         800      2.25333 -0.000132752  9.60636e-05     -2.14529 
         800      2.61333 -9.48874e-05  0.000102997     -2.14529 
         800            3 -5.62073e-05   0.00010749     -2.14528 
         850            0           -0           -0     -1.65756 
         850     0.013333 -5.19621e-05 -1.85656e-08     -1.65756 
         850     0.053333 -0.000117422 -3.05417e-07     -1.65756 
         850         0.12 -0.000182918 -1.56369e-06     -1.65756 
         850     0.213332 -0.000210313 -4.79163e-06     -1.65756 
         850     0.333332 -0.000191437 -1.07631e-05     -1.65756 
         850         0.48 -0.000147876 -1.95771e-05     -1.65756 
         850     0.653331 -0.000107843 -3.07579e-05     -1.65756 
         850     0.853332 -8.70677e-05 -4.37067e-05     -1.65756 
         850         1.08 -8.61981e-05 -5.79039e-05     -1.65756 
         850      1.33333 -9.37914e-05  -7.2675e-05     -1.65756 
         850      1.61333 -9.40916e-05 -8.70664e-05     -1.65756 
         850         1.92 -8.31835e-05 -0.000100281     -1.65756 
         850      2.25333 -6.85368e-05  -0.00011181     -1.65756 
         850      2.61333 -5.39093e-05 -0.000121141     -1.65756 
         850            3 -3.92045e-05 -0.000127712     -1.65756 
         900            0   -2.549e-20  1.43895e-27     -1.16983 
         900     0.013333 -1.83794e-05   -3.503e-08     -1.16983 
         900     0.053333  9.91573e-06 -5.24055e-07     -1.16983 
         900         0.12  7.40158e-05 -2.35903e-06     -1.16983 
         900     0.213332  0.000172031 -6.28719e-06     -1.16983 
         900     0.333332  0.000275501 -1.23155e-05     -1.16983 
         900         0.48  0.000351542 -1.97167e-05     -1.16983 
         900     0.653331  0.000387012 -2.76297e-05     -1.16983 
         900     0.853332  0.000388946 -3.56131e-05     -1.16983 
         900         1.08  0.000368885 -4.36835e-05     -1.16983 
         900      1.33333   0.00033416 -5.19561e-05     -1.16983 
         900      1.61333  0.000290335 -6.02986e-05     -1.16983 
         900         1.92  0.000242891 -6.83179e-05     -1.16984 
         900      2.25333  0.000192312 -7.54552e-05     -1.16984 
         900      2.61333  0.000138513 -8.13129e-05     -1.16984 
         900            3  8.21493e-05 -8.55342e-05     -1.16984 
         950            0           -0           -0     -0.68226 
         950     0.013333  2.77837e-05 -1.64252e-08     -0.68226 
         950     0.053333  0.000170154 -1.97107e-07     -0.68226 
         950         0.12  0.000354624 -5.49492e-07     -0.68226 
         950     0.213332  0.000516014 -3.29456e-07     -0.68226 
         950     0.333332  0.000603448  1.87034e-06     -0.68226 
         950         0.48  0.000613277  7.21152e-06     -0.68226 
         950     0.653331  0.000580882  1.58459e-05    -0.682259 
         950     0.853332  0.000542915  2.69821e-05    -0.682259 
         950         1.08  0.000510118  3.93673e-05    -0.682259 
         950      1.33333  0.000470333  5.17425e-05    -0.682259 
         950      1.61333  0.000413131  6.33102e-05     -0.68226 
         950         1.92   0.00034497  7.39521e-05    -0.682261 
         950      2.25333  0.000272216  8.35764e-05    -0.682263 
         950      2.61333  0.000195952  9.17791e-05    -0.682266 
         950            3  0.000116083   9.8045e-05    -0.682271 
        1000            0           -0           -0    -0.195003 
        1000     0.013333   5.5701e-06  4.15095e-08    -0.195003 
        1000     0.053333  7.17508e-05  6.38061e-07    -0.195003 
        1000         0.12  0.000118339  3.01671e-06    -0.195003 
        1000     0.213332  0.000107105  8.54086e-06    -0.195003 
        1000     0.333332  4.30077e-05  1.78919e-05    -0.195003 
        1000         0.48 -3.62725e-05  3.07444e-05    -0.195003 
        1000     0.653331 -9.50515e-05  4.62646e-05    -0.195003 
        1000     0.853332 -0.000118201  6.38308e-05    -0.195003 
        1000         1.08 -0.000106136   8.3188e-05    -0.195003 
        1000      1.33333 -7.09123e-05  0.000103895    -0.195003 
        1000      1.61333 -3.64921e-05  0.000124806    -0.195003 
        1000         1.92  -1.9242e-05  0.000144489    -0.195003 
        1000      2.25333 -1.09429e-05  0.000162056    -0.195002 
        1000      2.61333  -3.8826e-06  0.000176751    -0.195002 
        1000            3  2.92698e-06  0.000187822    -0.195001 
