Variables = x, y, u, v, p

Zone, I=416, F=POINT
         -50            0            0            0      4.55108 
         -50     0.013333  2.31084e-05  7.33569e-09      4.55108 
         -50     0.053333  1.92928e-05  4.24238e-08      4.55108 
         -50         0.12  1.60646e-05  1.20505e-07      4.55108 
         -50     0.213332  1.37607e-05  2.14212e-07      4.55107 
         -50     0.333332  1.27749e-05  2.64996e-07      4.55107 
         -50         0.48  1.26238e-05  3.03962e-07      4.55106 
         -50     0.653331  1.30221e-05  3.37355e-07      4.55105 
         -50     0.853332  1.41278e-05   3.1169e-07      4.55102 
         -50         1.08  1.58354e-05  3.34075e-07      4.55099 
         -50      1.33333   1.7845e-05  3.53537e-07      4.55095 
         -50      1.61333  1.98894e-05   3.9945e-07      4.55089 
         -50         1.92  2.23456e-05  5.19804e-07      4.55081 
         -50      2.25333  2.31943e-05  6.45363e-07       4.5507 
         -50      2.61333  2.30492e-05  9.87871e-07      4.55057 
         -50            3  2.34487e-05  1.69126e-06      4.55041 
         -25            0           -0           -0      4.36879 
         -25     0.013333  1.67152e-05  1.05923e-09      4.36879 
         -25     0.053333  1.37967e-05 -5.70679e-09      4.36879 
         -25         0.12  1.19504e-05 -4.75332e-08      4.36879 
         -25     0.213332  1.11417e-05 -1.54249e-07      4.36879 
         -25     0.333332  1.08985e-05 -3.40717e-07      4.36879 
         -25         0.48  1.05412e-05 -6.08681e-07      4.36879 
         -25     0.653331  9.96552e-06 -9.26607e-07      4.36878 
         -25     0.853332  9.69613e-06 -1.25814e-06      4.36878 
         -25         1.08  1.03337e-05 -1.55943e-06      4.36876 
         -25      1.33333  1.16041e-05 -1.77478e-06      4.36875 
         -25      1.61333  1.31045e-05 -1.88484e-06      4.36872 
         -25         1.92  1.47054e-05 -1.87837e-06      4.36869 
         -25      2.25333  1.61005e-05  -1.6749e-06      4.36866 
         -25      2.61333  1.71359e-05 -1.35099e-06      4.36861 
         -25            3  1.76709e-05 -1.17196e-06      4.36855 
           0            0            0            0      4.21789 
           0     0.013333  5.07093e-05  -3.1577e-05      4.21813 
           0     0.053333  3.18732e-05 -1.63208e-05      4.21843 
           0         0.12   2.5622e-05  -1.0837e-05      4.21876 
           0     0.213332  2.29558e-05 -8.38008e-06      4.21912 
           0     0.333332  2.16402e-05  -6.9089e-06      4.21948 
           0         0.48  2.06623e-05 -5.70903e-06      4.21985 
           0     0.653331  2.00942e-05  -4.7435e-06      4.22022 
           0     0.853332    1.949e-05 -3.94764e-06      4.22059 
           0         1.08  1.85111e-05 -3.29228e-06      4.22094 
           0      1.33333  1.73849e-05 -2.75109e-06      4.22128 
           0      1.61333    1.647e-05 -2.30016e-06      4.22161 
           0         1.92  1.55385e-05 -1.95739e-06      4.22193 
           0      2.25333  1.41485e-05 -1.74044e-06      4.22223 
           0      2.61333   1.2545e-05 -1.59111e-06      4.22251 
           0            3  1.15157e-05 -1.40846e-06      4.22277 
          20            0            0            0      4.13622 
          20     0.013333  0.000100682  7.00745e-05      4.13599 
          20     0.053333  9.69517e-05  6.80103e-05      4.13572 
          20         0.12  7.03688e-05  5.12203e-05      4.13541 
          20     0.213332  4.46222e-05    3.824e-05      4.13508 
          20     0.333332  2.43901e-05  3.00463e-05      4.13473 
          20         0.48  9.48664e-06   2.4874e-05      4.13438 
          20     0.653331  1.51549e-06  2.19691e-05      4.13403 
          20     0.853332 -2.87712e-07  2.05674e-05      4.13369 
          20         1.08  7.75051e-07  1.98949e-05      4.13334 
          20      1.33333  2.41008e-06  1.93915e-05      4.13301 
          20      1.61333  4.40592e-06  1.87341e-05      4.13268 
          20         1.92  6.91668e-06  1.77254e-05      4.13236 
          20      2.25333  9.44913e-06  1.63303e-05      4.13204 
          20      2.61333  1.13183e-05  1.46702e-05      4.13173 
          20            3  1.25186e-05  1.30022e-05      4.13143 
          40            0   3.2092e-20  4.67068e-25      4.03482 
          40     0.013333  1.40753e-05  8.51531e-09      4.03482 
          40     0.053333  1.48674e-05  1.18583e-07      4.03482 
          40         0.12  1.34713e-05  4.99341e-07      4.03482 
          40     0.213332  1.00423e-05  1.22417e-06      4.03482 
          40     0.333332  7.45327e-06  2.22832e-06      4.03482 
          40         0.48  7.27431e-06  3.47919e-06      4.03482 
          40     0.653331  9.82514e-06  5.05146e-06      4.03481 
          40     0.853332  1.36523e-05  6.90118e-06      4.03481 
          40         1.08  1.63826e-05  8.75896e-06      4.03481 
          40      1.33333  1.72344e-05  1.03347e-05      4.03481 
          40      1.61333  1.64938e-05  1.14198e-05       4.0348 
          40         1.92  1.55461e-05  1.18681e-05      4.03479 
          40      2.25333  1.38996e-05   1.1696e-05      4.03478 
          40      2.61333  1.26218e-05  1.10832e-05      4.03477 
          40            3  1.25243e-05  1.01501e-05      4.03475 
          60            0   1.3513e-20  1.18843e-25      3.94459 
          60     0.013333  8.53576e-06  2.28973e-09      3.94459 
          60     0.053333  -1.7117e-06  2.06796e-08      3.94459 
          60         0.12 -1.21516e-05  2.27942e-08      3.94459 
          60     0.213332 -1.76327e-05 -1.36904e-07      3.94459 
          60     0.333332 -1.68712e-05 -6.31711e-07      3.94459 
          60         0.48 -1.34896e-05 -1.52964e-06      3.94459 
          60     0.653331 -1.13923e-05 -2.75414e-06      3.94459 
          60     0.853332 -1.02761e-05 -4.06962e-06      3.94459 
          60         1.08 -6.80631e-06 -5.20252e-06      3.94459 
          60      1.33333 -1.18561e-06  -6.0808e-06      3.94459 
          60      1.61333  4.68316e-06 -6.78956e-06      3.94459 
          60         1.92  1.05209e-05  -7.2408e-06      3.94458 
          60      2.25333  1.50667e-05 -7.36213e-06      3.94458 
          60      2.61333  1.76788e-05 -7.24756e-06      3.94457 
          60            3  1.85452e-05 -6.97678e-06      3.94456 
          80            0            0            0      3.85738 
          80     0.013333  1.11138e-05  9.24015e-09      3.85738 
          80     0.053333  5.93691e-06  1.34102e-07      3.85738 
          80         0.12 -4.75784e-06  5.80966e-07      3.85738 
          80     0.213332 -1.92796e-05  1.46565e-06      3.85738 
          80     0.333332 -3.20163e-05  2.69396e-06      3.85738 
          80         0.48 -3.91968e-05  4.07763e-06      3.85738 
          80     0.653331 -4.00742e-05  5.52483e-06      3.85738 
          80     0.853332 -3.48354e-05  7.05521e-06      3.85738 
          80         1.08 -2.52861e-05  8.62674e-06      3.85738 
          80      1.33333  -1.5227e-05  1.00733e-05      3.85738 
          80      1.61333 -5.93939e-06  1.11873e-05      3.85738 
          80         1.92  4.29715e-06  1.18363e-05      3.85738 
          80      2.25333  1.25283e-05  1.19588e-05      3.85737 
          80      2.61333  1.82413e-05  1.16046e-05      3.85737 
          80            3  2.20419e-05  1.09077e-05      3.85737 
         100            0            0            0      3.77199 
         100     0.013333  1.49121e-05  1.04257e-08      3.77199 
         100     0.053333  1.97166e-05  1.58749e-07      3.77199 
         100         0.12  2.01502e-05  7.28301e-07      3.77199 
         100     0.213332  1.38215e-05   1.9532e-06      3.77199 
         100     0.333332  5.75307e-06  3.82319e-06      3.77199 
         100         0.48  1.57929e-06  6.16393e-06      3.77199 
         100     0.653331  3.17755e-06  8.82434e-06      3.77199 
         100     0.853332  8.15785e-06  1.16191e-05      3.77199 
         100         1.08  1.13141e-05   1.4208e-05      3.77199 
         100      1.33333  1.14496e-05  1.63207e-05      3.77199 
         100      1.61333   1.1512e-05   1.7878e-05      3.77199 
         100         1.92  1.24397e-05  1.86841e-05      3.77199 
         100      2.25333   1.2899e-05  1.86522e-05      3.77198 
         100      2.61333   1.2929e-05  1.78605e-05      3.77198 
         100            3  1.28503e-05  1.64966e-05      3.77198 
         150            0  1.23881e-20  1.57082e-26      3.56262 
         150     0.013333  7.30622e-06 -2.84968e-09      3.56262 
         150     0.053333 -3.15613e-06 -4.97254e-08      3.56262 
         150         0.12 -1.21709e-05 -2.64863e-07      3.56262 
         150     0.213332 -1.52752e-05 -8.21527e-07      3.56262 
         150     0.333332  -1.2872e-05 -1.83123e-06      3.56262 
         150         0.48 -8.83919e-06 -3.28526e-06      3.56262 
         150     0.653331 -6.47146e-06 -5.10351e-06      3.56262 
         150     0.853332  -6.3138e-06 -7.15514e-06      3.56262 
         150         1.08 -5.80775e-06 -9.21186e-06      3.56262 
         150      1.33333 -2.84898e-06 -1.10171e-05      3.56262 
         150      1.61333  1.21812e-06 -1.24572e-05      3.56262 
         150         1.92  5.28721e-06 -1.34034e-05      3.56262 
         150      2.25333  9.17169e-06 -1.37566e-05      3.56261 
         150      2.61333  1.25206e-05 -1.35471e-05      3.56261 
         150            3  1.50556e-05 -1.28518e-05      3.56261 
         200            0            0            0      3.35586 
         200     0.013333  7.89692e-06 -5.61804e-09      3.35586 
         200     0.053333 -8.67575e-09 -9.08591e-08      3.35586 
         200         0.12 -4.04393e-06 -4.46663e-07      3.35586 
         200     0.213332 -9.18891e-07 -1.28384e-06      3.35586 
         200     0.333332  6.36545e-06 -2.66647e-06      3.35586 
         200         0.48  1.23268e-05 -4.48404e-06      3.35586 
         200     0.653331  1.41746e-05 -6.58057e-06      3.35586 
         200     0.853332  1.26843e-05   -8.803e-06      3.35586 
         200         1.08  1.10478e-05 -1.09377e-05      3.35586 
         200      1.33333  1.11859e-05 -1.27776e-05      3.35586 
         200      1.61333  1.17693e-05 -1.42364e-05      3.35586 
         200         1.92  1.17565e-05 -1.51957e-05      3.35586 
         200      2.25333  1.15808e-05 -1.55555e-05      3.35586 
         200      2.61333  1.13393e-05  -1.5314e-05      3.35586 
         200            3  1.11265e-05 -1.45207e-05      3.35586 
         250            0            0            0      3.15004 
         250     0.013333  1.10178e-05  -4.7838e-09      3.15004 
         250     0.053333  1.04856e-05 -7.05439e-08      3.15004 
         250         0.12  1.27961e-05 -3.05859e-07      3.15004 
         250     0.213332  1.64492e-05 -7.63589e-07      3.15004 
         250     0.333332   1.8213e-05 -1.37461e-06      3.15004 
         250         0.48  1.64979e-05 -2.02793e-06      3.15004 
         250     0.653331  1.22914e-05 -2.68063e-06      3.15004 
         250     0.853332  7.38988e-06 -3.33316e-06      3.15004 
         250         1.08  3.85595e-06 -3.92479e-06      3.15004 
         250      1.33333  2.88724e-06 -4.36399e-06      3.15004 
         250      1.61333  3.44163e-06 -4.61973e-06      3.15004 
         250         1.92  4.20153e-06 -4.69655e-06      3.15004 
         250      2.25333    5.057e-06 -4.58715e-06      3.15004 
         250      2.61333  5.88832e-06 -4.30345e-06      3.15004 
         250            3   6.5838e-06  -3.8787e-06      3.15004 
         300            0            0            0      2.94462 
         300     0.013333  1.51885e-05 -2.28252e-08      2.94462 
         300     0.053333  3.01352e-05 -3.28349e-07      2.94462 
         300         0.12  6.14979e-05 -1.38445e-06      2.94462 
         300     0.213332  0.000100651 -3.38337e-06      2.94462 
         300     0.333332  0.000132001 -6.02556e-06      2.94462 
         300         0.48  0.000147546 -8.86383e-06      2.94462 
         300     0.653331  0.000149193 -1.17541e-05      2.94462 
         300     0.853332  0.000139453 -1.48896e-05      2.94462 
         300         1.08  0.000119965 -1.83844e-05      2.94462 
         300      1.33333  9.72502e-05 -2.19233e-05      2.94462 
         300      1.61333  7.60777e-05 -2.50049e-05      2.94462 
         300         1.92  5.34591e-05 -2.73644e-05      2.94462 
         300      2.25333  3.13345e-05 -2.88331e-05      2.94462 
         300      2.61333  1.13554e-05 -2.92827e-05      2.94462 
         300            3   -5.315e-06 -2.87126e-05      2.94461 
         350            0           -0           -0      2.73932 
         350     0.013333  1.60478e-05 -1.82296e-09      2.73932 
         350     0.053333  2.71095e-05 -1.35928e-08      2.73932 
         350         0.12  3.89776e-05  2.85723e-08      2.73932 
         350     0.213332  4.31417e-05  3.46733e-07      2.73932 
         350     0.333332   3.7423e-05  1.18632e-06      2.73932 
         350         0.48   2.7394e-05  2.57955e-06      2.73932 
         350     0.653331  1.93499e-05  4.30996e-06      2.73932 
         350     0.853332  1.40008e-05  6.05417e-06      2.73932 
         350         1.08  8.45811e-06   7.5561e-06      2.73932 
         350      1.33333   3.1447e-06  8.80651e-06      2.73932 
         350      1.61333  7.68084e-07  9.95808e-06      2.73932 
         350         1.92   4.8218e-09  1.09716e-05      2.73932 
         350      2.25333 -1.03083e-07  1.17084e-05      2.73932 
         350      2.61333  4.21635e-07  1.21003e-05      2.73932 
         350            3  1.57526e-06  1.21158e-05      2.73932 
         400            0            0            0       2.5342 
         400     0.013333  1.12291e-05 -1.67218e-08       2.5342 
         400     0.053333  1.51136e-05 -2.48503e-07       2.5342 
         400         0.12  3.24139e-05  -1.1056e-06       2.5342 
         400     0.213332  6.19951e-05 -2.90141e-06       2.5342 
         400     0.333332  9.28038e-05  -5.5976e-06       2.5342 
         400         0.48  0.000114055  -8.8742e-06       2.5342 
         400     0.653331  0.000122952 -1.24291e-05       2.5342 
         400     0.853332  0.000121438 -1.61744e-05       2.5342 
         400         1.08  0.000110987 -2.01639e-05       2.5342 
         400      1.33333  9.45004e-05 -2.43041e-05       2.5342 
         400      1.61333  7.71898e-05 -2.82132e-05       2.5342 
         400         1.92  5.93722e-05 -3.15036e-05      2.53419 
         400      2.25333  4.11082e-05 -3.39242e-05      2.53419 
         400      2.61333  2.32355e-05 -3.52833e-05      2.53419 
         400            3  7.07101e-06 -3.54779e-05      2.53419 
         450            0            0            0      2.32905 
         450     0.013333 -1.31526e-06  3.27602e-08      2.32905 
         450     0.053333 -4.36184e-05  4.67894e-07      2.32905 
         450         0.12 -0.000113477  1.94825e-06      2.32905 
         450     0.213332 -0.000191249  4.66214e-06      2.32905 
         450     0.333332 -0.000247988  8.01803e-06      2.32905 
         450         0.48 -0.000270805  1.11822e-05      2.32905 
         450     0.653331 -0.000267317  1.38281e-05      2.32905 
         450     0.853332 -0.000248057  1.62596e-05      2.32905 
         450         1.08 -0.000216746  1.89028e-05      2.32905 
         450      1.33333 -0.000178426  2.17164e-05      2.32905 
         450      1.61333 -0.000140073  2.42506e-05      2.32905 
         450         1.92  -0.00010029  2.62142e-05      2.32905 
         450      2.25333 -5.88794e-05  2.74872e-05      2.32905 
         450      2.61333 -1.78414e-05  2.79596e-05      2.32905 
         450            3  1.95837e-05  2.75663e-05      2.32906 
         500            0           -0           -0      2.12424 
         500     0.013333  4.07435e-05 -2.91294e-09      2.12424 
         500     0.053333  0.000115878  1.45314e-09      2.12424 
         500         0.12  0.000203897  2.99959e-07      2.12424 
         500     0.213332  0.000265077  1.69752e-06      2.12424 
         500     0.333332  0.000282567  5.10703e-06      2.12424 
         500         0.48  0.000270739  1.08637e-05      2.12424 
         500     0.653331  0.000254524  1.85891e-05      2.12424 
         500     0.853332  0.000245586  2.74933e-05      2.12424 
         500         1.08  0.000235685  3.65371e-05      2.12424 
         500      1.33333  0.000210606  4.47195e-05      2.12424 
         500      1.61333  0.000172032  5.16643e-05      2.12424 
         500         1.92  0.000131042  5.74285e-05      2.12424 
         500      2.25333  8.92885e-05  6.17228e-05      2.12424 
         500      2.61333  4.75743e-05  6.42295e-05      2.12424 
         500            3  8.62295e-06  6.47241e-05      2.12423 
         550            0           -0           -0      1.91931 
         550     0.013333  8.94909e-06 -1.52328e-08      1.91931 
         550     0.053333  5.97254e-06 -2.25355e-07      1.91931 
         550         0.12  1.18888e-05 -9.89929e-07      1.91931 
         550     0.213332  2.61596e-05 -2.53799e-06      1.91931 
         550     0.333332  3.96697e-05  -4.7502e-06      1.91931 
         550         0.48  4.50046e-05 -7.33093e-06      1.91931 
         550     0.653331  4.17852e-05 -1.01615e-05      1.91931 
         550     0.853332  3.15274e-05 -1.33811e-05      1.91931 
         550         1.08  1.56697e-05 -1.70803e-05      1.91931 
         550      1.33333  1.22304e-06 -2.09098e-05      1.91931 
         550      1.61333 -4.03434e-06 -2.42631e-05      1.91931 
         550         1.92 -4.39629e-06 -2.68802e-05      1.91931 
         550      2.25333 -4.02407e-06 -2.87381e-05      1.91931 
         550      2.61333 -3.49744e-06  -2.9739e-05      1.91931 
         550            3 -2.21339e-06 -2.97817e-05      1.91931 
         600            0  6.17105e-21  1.76503e-28      1.71448 
         600     0.013333 -9.54918e-06  -5.4467e-09      1.71448 
         600     0.053333 -6.17479e-05 -1.13301e-07      1.71448 
         600         0.12 -0.000115178 -7.19926e-07      1.71448 
         600     0.213332 -0.000141263 -2.57206e-06      1.71448 
         600     0.333332 -0.000132583 -6.35703e-06      1.71448 
         600         0.48 -0.000106064 -1.21907e-05      1.71448 
         600     0.653331 -8.35912e-05 -1.96136e-05      1.71448 
         600     0.853332 -7.41578e-05 -2.79455e-05      1.71448 
         600         1.08  -7.1024e-05 -3.64381e-05      1.71448 
         600      1.33333 -6.20513e-05 -4.43799e-05      1.71448 
         600      1.61333 -4.55981e-05 -5.14349e-05      1.71448 
         600         1.92 -2.93551e-05 -5.75921e-05      1.71448 
         600      2.25333  -1.4029e-05  -6.2562e-05      1.71448 
         600      2.61333  9.41461e-07 -6.59891e-05      1.71449 
         600            3  1.49626e-05 -6.75758e-05      1.71449 
         650            0           -0           -0      1.50988 
         650     0.013333  3.46483e-05  1.03121e-08      1.50988 
         650     0.053333  9.10328e-05  1.81741e-07      1.50988 
         650         0.12  0.000150287  9.99246e-07      1.50988 
         650     0.213332  0.000181873  3.23285e-06      1.50988 
         650     0.333332  0.000178125  7.51999e-06      1.50988 
         650         0.48  0.000154941  1.39621e-05      1.50988 
         650     0.653331  0.000133526  2.21987e-05      1.50988 
         650     0.853332  0.000124894  3.17386e-05      1.50988 
         650         1.08  0.000126341  4.20159e-05      1.50988 
         650      1.33333  0.000124841  5.22382e-05      1.50988 
         650      1.61333  0.000110813  6.16154e-05      1.50988 
         650         1.92  9.02986e-05  6.98034e-05      1.50988 
         650      2.25333  6.83875e-05  7.65132e-05      1.50988 
         650      2.61333  4.62404e-05  8.13561e-05      1.50988 
         650            3  2.42762e-05  8.39512e-05      1.50988 
         700            0            0            0      1.30524 
         700     0.013333 -1.52387e-06  5.15097e-09      1.30524 
         700     0.053333 -3.71893e-05  6.24814e-08      1.30524 
         700         0.12 -8.28645e-05   1.8389e-07      1.30524 
         700     0.213332  -0.00012269  1.79487e-07      1.30524 
         700     0.333332 -0.000145149 -2.98164e-07      1.30524 
         700         0.48 -0.000150449 -1.51107e-06      1.30524 
         700     0.653331 -0.000146898 -3.47277e-06      1.30524 
         700     0.853332 -0.000141809 -5.98731e-06      1.30524 
         700         1.08 -0.000135961  -8.7377e-06      1.30524 
         700      1.33333   -0.0001251  -1.1368e-05      1.30524 
         700      1.61333 -0.000106844 -1.36207e-05      1.30524 
         700         1.92 -8.46739e-05 -1.54857e-05      1.30524 
         700      2.25333 -6.10301e-05 -1.69641e-05      1.30524 
         700      2.61333 -3.66755e-05 -1.80024e-05      1.30524 
         700            3 -1.22495e-05 -1.85227e-05      1.30525 
         750            0            0            0       1.1009 
         750     0.013333  1.32674e-05 -9.60971e-09       1.1009 
         750     0.053333  2.05397e-05 -1.40674e-07       1.1009 
         750         0.12  3.73698e-05 -6.12163e-07       1.1009 
         750     0.213332  6.07632e-05 -1.56432e-06       1.1009 
         750     0.333332  8.27696e-05 -2.93113e-06       1.1009 
         750         0.48  9.68281e-05 -4.50932e-06       1.1009 
         750     0.653331  0.000102135  -6.1398e-06       1.1009 
         750     0.853332  0.000101042 -7.81344e-06       1.1009 
         750         1.08  9.48651e-05 -9.62955e-06       1.1009 
         750      1.33333  8.41541e-05 -1.16466e-05       1.1009 
         750      1.61333  7.14621e-05 -1.37577e-05       1.1009 
         750         1.92  5.93858e-05 -1.57379e-05       1.1009 
         750      2.25333  4.73308e-05 -1.74591e-05       1.1009 
         750      2.61333  3.48139e-05 -1.88082e-05       1.1009 
         750            3  2.21535e-05 -1.96908e-05       1.1009 
         800            0           -0           -0     0.896656 
         800     0.013333  1.80876e-05  -2.9535e-10     0.896656 
         800     0.053333  3.52766e-05  6.52612e-10     0.896656 
         800         0.12  5.76624e-05  3.88678e-08     0.896656 
         800     0.213332  7.63576e-05  2.28997e-07     0.896656 
         800     0.333332   8.5357e-05  7.43269e-07     0.896656 
         800         0.48  8.44727e-05  1.72254e-06     0.896656 
         800     0.653331  7.81368e-05  3.20608e-06     0.896656 
         800     0.853332  7.12716e-05  5.13781e-06     0.896656 
         800         1.08  6.64153e-05  7.42403e-06     0.896656 
         800      1.33333  6.29948e-05  9.92604e-06     0.896656 
         800      1.61333  5.85018e-05  1.24626e-05     0.896656 
         800         1.92  5.14562e-05  1.48708e-05     0.896655 
         800      2.25333  4.27989e-05  1.70244e-05     0.896655 
         800      2.61333  3.34518e-05  1.88272e-05     0.896655 
         800            3  2.39101e-05  2.01772e-05     0.896654 
         850            0           -0           -0     0.692603 
         850     0.013333  2.19035e-05  8.53271e-09     0.692603 
         850     0.053333  4.57771e-05  1.39748e-07     0.692603 
         850         0.12  6.73617e-05  7.13014e-07     0.692603 
         850     0.213332  7.11023e-05  2.18171e-06     0.692603 
         850     0.333332  5.47349e-05  4.89678e-06     0.692603 
         850         0.48  2.90776e-05   8.8873e-06     0.692603 
         850     0.653331   7.3947e-06  1.38927e-05     0.692603 
         850     0.853332 -3.83576e-06  1.95777e-05     0.692603 
         850         1.08 -5.69463e-06  2.56591e-05     0.692603 
         850      1.33333 -3.33899e-06  3.18729e-05     0.692603 
         850      1.61333 -1.47826e-06  3.79486e-05     0.692603 
         850         1.92 -8.13644e-07  4.36533e-05     0.692603 
         850      2.25333 -3.05882e-07  4.87458e-05     0.692602 
         850      2.61333  5.34638e-07  5.29498e-05     0.692602 
         850            3  1.73021e-06  5.59875e-05     0.692602 
         900            0  1.02003e-20 -2.47292e-27      0.48868 
         900     0.013333  9.39872e-07  1.60308e-08      0.48868 
         900     0.053333 -3.20745e-05  2.29407e-07      0.48868 
         900         0.12 -8.42316e-05  9.60368e-07      0.48868 
         900     0.213332 -0.000143219   2.3203e-06      0.48868 
         900     0.333332 -0.000190552  4.03158e-06      0.48868 
         900         0.48 -0.000215562  5.63747e-06      0.48868 
         900     0.653331 -0.000221101   6.8701e-06      0.48868 
         900     0.853332 -0.000215588  7.80701e-06      0.48868 
         900         1.08 -0.000202847  8.76367e-06      0.48868 
         900      1.33333 -0.000181941  1.00241e-05      0.48868 
         900      1.61333 -0.000154658  1.15804e-05      0.48868 
         900         1.92 -0.000126564  1.31714e-05      0.48868 
         900      2.25333 -9.80172e-05  1.45835e-05     0.488681 
         900      2.61333 -6.82374e-05  1.57359e-05     0.488682 
         900            3 -3.72983e-05  1.65791e-05     0.488684 
         950            0           -0           -0     0.285022 
         950     0.013333 -1.41947e-06 -1.02424e-08     0.285022 
         950     0.053333 -3.19623e-05  -1.6628e-07     0.285022 
         950         0.12 -5.92008e-05 -8.36764e-07     0.285022 
         950     0.213332 -6.65361e-05 -2.52124e-06     0.285022 
         950     0.333332 -5.22344e-05 -5.57682e-06     0.285022 
         950         0.48 -2.86118e-05 -1.00007e-05     0.285022 
         950     0.653331 -9.65108e-06 -1.55044e-05     0.285022 
         950     0.853332 -1.90211e-06 -2.17619e-05     0.285022 
         950         1.08 -4.24813e-06 -2.85183e-05     0.285022 
         950      1.33333 -1.06077e-05 -3.54853e-05     0.285022 
         950      1.61333 -1.35791e-05 -4.22702e-05     0.285022 
         950         1.92 -1.07331e-05 -4.85144e-05     0.285022 
         950      2.25333 -6.10722e-06 -5.40214e-05     0.285022 
         950      2.61333   -1.619e-06 -5.85555e-05     0.285022 
         950            3  2.99071e-06 -6.18536e-05     0.285022 
        1000            0           -0           -0     0.081507 
        1000     0.013333  2.26422e-05  -1.4244e-08     0.081507 
        1000     0.053333  5.65937e-05 -1.97367e-07     0.081507 
        1000         0.12  0.000111204 -8.01414e-07     0.081507 
        1000     0.213332  0.000171402 -1.84935e-06     0.081507 
        1000     0.333332  0.000216748 -2.99309e-06    0.0815071 
        1000         0.48  0.000236461 -3.76046e-06    0.0815071 
        1000     0.653331   0.00023561 -3.93739e-06    0.0815072 
        1000     0.853332  0.000225035 -3.69925e-06    0.0815072 
        1000         1.08  0.000209456 -3.44393e-06    0.0815073 
        1000      1.33333  0.000187716 -3.49554e-06    0.0815072 
        1000      1.61333  0.000161185 -3.86013e-06     0.081507 
        1000         1.92  0.000135052 -4.28171e-06    0.0815065 
        1000      2.25333  0.000109164  -4.6125e-06    0.0815057 
        1000      2.61333   8.2289e-05 -4.82402e-06    0.0815045 
        1000            3   5.4648e-05 -4.91504e-06    0.0815027 
