Variables = x, y, u, v, p

Zone, I=416, F=POINT
         -50            0            0            0      101.058 
         -50     0.013333   0.00057146   1.5182e-07      101.058 
         -50     0.053333  0.000528081  2.99908e-07      101.058 
         -50         0.12  0.000513999  1.67837e-07      101.058 
         -50     0.213332  0.000524177 -4.24875e-07      101.058 
         -50     0.333332  0.000535631 -1.38296e-06      101.058 
         -50         0.48  0.000541237 -2.53892e-06      101.058 
         -50     0.653331   0.00053982 -3.82462e-06      101.057 
         -50     0.853332  0.000532941 -5.06818e-06      101.057 
         -50         1.08  0.000525729 -5.80955e-06      101.056 
         -50      1.33333  0.000521977 -5.57159e-06      101.055 
         -50      1.61333  0.000518094 -4.33948e-06      101.054 
         -50         1.92  0.000510976 -1.98155e-06      101.052 
         -50      2.25333  0.000508634  1.90309e-06       101.05 
         -50      2.61333  0.000507215  6.97799e-06      101.047 
         -50            3   0.00050636  1.33828e-05      101.043 
         -25            0  4.65869e-19  3.50413e-23      96.9594 
         -25     0.013333  0.000420537  7.64416e-08      96.9594 
         -25     0.053333  0.000394631  3.70946e-07      96.9594 
         -25         0.12  0.000381161  1.18582e-06      96.9594 
         -25     0.213332  0.000376824  2.71953e-06      96.9593 
         -25     0.333332  0.000374576  4.93411e-06      96.9593 
         -25         0.48  0.000376669  7.68755e-06      96.9592 
         -25     0.653331   0.00038356  1.08725e-05      96.9591 
         -25     0.853332  0.000391597  1.43021e-05      96.9589 
         -25         1.08  0.000394902  1.75765e-05      96.9586 
         -25      1.33333  0.000392071  2.04061e-05      96.9582 
         -25      1.61333  0.000386422  2.25127e-05      96.9577 
         -25         1.92  0.000374196  2.33799e-05       96.957 
         -25      2.25333  0.000362539  2.43847e-05      96.9561 
         -25      2.61333  0.000366996  2.70586e-05      96.9549 
         -25            3  0.000374499  2.98458e-05      96.9535 
           0            0  3.87302e-19   1.6855e-23      93.7387 
           0     0.013333  0.000344321  3.17988e-08      93.7387 
           0     0.053333  0.000304168  8.86596e-08      93.7387 
           0         0.12   0.00027766  7.56639e-08      93.7387 
           0     0.213332  0.000270168 -2.56118e-07      93.7387 
           0     0.333332  0.000272431 -1.14076e-06      93.7387 
           0         0.48  0.000277817 -2.61642e-06      93.7387 
           0     0.653331  0.000282159 -4.52586e-06      93.7386 
           0     0.853332  0.000286007 -6.57558e-06      93.7385 
           0         1.08  0.000291971 -8.41395e-06      93.7384 
           0      1.33333  0.000299353 -9.81676e-06      93.7382 
           0      1.61333  0.000306521 -1.05816e-05      93.7379 
           0         1.92  0.000315361   -1.059e-05      93.7376 
           0      2.25333  0.000322224  -9.8186e-06      93.7371 
           0      2.61333  0.000327713 -9.27515e-06      93.7366 
           0            3  0.000319973 -1.52185e-05      93.7359 
          20            0  3.54921e-19  1.00768e-23      91.4696 
          20     0.013333  0.000314755  2.00072e-08      91.4696 
          20     0.053333  0.000275118  5.47976e-08      91.4696 
          20         0.12  0.000248439 -2.23201e-08      91.4696 
          20     0.213332  0.000240935 -5.19197e-07      91.4696 
          20     0.333332  0.000242871 -1.66014e-06      91.4696 
          20         0.48  0.000246626 -3.35474e-06      91.4696 
          20     0.653331  0.000249551 -5.27048e-06      91.4695 
          20     0.853332  0.000254237 -7.01348e-06      91.4695 
          20         1.08   0.00026189 -8.32375e-06      91.4694 
          20      1.33333  0.000270043 -9.18705e-06      91.4693 
          20      1.61333  0.000278557 -9.58143e-06      91.4691 
          20         1.92   0.00028452 -9.28855e-06      91.4689 
          20      2.25333  0.000286846 -8.57606e-06      91.4687 
          20      2.61333  0.000291222 -6.79929e-06      91.4683 
          20            3  0.000294233 -4.72418e-06      91.4679 
          40            0  3.33653e-19  6.24108e-24      89.3542 
          40     0.013333  0.000292736  1.09822e-08      89.3542 
          40     0.053333  0.000243535   3.9954e-10      89.3542 
          40         0.12  0.000206427 -2.44382e-07      89.3542 
          40     0.213332  0.000194153 -1.18386e-06      89.3542 
          40     0.333332  0.000199721 -3.24654e-06      89.3542 
          40         0.48  0.000211596 -6.53769e-06      89.3542 
          40     0.653331   0.00021988 -1.08332e-05      89.3542 
          40     0.853332  0.000224163 -1.56068e-05      89.3541 
          40         1.08  0.000230659 -2.01745e-05      89.3541 
          40      1.33333  0.000241158 -2.40565e-05       89.354 
          40      1.61333  0.000252497 -2.71396e-05      89.3539 
          40         1.92  0.000264223 -2.85501e-05      89.3538 
          40      2.25333  0.000277066 -2.87128e-05      89.3536 
          40      2.61333  0.000288851 -2.76034e-05      89.3534 
          40            3  0.000286957 -2.81876e-05      89.3532 
          60            0            0            0      87.3337 
          60     0.013333  0.000288143  3.25753e-08      87.3337 
          60     0.053333  0.000248215  3.90043e-07      87.3337 
          60         0.12  0.000201717  1.62282e-06      87.3337 
          60     0.213332  0.000155653  3.99391e-06      87.3337 
          60     0.333332  0.000118982  7.16598e-06      87.3337 
          60         0.48  9.97081e-05  1.05398e-05      87.3337 
          60     0.653331  9.66666e-05  1.38032e-05      87.3336 
          60     0.853332  0.000107692  1.70295e-05      87.3336 
          60         1.08  0.000130449  2.02856e-05      87.3336 
          60      1.33333  0.000157552  2.32788e-05      87.3336 
          60      1.61333   0.00019107  2.54947e-05      87.3335 
          60         1.92  0.000223259  2.66431e-05      87.3334 
          60      2.25333  0.000250488  2.68063e-05      87.3333 
          60      2.61333   0.00028046  2.61143e-05      87.3332 
          60            3  0.000295423   2.3681e-05       87.333 
          80            0            0            0      85.3731 
          80     0.013333  0.000305158  2.41549e-08      85.3731 
          80     0.053333  0.000327527  3.41321e-07      85.3731 
          80         0.12  0.000352088  1.71819e-06      85.3731 
          80     0.213332    0.0003535   5.1583e-06      85.3731 
          80     0.333332  0.000329013  1.12408e-05      85.3731 
          80         0.48  0.000300423  1.98324e-05      85.3731 
          80     0.653331  0.000285583  3.03993e-05      85.3731 
          80     0.853332  0.000285213  4.21354e-05      85.3731 
          80         1.08  0.000285591   5.3838e-05      85.3731 
          80      1.33333   0.00027509  6.43342e-05      85.3731 
          80      1.61333  0.000262661  7.27358e-05       85.373 
          80         1.92  0.000249822  7.78664e-05       85.373 
          80      2.25333   0.00023941  7.96031e-05      85.3729 
          80      2.61333  0.000231699  7.77145e-05      85.3728 
          80            3  0.000225748  7.39754e-05      85.3727 
         100            0  3.17171e-19  1.63807e-24       83.451 
         100     0.013333   0.00029294 -1.74847e-08       83.451 
         100     0.053333  0.000306972 -2.69646e-07       83.451 
         100         0.12  0.000348231 -1.05647e-06       83.451 
         100     0.213332  0.000397707 -2.30383e-06       83.451 
         100     0.333332  0.000432072 -3.53476e-06       83.451 
         100         0.48  0.000447989 -4.29866e-06       83.451 
         100     0.653331  0.000450676 -4.56199e-06       83.451 
         100     0.853332  0.000439782 -4.77725e-06       83.451 
         100         1.08  0.000412163 -5.48244e-06      83.4509 
         100      1.33333  0.000374967   -6.587e-06      83.4509 
         100      1.61333  0.000329506 -7.63811e-06      83.4509 
         100         1.92   0.00028271 -8.57193e-06      83.4509 
         100      2.25333  0.000242523 -9.22845e-06      83.4508 
         100      2.61333  0.000208123 -9.48218e-06      83.4508 
         100            3  0.000190465 -1.00677e-05      83.4507 
         150            0           -0           -0      78.7359 
         150     0.013333  0.000262904 -4.20435e-08      78.7359 
         150     0.053333  0.000221489 -6.54468e-07      78.7359 
         150         0.12  0.000215319 -3.01741e-06      78.7359 
         150     0.213332  0.000253337 -8.18248e-06      78.7359 
         150     0.333332  0.000306734 -1.62774e-05      78.7359 
         150         0.48  0.000347029 -2.66538e-05      78.7359 
         150     0.653331  0.000361115 -3.86732e-05      78.7359 
         150     0.853332  0.000349438 -5.19026e-05      78.7359 
         150         1.08   0.00032486 -6.55203e-05      78.7358 
         150      1.33333  0.000306156  -7.8222e-05      78.7358 
         150      1.61333  0.000284647 -8.87221e-05      78.7358 
         150         1.92  0.000263003 -9.58437e-05      78.7358 
         150      2.25333   0.00024634 -9.90681e-05      78.7358 
         150      2.61333  0.000231271 -9.80723e-05      78.7358 
         150            3  0.000228223 -9.35146e-05      78.7358 
         200            0           -0           -0      74.0783 
         200     0.013333  0.000273268 -6.07938e-09      74.0783 
         200     0.053333  0.000252381 -8.78673e-08      74.0783 
         200         0.12  0.000242897 -3.47275e-07      74.0783 
         200     0.213332  0.000240473 -7.68514e-07      74.0783 
         200     0.333332  0.000234791 -1.21693e-06      74.0783 
         200         0.48  0.000225885 -1.61627e-06      74.0783 
         200     0.653331  0.000216624 -2.04516e-06      74.0783 
         200     0.853332  0.000208423 -2.62632e-06      74.0783 
         200         1.08  0.000203136 -3.32626e-06      74.0783 
         200      1.33333  0.000203788 -3.91909e-06      74.0783 
         200      1.61333  0.000208689 -4.23348e-06      74.0783 
         200         1.92  0.000214199 -4.31851e-06      74.0783 
         200      2.25333  0.000219389 -4.14681e-06      74.0782 
         200      2.61333  0.000226245  -3.7121e-06      74.0782 
         200            3  0.000235071 -2.86441e-06      74.0782 
         250            0            0            0      69.4405 
         250     0.013333  0.000271704 -2.56047e-08      69.4405 
         250     0.053333  0.000254488 -3.80492e-07      69.4405 
         250         0.12  0.000265031 -1.68209e-06      69.4405 
         250     0.213332   0.00030114 -4.37597e-06      69.4405 
         250     0.333332  0.000340733  -8.3862e-06      69.4405 
         250         0.48  0.000369099 -1.33104e-05      69.4405 
         250     0.653331  0.000381416 -1.88765e-05      69.4405 
         250     0.853332  0.000377167 -2.50714e-05      69.4405 
         250         1.08  0.000359343 -3.17963e-05      69.4405 
         250      1.33333  0.000337562 -3.85376e-05      69.4405 
         250      1.61333  0.000312767 -4.45662e-05      69.4405 
         250         1.92  0.000287999 -4.93019e-05      69.4405 
         250      2.25333  0.000266114 -5.23909e-05      69.4405 
         250      2.61333  0.000242627 -5.35233e-05      69.4405 
         250            3  0.000225844 -5.27309e-05      69.4405 
         300            0           -0           -0      64.8093 
         300     0.013333  0.000281732  9.94987e-10      64.8093 
         300     0.053333     0.000283   3.0727e-08      64.8093 
         300         0.12  0.000295926  2.44558e-07      64.8093 
         300     0.213332  0.000306283  9.77356e-07      64.8093 
         300     0.333332  0.000303106  2.55683e-06      64.8093 
         300         0.48    0.0002925  5.05484e-06      64.8093 
         300     0.653331  0.000283371  8.27477e-06      64.8093 
         300     0.853332   0.00027827  1.18891e-05      64.8093 
         300         1.08   0.00027374  1.55424e-05      64.8093 
         300      1.33333  0.000266744  1.90179e-05      64.8093 
         300      1.61333  0.000259114  2.22094e-05      64.8093 
         300         1.92  0.000251467  2.48366e-05      64.8093 
         300      2.25333  0.000244199   2.6761e-05      64.8093 
         300      2.61333  0.000237273  2.76948e-05      64.8093 
         300            3  0.000230005  2.76513e-05      64.8093 
         350            0  3.01379e-19  8.93651e-27      60.1805 
         350     0.013333  0.000266907  -3.2304e-09      60.1805 
         350     0.053333  0.000231956 -5.55261e-08      60.1805 
         350         0.12  0.000207848 -2.99244e-07      60.1805 
         350     0.213332  0.000200845 -9.64143e-07      60.1805 
         350     0.333332  0.000204977 -2.26016e-06      60.1805 
         350         0.48   0.00021444 -4.24786e-06      60.1805 
         350     0.653331  0.000223319 -6.82856e-06      60.1805 
         350     0.853332  0.000228553 -9.84665e-06      60.1805 
         350         1.08  0.000230249 -1.31587e-05      60.1805 
         350      1.33333  0.000230738 -1.65996e-05      60.1805 
         350      1.61333  0.000231394 -1.98853e-05      60.1805 
         350         1.92  0.000232582 -2.27375e-05      60.1805 
         350      2.25333  0.000233663 -2.49206e-05      60.1805 
         350      2.61333  0.000234285 -2.62858e-05      60.1805 
         350            3  0.000237052  -2.6597e-05      60.1805 
         400            0           -0           -0      55.5525 
         400     0.013333  0.000286932  6.18844e-10      55.5525 
         400     0.053333  0.000302064  2.61426e-08      55.5525 
         400         0.12   0.00033216   2.3517e-07      55.5525 
         400     0.213332  0.000355587  1.02283e-06      55.5525 
         400     0.333332  0.000355157  2.88478e-06      55.5525 
         400         0.48   0.00033619  6.10733e-06      55.5525 
         400     0.653331  0.000312885  1.06297e-05      55.5525 
         400     0.853332  0.000295645  1.61896e-05      55.5525 
         400         1.08  0.000286615  2.24571e-05      55.5525 
         400      1.33333  0.000280341  2.89902e-05      55.5525 
         400      1.61333  0.000272323  3.52448e-05      55.5525 
         400         1.92  0.000261737  4.07156e-05      55.5525 
         400      2.25333  0.000249182  4.50925e-05      55.5525 
         400      2.61333  0.000236418  4.80041e-05      55.5525 
         400            3  0.000224877  4.92051e-05      55.5525 
         450            0           -0           -0      50.9245 
         450     0.013333  0.000215203  2.78089e-08      50.9245 
         450     0.053333  3.85106e-05  3.37524e-07      50.9245 
         450         0.12 -0.000170732   9.8384e-07      50.9245 
         450     0.213332 -0.000334865  8.82273e-07      50.9245 
         450     0.333332 -0.000407912 -1.94817e-06      50.9245 
         450         0.48  -0.00039928 -8.95974e-06      50.9245 
         450     0.653331 -0.000355401 -2.01228e-05      50.9245 
         450     0.853332 -0.000310258  -3.4213e-05      50.9245 
         450         1.08 -0.000263781 -4.95492e-05      50.9245 
         450      1.33333 -0.000200377 -6.47326e-05      50.9245 
         450      1.61333  -0.00011857 -7.89732e-05      50.9246 
         450         1.92 -2.70704e-05 -9.14965e-05      50.9246 
         450      2.25333  6.93876e-05 -0.000101806      50.9246 
         450      2.61333   0.00016862 -0.000109011      50.9246 
         450            3  0.000254933 -0.000112533      50.9246 
         500            0           -0           -0      46.2969 
         500     0.013333  0.000344395 -1.65457e-08      46.2969 
         500     0.053333  0.000510932 -1.42318e-07      46.2969 
         500         0.12  0.000725799  5.41761e-08      46.2969 
         500     0.213332  0.000891287  2.31225e-06      46.2969 
         500     0.333332   0.00095113  8.90991e-06      46.2969 
         500         0.48  0.000931453  2.09319e-05      46.2969 
         500     0.653331  0.000890819  3.76358e-05      46.2969 
         500     0.853332  0.000859596  5.71461e-05      46.2969 
         500         1.08  0.000824043  7.71744e-05      46.2969 
         500      1.33333  0.000756874  9.57668e-05      46.2969 
         500      1.61333  0.000661852  0.000112033      46.2969 
         500         1.92  0.000559272  0.000125557      46.2969 
         500      2.25333  0.000454483  0.000135986      46.2969 
         500      2.61333  0.000345146  0.000142388      46.2969 
         500            3   0.00024491   0.00014402      46.2969 
         550            0           -0           -0      41.6683 
         550     0.013333  0.000199669 -5.12425e-08      41.6683 
         550     0.053333  7.37275e-06 -8.69815e-07      41.6683 
         550         0.12 -0.000157757 -4.58969e-06      41.6683 
         550     0.213332 -0.000199463 -1.43141e-05      41.6683 
         550     0.333332 -0.000120368 -3.22607e-05      41.6683 
         550         0.48  2.64289e-06 -5.82566e-05      41.6683 
         550     0.653331  9.26191e-05 -9.03458e-05      41.6683 
         550     0.853332  0.000123181 -0.000126301      41.6683 
         550         1.08  0.000116657  -0.00016392      41.6683 
         550      1.33333  0.000118474 -0.000200655      41.6683 
         550      1.61333  0.000142639 -0.000234211      41.6683 
         550         1.92  0.000175454 -0.000263062      41.6683 
         550      2.25333  0.000208935 -0.000286054      41.6683 
         550      2.61333  0.000238977 -0.000301314      41.6683 
         550            3  0.000268787 -0.000307352      41.6683 
         600            0           -0           -0      37.0399 
         600     0.013333  0.000373645  6.31998e-08      37.0399 
         600     0.053333  0.000591936  1.07307e-06      37.0399 
         600         0.12  0.000809271  5.67522e-06      37.0399 
         600     0.213332  0.000890615  1.77941e-05      37.0399 
         600     0.333332  0.000810675  4.04178e-05      37.0399 
         600         0.48   0.00065925  7.36384e-05      37.0399 
         600     0.653331   0.00053834  0.000115182      37.0399 
         600     0.853332  0.000489524  0.000162267      37.0399 
         600         1.08  0.000491708  0.000212191      37.0399 
         600      1.33333  0.000490015  0.000261835      37.0399 
         600      1.61333  0.000457944  0.000308071      37.0399 
         600         1.92  0.000406848  0.000348652      37.0399 
         600      2.25333  0.000350959  0.000381938      37.0399 
         600      2.61333  0.000297893  0.000405532      37.0399 
         600            3   0.00024464  0.000417194      37.0399 
         650            0            0            0      32.4107 
         650     0.013333  0.000118366 -2.65774e-08      32.4107 
         650     0.053333 -0.000291781 -5.94873e-07      32.4107 
         650         0.12 -0.000730278 -4.00571e-06      32.4107 
         650     0.213332 -0.000989115 -1.49407e-05      32.4107 
         650     0.333332 -0.000996667 -3.82394e-05      32.4107 
         650         0.48 -0.000843444 -7.55484e-05      32.4107 
         650     0.653331 -0.000676468 -0.000124666      32.4107 
         650     0.853332  -0.00057641 -0.000181559      32.4107 
         650         1.08 -0.000526664 -0.000241839      32.4107 
         650      1.33333 -0.000459655 -0.000301197      32.4107 
         650      1.61333 -0.000348104 -0.000356327      32.4107 
         650         1.92 -0.000214618 -0.000405267      32.4107 
         650      2.25333 -7.54554e-05 -0.000446405      32.4107 
         650      2.61333  6.62449e-05 -0.000476924      32.4107 
         650            3  0.000206056 -0.000494011      32.4107 
         700            0           -0           -0      27.7825 
         700     0.013333  0.000460696 -8.41871e-08      27.7825 
         700     0.053333  0.000950139 -1.02818e-06      27.7825 
         700         0.12   0.00160265 -3.06215e-06      27.7825 
         700     0.213332   0.00216667 -3.09826e-06      27.7825 
         700     0.333332   0.00245513   4.5913e-06      27.7825 
         700         0.48   0.00247772  2.42139e-05      27.7825 
         700     0.653331   0.00237589  5.55876e-05      27.7825 
         700     0.853332   0.00226452  9.48909e-05      27.7825 
         700         1.08   0.00214728  0.000136678      27.7825 
         700      1.33333   0.00196188  0.000175942      27.7825 
         700      1.61333   0.00169699  0.000210406      27.7825 
         700         1.92   0.00140556  0.000240281      27.7825 
         700      2.25333   0.00110775   0.00026575      27.7825 
         700      2.61333   0.00079095  0.000285135      27.7825 
         700            3  0.000474619  0.000296586      27.7825 
         750            0           -0           -0       23.152 
         750     0.013333  0.000158576   1.5844e-07       23.152 
         750     0.053333 -0.000205256  2.20954e-06       23.152 
         750         0.12 -0.000732502    8.845e-06       23.152 
         750     0.213332  -0.00126469  1.99908e-05       23.152 
         750     0.333332  -0.00162702  3.16832e-05       23.152 
         750         0.48  -0.00175874  3.93145e-05       23.152 
         750     0.653331  -0.00173295  4.14871e-05       23.152 
         750     0.853332  -0.00163872  4.06671e-05       23.152 
         750         1.08   -0.0014903  4.11331e-05       23.152 
         750      1.33333  -0.00126481   4.5846e-05       23.152 
         750      1.61333  -0.00099018  5.40015e-05       23.152 
         750         1.92 -0.000727005  6.26282e-05       23.152 
         750      2.25333 -0.000475656  6.98569e-05       23.152 
         750      2.61333 -0.000206581  7.55107e-05       23.152 
         750            3  6.13848e-05  7.94122e-05       23.152 
         800            0            0            0      18.5235 
         800     0.013333  0.000341956 -2.27298e-07      18.5235 
         800     0.053333  0.000570581 -3.31568e-06      18.5235 
         800         0.12   0.00103442 -1.43178e-05      18.5235 
         800     0.213332   0.00163849 -3.60733e-05      18.5235 
         800     0.333332   0.00216436 -6.61193e-05      18.5235 
         800         0.48   0.00245629   -9.881e-05      18.5235 
         800     0.653331   0.00251691 -0.000130296      18.5235 
         800     0.853332   0.00242628 -0.000161022      18.5235 
         800         1.08    0.0022302 -0.000193933      18.5235 
         800      1.33333   0.00195216  -0.00023036      18.5235 
         800      1.61333   0.00165021 -0.000267513      18.5235 
         800         1.92   0.00137764 -0.000301226      18.5235 
         800      2.25333   0.00111554 -0.000329141      18.5235 
         800      2.61333  0.000827923  -0.00035006      18.5235 
         800            3  0.000537309 -0.000362482      18.5235 
         850            0            0            0      13.8929 
         850     0.013333   0.00037615   1.9741e-07      13.8929 
         850     0.053333  0.000561797  3.04634e-06      13.8929 
         850         0.12  0.000646889  1.43237e-05      13.8929 
         850     0.213332  0.000498345  4.01177e-05      13.8929 
         850     0.333332  0.000173505  8.28178e-05      13.8929 
         850         0.48  -0.00015196   0.00014006      13.8929 
         850     0.653331 -0.000348066   0.00020779      13.8929 
         850     0.853332 -0.000380886  0.000283639      13.8929 
         850         1.08 -0.000271924  0.000366665      13.8929 
         850      1.33333 -9.49921e-05  0.000454003      13.8929 
         850      1.61333  4.42495e-05  0.000539402      13.8929 
         850         1.92  0.000105589  0.000617142      13.8929 
         850      2.25333  0.000137755  0.000684304      13.8929 
         850      2.61333  0.000182609  0.000738154      13.8929 
         850            3   0.00022569  0.000774719      13.8929 
         900            0            0            0      9.26245 
         900     0.013333  0.000216255 -4.67227e-08      9.26245 
         900     0.053333  6.11229e-05  -7.6364e-07      9.26245 
         900         0.12 -7.49204e-05 -3.84132e-06      9.26245 
         900     0.213332 -0.000126342 -1.14006e-05      9.26245 
         900     0.333332 -0.000105116 -2.45075e-05      9.26245 
         900         0.48 -6.91278e-05 -4.24583e-05      9.26245 
         900     0.653331 -6.72709e-05  -6.3853e-05      9.26245 
         900     0.853332 -0.000114737 -8.78961e-05      9.26245 
         900         1.08 -0.000197072 -0.000113904      9.26245 
         900      1.33333 -0.000261975 -0.000139607      9.26245 
         900      1.61333 -0.000250229 -0.000161496      9.26245 
         900         1.92 -0.000176029 -0.000178173      9.26245 
         900      2.25333 -9.30292e-05 -0.000190578      9.26245 
         900      2.61333 -1.46279e-05 -0.000198937      9.26245 
         900            3  6.85705e-05 -0.000202359      9.26245 
         950            0            0            0      4.63146 
         950     0.013333  0.000332291  1.12561e-07      4.63146 
         950     0.053333  0.000425983  1.76872e-06      4.63146 
         950         0.12  0.000451486  8.52161e-06      4.63146 
         950     0.213332  0.000318113  2.44669e-05      4.63146 
         950     0.333332  5.85761e-05  5.15363e-05      4.63146 
         950         0.48 -0.000199551  8.82071e-05      4.63146 
         950     0.653331 -0.000352295  0.000131202      4.63146 
         950     0.853332 -0.000374307  0.000178039      4.63146 
         950         1.08 -0.000296905  0.000227287      4.63146 
         950      1.33333 -0.000187542  0.000276721      4.63146 
         950      1.61333 -0.000112751  0.000322962      4.63146 
         950         1.92 -7.48152e-05  0.000364093      4.63146 
         950      2.25333 -3.47725e-05  0.000399681      4.63146 
         950      2.61333   2.1991e-05  0.000428395      4.63146 
         950            3  8.40775e-05  0.000448311      4.63147 
        1000            0            0            0            0 
        1000     0.013333  0.000296258 -9.03443e-06           -0 
        1000     0.053333  0.000287464 -3.94969e-05           -0 
        1000         0.12  0.000139702 -0.000106526  3.86128e-16 
        1000     0.213332 -0.000307281 -0.000207798  4.58816e-15 
        1000     0.333332 -0.000197595 -0.000418755  2.53429e-15 
        1000         0.48  -0.00089592 -0.000588555           -0 
        1000     0.653331 -0.000853796 -0.000504053            0 
        1000     0.853332 -0.000543627  -0.00086928            0 
        1000         1.08  -0.00140335  -0.00118284            0 
        1000      1.33333  -0.00455419 -0.000948926  2.53447e-15 
        1000      1.61333  -0.00164742  0.000194084           -0 
        1000         1.92  -0.00101501 -8.65407e-05  5.10427e-15 
        1000      2.25333  -0.00118823 -0.000217566  5.44134e-15 
        1000      2.61333  -0.00165156  0.000245462           -0 
        1000            3 -0.000228473  0.000257401  5.29948e-15 
