Variables = x, y, u, v, p

Zone, I=2080, F=POINT
         -50            0            0            0       52.202 
         -50      0.00048  2.28182e-05  4.32121e-09       52.202 
         -50     0.001922  8.10376e-05  1.62156e-08       52.202 
         -50     0.004326  0.000148971  3.29246e-08       52.202 
         -50      0.00769  0.000198952  5.12968e-08       52.202 
         -50     0.012017  0.000216055   6.9284e-08       52.202 
         -50     0.017304  0.000205663  8.67737e-08       52.202 
         -50     0.023553  0.000188937  1.05441e-07       52.202 
         -50     0.030763  0.000186893  1.27456e-07       52.202 
         -50     0.038936  0.000202636  1.53924e-07       52.202 
         -50     0.048069  0.000217178  1.84258e-07       52.202 
         -50     0.058163  0.000211034  2.17658e-07       52.202 
         -50     0.069219  0.000200892  2.55837e-07       52.202 
         -50     0.081236  0.000224271  3.01683e-07       52.202 
         -50     0.094215   0.00021343  3.50285e-07       52.202 
         -50     0.108155  0.000221348  4.09161e-07       52.202 
         -50     0.123056  0.000224078  4.77114e-07       52.202 
         -50     0.138918  0.000226041  5.56225e-07       52.202 
         -50     0.155744  0.000228968  6.48631e-07       52.202 
         -50     0.173529  0.000232424  7.56436e-07       52.202 
         -50     0.192276  0.000235166  8.81803e-07       52.202 
         -50     0.211984  0.000236784  1.02692e-06       52.202 
         -50     0.232655  0.000238521  1.19402e-06       52.202 
         -50     0.254285  0.000241172  1.38521e-06       52.202 
         -50     0.276877  0.000241923  1.60261e-06      52.2019 
         -50     0.300431  0.000243371  1.84747e-06      52.2019 
         -50     0.324946  0.000244412  2.12137e-06      52.2019 
         -50     0.350424  0.000245222  2.42587e-06      52.2019 
         -50     0.376861   0.00024591   2.7618e-06      52.2019 
         -50      0.40426  0.000246527  3.12958e-06      52.2019 
         -50     0.432621  0.000247086   3.5293e-06      52.2018 
         -50     0.461945  0.000247588  3.96097e-06      52.2018 
         -50     0.492228  0.000248038  4.42455e-06      52.2018 
         -50     0.523472  0.000248467  4.92007e-06      52.2018 
         -50     0.555678  0.000248919  5.44705e-06      52.2017 
         -50     0.588845  0.000249406  6.00347e-06      52.2017 
         -50     0.622976  0.000249806  6.58411e-06      52.2017 
         -50     0.658066   0.00025022   7.1946e-06      52.2016 
         -50     0.694117  0.000250572  7.83441e-06      52.2016 
         -50      0.73113  0.000250821  8.49423e-06      52.2015 
         -50     0.769107  0.000250925  9.16808e-06      52.2015 
         -50     0.808042   0.00025084  9.85246e-06      52.2014 
         -50     0.847939  0.000250522  1.05458e-05      52.2014 
         -50     0.888797  0.000249932  1.12471e-05      52.2013 
         -50      0.93062  0.000249034   1.1955e-05      52.2013 
         -50       0.9734    0.0002478  1.26666e-05      52.2012 
         -50      1.01714  0.000246211  1.33773e-05      52.2011 
         -50      1.06185  0.000244261  1.40802e-05       52.201 
         -50      1.10751  0.000241951  1.47669e-05      52.2009 
         -50      1.15414  0.000239294  1.54303e-05      52.2009 
         -50      1.20173  0.000236309  1.60676e-05      52.2008 
         -50      1.25028  0.000233013  1.66874e-05      52.2007 
         -50      1.29979  0.000229417  1.73186e-05      52.2005 
         -50      1.35026  0.000225682  1.79068e-05      52.2004 
         -50       1.4017    0.0002217  1.84021e-05      52.2003 
         -50      1.45409  0.000217411  1.89474e-05      52.2002 
         -50      1.50745  0.000213104  1.95077e-05         52.2 
         -50      1.56176  0.000208954  2.00526e-05      52.1999 
         -50      1.61705  0.000205033  2.05568e-05      52.1997 
         -50      1.67329  0.000201336  2.10012e-05      52.1996 
         -50      1.73049  0.000197791  2.13736e-05      52.1994 
         -50      1.78865  0.000194286  2.16693e-05      52.1992 
         -50      1.84778  0.000190695  2.18912e-05      52.1991 
         -50      1.90786  0.000186902  2.20499e-05      52.1989 
         -50      1.96891  0.000182825  2.21631e-05      52.1987 
         -50      2.03092  0.000178437  2.22546e-05      52.1984 
         -50      2.09389  0.000173782  2.23526e-05      52.1982 
         -50      2.15782  0.000168988  2.24872e-05       52.198 
         -50      2.22272  0.000164264  2.26871e-05      52.1977 
         -50      2.28857  0.000159885  2.29749e-05      52.1975 
         -50      2.35539  0.000156157  2.33618e-05      52.1972 
         -50      2.42317  0.000153369  2.38401e-05      52.1969 
         -50      2.49191  0.000151706  2.43744e-05      52.1966 
         -50      2.56161  0.000151133  2.48908e-05      52.1963 
         -50      2.63226  0.000151243  2.52643e-05       52.196 
         -50      2.70389  0.000151049  2.53031e-05      52.1957 
         -50      2.77648  0.000149378  2.47298e-05      52.1954 
         -50      2.85002  0.000148105   2.3741e-05       52.195 
         -50      2.92453  0.000147242  2.26046e-05      52.1946 
         -50            3  0.000146676  2.14112e-05      52.1942 
         -25            0  1.78498e-19  1.77236e-23      50.0901 
         -25      0.00048  1.67268e-05  1.68236e-09      50.0901 
         -25     0.001922  5.94527e-05  6.22187e-09      50.0901 
         -25     0.004326  0.000109468  1.22784e-08      50.0901 
         -25      0.00769  0.000146621  1.82078e-08      50.0901 
         -25     0.012017   0.00016004  2.26776e-08      50.0901 
         -25     0.017304  0.000153643  2.50396e-08      50.0901 
         -25     0.023553   0.00014284  2.53158e-08      50.0901 
         -25     0.030763  0.000142927  2.37518e-08      50.0901 
         -25     0.038936  0.000156154  2.02561e-08      50.0901 
         -25     0.048069  0.000168669  1.42207e-08      50.0901 
         -25     0.058163  0.000166258  5.13452e-09      50.0901 
         -25     0.069219  0.000161052 -6.30174e-09      50.0901 
         -25     0.081236  0.000180352   -1.867e-08      50.0901 
         -25     0.094215  0.000174782 -3.33476e-08      50.0901 
         -25     0.108155  0.000182905 -4.65274e-08      50.0901 
         -25     0.123056  0.000187244 -5.76316e-08      50.0901 
         -25     0.138918  0.000190991 -6.45713e-08      50.0901 
         -25     0.155744  0.000195377 -6.50442e-08      50.0901 
         -25     0.173529  0.000200063 -5.66256e-08      50.0901 
         -25     0.192276   0.00020412 -3.68602e-08      50.0901 
         -25     0.211984  0.000207236 -3.33802e-09      50.0901 
         -25     0.232655  0.000210305  4.62741e-08      50.0901 
         -25     0.254285  0.000213901  1.14235e-07      50.0901 
         -25     0.276877   0.00021597  2.02666e-07      50.0901 
         -25     0.300431  0.000218406  3.12457e-07        50.09 
         -25     0.324946  0.000220409  4.45394e-07        50.09 
         -25     0.350424   0.00022211  6.02687e-07        50.09 
         -25     0.376861  0.000223592  7.84662e-07        50.09 
         -25      0.40426  0.000224897  9.91058e-07        50.09 
         -25     0.432621  0.000226034  1.22124e-06        50.09 
         -25     0.461945  0.000227001  1.47449e-06        50.09 
         -25     0.492228  0.000227798  1.75008e-06        50.09 
         -25     0.523472  0.000228439  2.04724e-06        50.09 
         -25     0.555678  0.000228944  2.36447e-06        50.09 
         -25     0.588845  0.000229306  2.69804e-06        50.09 
         -25     0.622976  0.000229419  3.04199e-06      50.0899 
         -25     0.658066  0.000229351  3.41551e-06      50.0899 
         -25     0.694117  0.000229018  3.78039e-06      50.0899 
         -25      0.73113   0.00022838  4.14863e-06      50.0899 
         -25     0.769107  0.000227403  4.52554e-06      50.0899 
         -25     0.808042  0.000226056  4.91086e-06      50.0899 
         -25     0.847939  0.000224315  5.30051e-06      50.0898 
         -25     0.888797  0.000222164  5.68829e-06      50.0898 
         -25      0.93062  0.000219601  6.06802e-06      50.0898 
         -25       0.9734  0.000216636  6.43526e-06      50.0898 
         -25      1.01714  0.000213291  6.78896e-06      50.0897 
         -25      1.06185  0.000209604  7.13187e-06      50.0897 
         -25      1.10751  0.000205623  7.46975e-06      50.0897 
         -25      1.15414  0.000201403  7.80844e-06      50.0896 
         -25      1.20173     0.000197  8.14792e-06      50.0896 
         -25      1.25028  0.000192457  8.47272e-06      50.0895 
         -25      1.29979  0.000187791  8.73709e-06      50.0895 
         -25      1.35026   0.00018312  9.05577e-06      50.0895 
         -25       1.4017  0.000178369  9.47992e-06      50.0894 
         -25      1.45409  0.000173413   9.7534e-06      50.0894 
         -25      1.50745  0.000168435  9.95392e-06      50.0893 
         -25      1.56176  0.000163575  1.01356e-05      50.0893 
         -25      1.61705  0.000158939  1.03314e-05      50.0892 
         -25      1.67329  0.000154596   1.0556e-05      50.0891 
         -25      1.73049  0.000150584  1.08096e-05      50.0891 
         -25      1.78865  0.000146916  1.10822e-05       50.089 
         -25      1.84778  0.000143583  1.13578e-05      50.0889 
         -25      1.90786   0.00014056  1.16187e-05      50.0888 
         -25      1.96891  0.000137813  1.18501e-05      50.0888 
         -25      2.03092  0.000135308   1.2043e-05      50.0887 
         -25      2.09389   0.00013301  1.21971e-05      50.0886 
         -25      2.15782  0.000130896  1.23206e-05      50.0885 
         -25      2.22272  0.000128951  1.24293e-05      50.0884 
         -25      2.28857  0.000127172  1.25412e-05      50.0883 
         -25      2.35539  0.000125566  1.26679e-05      50.0882 
         -25      2.42317  0.000124143  1.28011e-05      50.0881 
         -25      2.49191  0.000122899  1.28926e-05       50.088 
         -25      2.56161  0.000121805  1.28277e-05      50.0879 
         -25      2.63226  0.000120773  1.23892e-05      50.0877 
         -25      2.70389  0.000119622  1.12113e-05      50.0876 
         -25      2.77648   0.00011818  9.35955e-06      50.0875 
         -25      2.85002  0.000117438  1.03508e-05      50.0873 
         -25      2.92453  0.000116711  1.04176e-05      50.0872 
         -25            3  0.000115915  9.71377e-06       50.087 
           0            0  1.48654e-19  8.52448e-24       48.431 
           0      0.00048  1.39263e-05  8.19502e-10       48.431 
           0     0.001922  4.94539e-05  3.15771e-09       48.431 
           0     0.004326  9.08934e-05  6.73776e-09       48.431 
           0      0.00769  0.000121342   1.1367e-08       48.431 
           0     0.012017  0.000131673  1.72165e-08       48.431 
           0     0.017304  0.000125155  2.49663e-08       48.431 
           0     0.023553  0.000114689  3.57713e-08       48.431 
           0     0.030763  0.000113085  5.09964e-08       48.431 
           0     0.038936  0.000122223  7.19069e-08       48.431 
           0     0.048069  0.000130495  9.95041e-08       48.431 
           0     0.058163  0.000125998   1.3478e-07       48.431 
           0     0.069219  0.000118919  1.79183e-07       48.431 
           0     0.081236  0.000132169  2.34307e-07       48.431 
           0     0.094215  0.000124402  3.00179e-07       48.431 
           0     0.108155  0.000127982  3.78987e-07       48.431 
           0     0.123056  0.000128313  4.71113e-07       48.431 
           0     0.138918  0.000128122  5.77343e-07       48.431 
           0     0.155744  0.000128495  6.98264e-07       48.431 
           0     0.173529  0.000129199  8.34189e-07       48.431 
           0     0.192276  0.000129502  9.85297e-07       48.431 
           0     0.211984  0.000129184  1.15159e-06       48.431 
           0     0.232655  0.000129026  1.33296e-06       48.431 
           0     0.254285  0.000129533  1.52911e-06       48.431 
           0     0.276877  0.000128997  1.73963e-06       48.431 
           0     0.300431  0.000129014  1.96436e-06       48.431 
           0     0.324946   0.00012891  2.20277e-06       48.431 
           0     0.350424  0.000128791  2.45438e-06       48.431 
           0     0.376861  0.000128715  2.71876e-06       48.431 
           0      0.40426  0.000128706  2.99562e-06       48.431 
           0     0.432621  0.000128764  3.28463e-06       48.431 
           0     0.461945  0.000128876  3.58544e-06       48.431 
           0     0.492228  0.000129038  3.89748e-06       48.431 
           0     0.523472   0.00012926  4.22013e-06       48.431 
           0     0.555678  0.000129561  4.55263e-06       48.431 
           0     0.588845  0.000129943  4.89429e-06       48.431 
           0     0.622976  0.000130328   5.2448e-06       48.431 
           0     0.658066  0.000130776  5.60128e-06       48.431 
           0     0.694117  0.000131226  5.96261e-06       48.431 
           0      0.73113  0.000131655  6.32726e-06       48.431 
           0     0.769107  0.000132033  6.69332e-06      48.4309 
           0     0.808042  0.000132332  7.05847e-06      48.4309 
           0     0.847939  0.000132521  7.42032e-06      48.4309 
           0     0.888797  0.000132573  7.77632e-06      48.4309 
           0      0.93062  0.000132464  8.12406e-06      48.4309 
           0       0.9734  0.000132177  8.46125e-06      48.4309 
           0      1.01714  0.000131698  8.78604e-06      48.4309 
           0      1.06185  0.000131025  9.09698e-06      48.4309 
           0      1.10751  0.000130159  9.39312e-06      48.4308 
           0      1.15414  0.000129108  9.67391e-06      48.4308 
           0      1.20173  0.000127877  9.93902e-06      48.4308 
           0      1.25028  0.000126466   1.0188e-05      48.4308 
           0      1.29979  0.000124855  1.04198e-05      48.4308 
           0      1.35026  0.000123021  1.06345e-05      48.4307 
           0       1.4017  0.000121119  1.08373e-05      48.4307 
           0      1.45409  0.000119151  1.10219e-05      48.4307 
           0      1.50745  0.000117103  1.11845e-05      48.4307 
           0      1.56176  0.000114978  1.13232e-05      48.4306 
           0      1.61705  0.000112793  1.14372e-05      48.4306 
           0      1.67329  0.000110574  1.15275e-05      48.4306 
           0      1.73049  0.000108357  1.15955e-05      48.4306 
           0      1.78865   0.00010618  1.16435e-05      48.4305 
           0      1.84778  0.000104083  1.16737e-05      48.4305 
           0      1.90786  0.000102103  1.16877e-05      48.4305 
           0      1.96891  0.000100267  1.16863e-05      48.4304 
           0      2.03092  9.85911e-05  1.16686e-05      48.4304 
           0      2.09389  9.70786e-05  1.16317e-05      48.4303 
           0      2.15782  9.57152e-05  1.15699e-05      48.4303 
           0      2.22272  9.44688e-05  1.14748e-05      48.4302 
           0      2.28857  9.32909e-05  1.13344e-05      48.4302 
           0      2.35539  9.21198e-05  1.11332e-05      48.4301 
           0      2.42317  9.08861e-05  1.08524e-05      48.4301 
           0      2.49191  8.95233e-05  1.04699e-05        48.43 
           0      2.56161  8.79814e-05  9.96117e-06        48.43 
           0      2.63226  8.62462e-05  9.30013e-06      48.4299 
           0      2.70389  8.43654e-05  8.46076e-06      48.4299 
           0      2.77648  8.25348e-05  7.71003e-06      48.4298 
           0      2.85002  8.10834e-05  7.33863e-06      48.4297 
           0      2.92453  8.01542e-05  7.06978e-06      48.4297 
           0            3  7.98466e-05  7.06905e-06      48.4296 
          20            0  1.34154e-19  5.09717e-24      47.2624 
          20      0.00048  1.25598e-05  4.92027e-10      47.2624 
          20     0.001922  4.45072e-05  1.91963e-09      47.2624 
          20     0.004326    8.146e-05   4.1821e-09      47.2624 
          20      0.00769  0.000107933  7.25408e-09      47.2624 
          20     0.012017  0.000115581  1.13274e-08      47.2624 
          20     0.017304  0.000107443  1.68631e-08      47.2624 
          20     0.023553   9.5399e-05  2.45337e-08      47.2624 
          20     0.030763  9.12574e-05  3.50223e-08      47.2624 
          20     0.038936  9.68011e-05  4.87995e-08      47.2624 
          20     0.048069  0.000101445  6.59899e-08      47.2624 
          20     0.058163  9.43335e-05  8.65028e-08      47.2624 
          20     0.069219  8.48804e-05  1.10295e-07      47.2624 
          20     0.081236  9.41721e-05  1.37186e-07      47.2624 
          20     0.094215  8.43314e-05  1.65844e-07      47.2624 
          20     0.108155  8.51112e-05  1.96082e-07      47.2624 
          20     0.123056  8.31647e-05   2.2646e-07      47.2624 
          20     0.138918   8.1033e-05  2.55706e-07      47.2624 
          20     0.155744  7.97395e-05  2.82419e-07      47.2624 
          20     0.173529   7.9087e-05  3.05106e-07      47.2624 
          20     0.192276  7.84086e-05  3.22268e-07      47.2624 
          20     0.211984  7.74933e-05  3.32452e-07      47.2624 
          20     0.232655  7.70393e-05  3.34336e-07      47.2624 
          20     0.254285  7.74833e-05  3.26832e-07      47.2624 
          20     0.276877  7.72238e-05  3.09204e-07      47.2624 
          20     0.300431  7.76829e-05  2.80453e-07      47.2624 
          20     0.324946  7.82009e-05  2.40317e-07      47.2624 
          20     0.350424  7.88288e-05  1.88871e-07      47.2624 
          20     0.376861  7.95783e-05  1.26314e-07      47.2624 
          20      0.40426  8.04305e-05   5.2983e-08      47.2623 
          20     0.432621  8.13477e-05 -3.05776e-08      47.2623 
          20     0.461945  8.22896e-05 -1.23595e-07      47.2623 
          20     0.492228  8.32279e-05 -2.25058e-07      47.2623 
          20     0.523472  8.41556e-05 -3.33834e-07      47.2623 
          20     0.555678  8.50831e-05 -4.48848e-07      47.2623 
          20     0.588845  8.60105e-05 -5.69452e-07      47.2623 
          20     0.622976  8.68707e-05 -6.95609e-07      47.2623 
          20     0.658066  8.77331e-05  -8.2188e-07      47.2623 
          20     0.694117  8.85644e-05 -9.53607e-07      47.2623 
          20      0.73113  8.93668e-05 -1.08764e-06      47.2623 
          20     0.769107   9.0142e-05 -1.22213e-06      47.2623 
          20     0.808042  9.08915e-05  -1.3563e-06      47.2623 
          20     0.847939  9.16167e-05 -1.49022e-06      47.2623 
          20     0.888797  9.23189e-05 -1.62439e-06      47.2623 
          20      0.93062  9.29994e-05 -1.75941e-06      47.2623 
          20       0.9734  9.36594e-05 -1.89556e-06      47.2623 
          20      1.01714  9.43004e-05 -2.03256e-06      47.2623 
          20      1.06185  9.49243e-05 -2.16937e-06      47.2623 
          20      1.10751  9.55338e-05 -2.30428e-06      47.2622 
          20      1.15414  9.61325e-05 -2.43542e-06      47.2622 
          20      1.20173  9.67247e-05 -2.56167e-06      47.2622 
          20      1.25028  9.73164e-05  -2.6844e-06      47.2622 
          20      1.29979   9.7915e-05 -2.80999e-06      47.2622 
          20      1.35026  9.84355e-05 -2.94126e-06      47.2622 
          20       1.4017  9.89193e-05 -3.06052e-06      47.2622 
          20      1.45409  9.94408e-05 -3.17841e-06      47.2622 
          20      1.50745  9.98804e-05  -3.2958e-06      47.2621 
          20      1.56176  0.000100149 -3.41286e-06      47.2621 
          20      1.61705  0.000100186 -3.52912e-06      47.2621 
          20      1.67329  9.99626e-05 -3.64344e-06      47.2621 
          20      1.73049  9.94738e-05 -3.75418e-06      47.2621 
          20      1.78865  9.87405e-05 -3.85927e-06      47.2621 
          20      1.84778  9.78037e-05 -3.95633e-06       47.262 
          20      1.90786  9.67206e-05 -4.04282e-06       47.262 
          20      1.96891  9.55592e-05 -4.11635e-06       47.262 
          20      2.03092  9.43927e-05 -4.17481e-06       47.262 
          20      2.09389  9.32934e-05 -4.21671e-06      47.2619 
          20      2.15782  9.23262e-05 -4.24148e-06      47.2619 
          20      2.22272  9.15421e-05 -4.24982e-06      47.2619 
          20      2.28857   9.0972e-05 -4.24412e-06      47.2619 
          20      2.35539  9.06214e-05 -4.22886e-06      47.2618 
          20      2.42317  9.04656e-05 -4.21107e-06      47.2618 
          20      2.49191  9.04471e-05 -4.20088e-06      47.2618 
          20      2.56161  9.04744e-05 -4.21196e-06      47.2617 
          20      2.63226   9.0424e-05 -4.26216e-06      47.2617 
          20      2.70389  9.01456e-05 -4.37402e-06      47.2617 
          20      2.77648  8.95684e-05 -4.56566e-06      47.2616 
          20      2.85002   8.9051e-05 -4.51889e-06      47.2616 
          20      2.92453  8.87046e-05 -4.15572e-06      47.2615 
          20            3   8.8424e-05   -3.859e-06      47.2615 
          40            0  1.25713e-19  3.15555e-24       46.173 
          40      0.00048   1.1765e-05  3.20422e-10       46.173 
          40     0.001922  4.16384e-05  1.44094e-09       46.173 
          40     0.004326   7.6017e-05  3.85926e-09       46.173 
          40      0.00769   0.00010025  8.46443e-09       46.173 
          40     0.012017  0.000106432  1.65906e-08       46.173 
          40     0.017304  9.74175e-05  2.99853e-08       46.173 
          40     0.023553  8.44186e-05  5.07202e-08       46.173 
          40     0.030763  7.85807e-05   8.0978e-08       46.173 
          40     0.038936   8.1578e-05  1.22845e-07       46.173 
          40     0.048069  8.34013e-05  1.78109e-07       46.173 
          40     0.058163  7.37937e-05  2.48284e-07       46.173 
          40     0.069219  6.16665e-05  3.34676e-07       46.173 
          40     0.081236  6.69749e-05  4.38178e-07       46.173 
          40     0.094215  5.39468e-05  5.58605e-07       46.173 
          40     0.108155   5.0749e-05  6.96026e-07       46.173 
          40     0.123056  4.48139e-05  8.49299e-07       46.173 
          40     0.138918  3.85992e-05  1.01693e-06       46.173 
          40     0.155744  3.31308e-05  1.19691e-06       46.173 
          40     0.173529  2.82842e-05   1.3867e-06       46.173 
          40     0.192276  2.34877e-05  1.58349e-06       46.173 
          40     0.211984   1.8598e-05   1.7842e-06       46.173 
          40     0.232655  1.43247e-05  1.98568e-06       46.173 
          40     0.254285  1.11234e-05  2.18476e-06       46.173 
          40     0.276877  7.51239e-06  2.37849e-06       46.173 
          40     0.300431  4.86032e-06  2.56398e-06       46.173 
          40     0.324946  2.55672e-06  2.73889e-06       46.173 
          40     0.350424  6.54252e-07  2.90129e-06       46.173 
          40     0.376861 -8.38114e-07  3.04968e-06       46.173 
          40      0.40426 -1.94721e-06  3.18304e-06       46.173 
          40     0.432621 -2.72124e-06  3.30087e-06       46.173 
          40     0.461945 -3.21333e-06  3.40321e-06       46.173 
          40     0.492228   -3.465e-06  3.49058e-06       46.173 
          40     0.523472 -3.49539e-06  3.56394e-06       46.173 
          40     0.555678 -3.30298e-06  3.62454e-06       46.173 
          40     0.588845 -2.89058e-06  3.67379e-06       46.173 
          40     0.622976 -2.31971e-06  3.71301e-06      46.1729 
          40     0.658066 -1.51824e-06   3.7456e-06      46.1729 
          40     0.694117 -5.14716e-07  3.77396e-06      46.1729 
          40      0.73113  7.12221e-07  3.79919e-06      46.1729 
          40     0.769107  2.17843e-06  3.82267e-06      46.1729 
          40     0.808042  3.89305e-06  3.84583e-06      46.1729 
          40     0.847939   5.8586e-06  3.87002e-06      46.1729 
          40     0.888797     8.07e-06  3.89637e-06      46.1729 
          40      0.93062   1.0515e-05  3.92557e-06      46.1729 
          40       0.9734  1.31736e-05   3.9578e-06      46.1729 
          40      1.01714  1.60206e-05  3.99258e-06      46.1729 
          40      1.06185  1.90259e-05  4.02884e-06      46.1729 
          40      1.10751  2.21577e-05  4.06499e-06      46.1729 
          40      1.15414  2.53857e-05  4.09928e-06      46.1729 
          40      1.20173  2.86852e-05  4.13031e-06      46.1729 
          40      1.25028  3.20441e-05  4.15791e-06      46.1729 
          40      1.29979  3.54699e-05  4.18438e-06      46.1729 
          40      1.35026  3.89706e-05    4.208e-06      46.1729 
          40       1.4017  4.27833e-05  4.20727e-06      46.1729 
          40      1.45409  4.69403e-05  4.19538e-06      46.1728 
          40      1.50745  5.13157e-05  4.18129e-06      46.1728 
          40      1.56176  5.58021e-05  4.17009e-06      46.1728 
          40      1.61705  6.03119e-05  4.16358e-06      46.1728 
          40      1.67329   6.4776e-05  4.16093e-06      46.1728 
          40      1.73049  6.91464e-05   4.1594e-06      46.1728 
          40      1.78865  7.33934e-05  4.15523e-06      46.1728 
          40      1.84778   7.7505e-05   4.1445e-06      46.1728 
          40      1.90786  8.14837e-05   4.1239e-06      46.1728 
          40      1.96891  8.53455e-05  4.09158e-06      46.1727 
          40      2.03092   8.9115e-05  4.04765e-06      46.1727 
          40      2.09389   9.2822e-05  3.99455e-06      46.1727 
          40      2.15782   9.6495e-05  3.93702e-06      46.1727 
          40      2.22272  0.000100158   3.8815e-06      46.1727 
          40      2.28857  0.000103822  3.83502e-06      46.1727 
          40      2.35539  0.000107479  3.80316e-06      46.1726 
          40      2.42317  0.000111095  3.78708e-06      46.1726 
          40      2.49191    0.0001146   3.7793e-06      46.1726 
          40      2.56161  0.000117883    3.758e-06      46.1726 
          40      2.63226  0.000120782  3.67961e-06      46.1726 
          40      2.70389  0.000123075  3.46929e-06      46.1725 
          40      2.77648  0.000124581  3.27542e-06      46.1725 
          40      2.85002  0.000125495  3.13116e-06      46.1725 
          40      2.92453   0.00012585  2.68893e-06      46.1725 
          40            3  0.000125744  2.08855e-06      46.1724 
          60            0            0            0      45.1325 
          60      0.00048  1.16604e-05  2.21092e-10      45.1325 
          60     0.001922  4.14087e-05  1.20749e-09      45.1325 
          60     0.004326  7.61074e-05  3.93987e-09      45.1325 
          60      0.00769  0.000101591  1.00818e-08      45.1325 
          60     0.012017   0.00011018  2.20093e-08      45.1325 
          60     0.017304  0.000104549  4.27607e-08      45.1325 
          60     0.023553  9.54147e-05   7.5969e-08      45.1325 
          60     0.030763  9.34198e-05  1.25674e-07      45.1325 
          60     0.038936  0.000100072  1.96163e-07      45.1325 
          60     0.048069  0.000105616  2.91734e-07      45.1325 
          60     0.058163  0.000100057  4.16685e-07      45.1325 
          60     0.069219  9.18808e-05   5.7525e-07      45.1325 
          60     0.081236  0.000100226  7.71346e-07      45.1325 
          60     0.094215  9.05335e-05  1.00809e-06      45.1325 
          60     0.108155  8.98836e-05  1.28849e-06      45.1325 
          60     0.123056  8.61146e-05  1.61448e-06      45.1325 
          60     0.138918  8.15644e-05  1.98731e-06      45.1325 
          60     0.155744  7.72099e-05  2.40756e-06      45.1325 
          60     0.173529  7.29374e-05  2.87476e-06      45.1325 
          60     0.192276  6.82195e-05  3.38792e-06      45.1325 
          60     0.211984  6.29572e-05  3.94529e-06      45.1325 
          60     0.232655  5.78856e-05  4.54468e-06      45.1325 
          60     0.254285  5.35052e-05  5.18337e-06      45.1325 
          60     0.276877  4.84559e-05  5.85861e-06      45.1325 
          60     0.300431  4.41291e-05  6.56736e-06      45.1325 
          60     0.324946  4.00089e-05  7.30682e-06      45.1325 
          60     0.350424  3.62175e-05  8.07445e-06      45.1325 
          60     0.376861  3.28324e-05  8.86776e-06      45.1325 
          60      0.40426  2.98909e-05  9.68479e-06      45.1325 
          60     0.432621  2.74028e-05  1.05239e-05      45.1325 
          60     0.461945   2.5365e-05   1.1384e-05      45.1325 
          60     0.492228  2.37765e-05   1.2264e-05      45.1325 
          60     0.523472  2.26477e-05  1.31636e-05      45.1325 
          60     0.555678  2.19984e-05  1.40825e-05      45.1325 
          60     0.588845  2.18328e-05  1.50201e-05      45.1325 
          60     0.622976  2.20843e-05  1.59753e-05      45.1325 
          60     0.658066  2.27982e-05  1.69483e-05      45.1325 
          60     0.694117  2.39225e-05  1.79379e-05      45.1325 
          60      0.73113  2.54275e-05  1.89418e-05      45.1325 
          60     0.769107  2.72716e-05  1.99574e-05      45.1325 
          60     0.808042  2.94021e-05  2.09816e-05      45.1325 
          60     0.847939  3.17585e-05  2.20109e-05      45.1325 
          60     0.888797   3.4275e-05  2.30413e-05      45.1325 
          60      0.93062  3.68833e-05  2.40686e-05      45.1325 
          60       0.9734  3.95158e-05   2.5088e-05      45.1325 
          60      1.01714  4.21101e-05  2.60949e-05      45.1325 
          60      1.06185  4.46103e-05  2.70847e-05      45.1325 
          60      1.10751  4.69704e-05  2.80526e-05      45.1325 
          60      1.15414   4.9154e-05  2.89945e-05      45.1325 
          60      1.20173   5.1133e-05  2.99067e-05      45.1325 
          60      1.25028   5.2884e-05  3.07865e-05      45.1325 
          60      1.29979  5.43793e-05  3.16322e-05      45.1325 