Variables = x, y, u, v, p

Zone, I=416, F=POINT
         -50            0            0            0      16.7822 
         -50     0.013333   0.00014864  3.53065e-08      16.7822 
         -50     0.053333  0.000129889  1.13748e-07      16.7822 
         -50         0.12  0.000119923  1.91146e-07      16.7822 
         -50     0.213332  0.000119463   1.5149e-07      16.7822 
         -50     0.333332  0.000125713 -1.64695e-07      16.7822 
         -50         0.48  0.000134066 -8.63486e-07      16.7822 
         -50     0.653331  0.000139561 -1.95208e-06      16.7821 
         -50     0.853332  0.000139146 -3.39028e-06       16.782 
         -50         1.08   0.00013422 -4.98929e-06      16.7819 
         -50      1.33333  0.000128517 -6.35037e-06      16.7817 
         -50      1.61333  0.000123804 -7.04223e-06      16.7815 
         -50         1.92  0.000120623 -7.32031e-06      16.7812 
         -50      2.25333   0.00011237 -7.10832e-06      16.7808 
         -50      2.61333  0.000112485 -3.33823e-06      16.7804 
         -50            3  0.000117721  3.21285e-06      16.7798 
         -25            0  1.17458e-19  5.29276e-24      16.1102 
         -25     0.013333  0.000104887 -2.40654e-09      16.1102 
         -25     0.053333  8.59943e-05 -2.05765e-07      16.1102 
         -25         0.12  8.06192e-05  -1.0701e-06      16.1102 
         -25     0.213332  8.87552e-05 -2.96897e-06      16.1102 
         -25     0.333332  9.92697e-05 -5.85917e-06      16.1101 
         -25         0.48  0.000103468  -9.4186e-06      16.1101 
         -25     0.653331  0.000100361   -1.334e-05      16.1101 
         -25     0.853332  9.45168e-05 -1.72461e-05      16.1101 
         -25         1.08  9.13883e-05 -2.06348e-05        16.11 
         -25      1.33333  9.12182e-05 -2.30592e-05        16.11 
         -25      1.61333  8.97575e-05 -2.44348e-05      16.1099 
         -25         1.92  8.67284e-05 -2.42642e-05      16.1098 
         -25      2.25333  7.28098e-05 -2.39606e-05      16.1096 
         -25      2.61333  5.80609e-05 -2.05897e-05      16.1094 
         -25            3  6.37321e-05  -1.1039e-05      16.1092 
           0            0  1.02239e-19  2.55562e-24      15.5813 
           0     0.013333  9.74913e-05 -2.72904e-10      15.5813 
           0     0.053333   0.00010417 -6.85243e-08      15.5813 
           0         0.12   0.00012169 -2.81259e-07      15.5813 
           0     0.213332    0.0001412 -5.65544e-07      15.5813 
           0     0.333332  0.000155491 -7.27731e-07      15.5813 
           0         0.48  0.000163465 -6.22777e-07      15.5813 
           0     0.653331  0.000165423 -3.05815e-07      15.5812 
           0     0.853332  0.000158393 -7.59076e-08      15.5812 
           0         1.08  0.000141614 -1.90411e-07      15.5812 
           0      1.33333  0.000122019 -4.98322e-07      15.5812 
           0      1.61333  0.000101832  -7.1527e-07      15.5811 
           0         1.92  8.56503e-05 -1.04011e-06      15.5811 
           0      2.25333  7.05139e-05 -1.38024e-06       15.581 
           0      2.61333  5.65159e-05 -2.36741e-06      15.5809 
           0            3  4.83279e-05 -5.18365e-06      15.5808 
          20            0  9.01506e-20  1.53036e-24      15.2085 
          20     0.013333   7.9821e-05  4.43856e-11      15.2085 
          20     0.053333    6.096e-05 -5.32813e-08      15.2085 
          20         0.12  4.77064e-05 -3.18801e-07      15.2085 
          20     0.213332  4.40084e-05 -1.01467e-06      15.2085 
          20     0.333332  4.75778e-05 -2.30253e-06      15.2085 
          20         0.48  5.28537e-05 -4.23621e-06      15.2085 
          20     0.653331  5.49806e-05 -6.76395e-06      15.2085 
          20     0.853332  5.38172e-05 -9.66927e-06      15.2084 
          20         1.08  5.32521e-05 -1.25872e-05      15.2084 
          20      1.33333  5.52954e-05 -1.51597e-05      15.2084 
          20      1.61333  5.80559e-05 -1.71985e-05      15.2084 
          20         1.92  6.34854e-05 -1.81457e-05      15.2083 
          20      2.25333  6.88041e-05 -1.83757e-05      15.2083 
          20      2.61333  7.46033e-05 -1.69189e-05      15.2083 
          20            3  8.39745e-05  -1.4239e-05      15.2082 
          40            0  8.95133e-20  9.47392e-25      14.8609 
          40     0.013333  8.66003e-05 -3.89047e-09      14.8609 
          40     0.053333  9.69587e-05 -7.24433e-08      14.8609 
          40         0.12  0.000115351 -2.39198e-07      14.8609 
          40     0.213332  0.000128763 -2.87404e-07      14.8609 
          40     0.333332  0.000128961  2.12575e-07      14.8609 
          40         0.48   0.00012009  1.57435e-06      14.8609 
          40     0.653331  0.000111194  3.80495e-06      14.8609 
          40     0.853332  0.000106098  6.68982e-06      14.8609 
          40         1.08  0.000101596  9.91543e-06      14.8609 
          40      1.33333  9.28397e-05  1.30996e-05      14.8609 
          40      1.61333  8.03918e-05  1.59442e-05      14.8609 
          40         1.92  6.56568e-05  1.79391e-05      14.8609 
          40      2.25333  4.89026e-05  1.91431e-05      14.8608 
          40      2.61333     3.87e-05  2.01102e-05      14.8608 
          40            3  4.35459e-05  2.28491e-05      14.8608 
          60            0            0            0       14.529 
          60     0.013333  7.80107e-05 -3.11816e-08       14.529 
          60     0.053333  8.16825e-05 -4.75605e-07       14.529 
          60         0.12  0.000111029 -2.07989e-06       14.529 
          60     0.213332  0.000159613 -5.29217e-06       14.529 
          60     0.333332  0.000206759 -9.85978e-06       14.529 
          60         0.48  0.000237875 -1.52043e-05       14.529 
          60     0.653331  0.000248632 -2.10374e-05       14.529 
          60     0.853332  0.000237985 -2.73671e-05       14.529 
          60         1.08  0.000211436 -3.38866e-05       14.529 
          60      1.33333  0.000180946 -3.98165e-05       14.529 
          60      1.61333  0.000140938 -4.42895e-05       14.529 
          60         1.92  0.000100627 -4.68748e-05      14.5289 
          60      2.25333  6.67046e-05 -4.72493e-05      14.5289 
          60      2.61333  3.59856e-05  -4.5759e-05      14.5289 
          60            3  2.26046e-05 -4.25088e-05      14.5289 
          80            0            0            0      14.2067 
          80     0.013333  5.83615e-05  3.48716e-09      14.2067 
          80     0.053333  7.06517e-06  1.85464e-08      14.2067 
          80         0.12 -4.97231e-05  -7.1341e-08      14.2067 
          80     0.213332 -9.24139e-05 -6.73782e-07      14.2067 
          80     0.333332 -0.000112322 -2.37514e-06      14.2067 
          80         0.48 -0.000115642 -5.61798e-06      14.2067 
          80     0.653331 -0.000114192 -1.04565e-05      14.2067 
          80     0.853332 -0.000110478 -1.64275e-05      14.2067 
          80         1.08 -9.50727e-05 -2.25956e-05      14.2067 
          80      1.33333 -6.31683e-05 -2.81558e-05      14.2067 
          80      1.61333 -2.27932e-05 -3.27515e-05      14.2067 
          80         1.92  1.66196e-05 -3.57319e-05      14.2067 
          80      2.25333  5.06589e-05 -3.70704e-05      14.2067 
          80      2.61333  8.27593e-05 -3.64094e-05      14.2067 
          80            3  0.000102919 -3.42893e-05      14.2067 
         100            0  8.58459e-20  2.43272e-25      13.8909 
         100     0.013333  8.70411e-05  2.63063e-08      13.8909 
         100     0.053333  0.000106067  4.06726e-07      13.8909 
         100         0.12  0.000115591  1.94488e-06      13.8909 
         100     0.213332  0.000100446  5.49688e-06      13.8909 
         100     0.333332    6.971e-05  1.13639e-05      13.8909 
         100         0.48  4.34074e-05  1.92278e-05      13.8909 
         100     0.653331  3.39845e-05  2.85914e-05      13.8909 
         100     0.853332  4.07532e-05  3.89029e-05      13.8909 
         100         1.08  5.24642e-05    4.933e-05      13.8909 
         100      1.33333  5.72703e-05   5.8937e-05      13.8909 
         100      1.61333  6.28879e-05  6.67536e-05      13.8909 
         100         1.92  6.70615e-05  7.17847e-05      13.8908 
         100      2.25333  6.73366e-05  7.37321e-05      13.8908 
         100      2.61333  6.52591e-05  7.22136e-05      13.8908 
         100            3  5.24251e-05  6.76873e-05      13.8908 
         150            0           -0           -0      13.1154 
         150     0.013333  3.97384e-05 -3.31018e-09      13.1154 
         150     0.053333 -4.72049e-05 -1.27766e-07      13.1154 
         150         0.12  -0.00012988 -1.05151e-06      13.1154 
         150     0.213332 -0.000164911 -4.16824e-06      13.1154 
         150     0.333332 -0.000149305 -1.06748e-05      13.1154 
         150         0.48 -0.000114737 -2.06187e-05      13.1154 
         150     0.653331   -8.972e-05 -3.30456e-05      13.1154 
         150     0.853332 -7.59847e-05 -4.65299e-05      13.1154 
         150         1.08 -5.77747e-05 -5.95421e-05      13.1154 
         150      1.33333 -2.71737e-05 -7.11713e-05      13.1154 
         150      1.61333  6.72014e-06  -8.0882e-05      13.1154 
         150         1.92  4.03975e-05 -8.73545e-05      13.1154 
         150      2.25333  7.00471e-05 -9.04113e-05      13.1154 
         150      2.61333  9.35652e-05  -8.9596e-05      13.1154 
         150            3  0.000108641 -8.53774e-05      13.1154 
         200            0           -0           -0      12.3486 
         200     0.013333  4.69078e-05 -2.70987e-09      12.3486 
         200     0.053333 -2.33836e-05 -8.11786e-08      12.3486 
         200         0.12 -9.71212e-05 -6.12309e-07      12.3486 
         200     0.213332 -0.000145338  -2.3438e-06      12.3486 
         200     0.333332 -0.000161363 -5.96278e-06      12.3486 
         200         0.48 -0.000159273 -1.16745e-05      12.3486 
         200     0.653331 -0.000156081 -1.92219e-05      12.3486 
         200     0.853332 -0.000155631 -2.79401e-05      12.3486 
         200         1.08 -0.000145608 -3.66821e-05      12.3486 
         200      1.33333 -0.000114932 -4.43884e-05      12.3486 
         200      1.61333 -7.12993e-05 -5.06283e-05      12.3486 
         200         1.92 -2.28122e-05 -5.47567e-05      12.3486 
         200      2.25333  2.62366e-05 -5.67517e-05      12.3486 
         200      2.61333  7.38903e-05 -5.63243e-05      12.3486 
         200            3  0.000106102 -5.38297e-05      12.3486 
         250            0            0            0       11.584 
         250     0.013333  9.56731e-05 -6.13967e-09       11.584 
         250     0.053333  0.000150021 -4.68648e-08       11.584 
         250         0.12   0.00021726  8.41819e-08       11.584 
         250     0.213332  0.000262876  1.12726e-06       11.584 
         250     0.333332  0.000272249  3.97668e-06       11.584 
         250         0.48  0.000258811  8.96217e-06       11.584 
         250     0.653331  0.000242568  1.56678e-05       11.584 
         250     0.853332  0.000229228  2.32609e-05       11.584 
         250         1.08  0.000211484   3.0871e-05       11.584 
         250      1.33333  0.000183932  3.79893e-05       11.584 
         250      1.61333  0.000150281   4.4328e-05       11.584 
         250         1.92  0.000114144  4.92391e-05       11.584 
         250      2.25333  7.80406e-05  5.24774e-05       11.584 
         250      2.61333  4.42032e-05  5.37229e-05       11.584 
         250            3  2.29722e-05  5.30919e-05       11.584 
         300            0           -0           -0      10.8192 
         300     0.013333  9.63639e-05 -2.45333e-08      10.8192 
         300     0.053333  0.000157488 -3.15535e-07      10.8192 
         300         0.12  0.000244055 -1.08321e-06      10.8192 
         300     0.213332    0.0003187 -1.86064e-06      10.8192 
         300     0.333332  0.000355529 -1.66836e-06      10.8192 
         300         0.48  0.000359402  1.27264e-07      10.8192 
         300     0.653331  0.000349738  3.33418e-06      10.8192 
         300     0.853332  0.000334325  7.11172e-06      10.8192 
         300         1.08  0.000305773  1.04578e-05      10.8192 
         300      1.33333  0.000261715  1.30005e-05      10.8192 
         300      1.61333  0.000209305  1.50695e-05      10.8192 
         300         1.92  0.000154807  1.66093e-05      10.8192 
         300      2.25333  0.000101838  1.76354e-05      10.8192 
         300      2.61333  5.11301e-05  1.80755e-05      10.8192 
         300            3  1.72103e-05  1.77999e-05      10.8192 
         350            0  8.41006e-20 -7.20411e-27      10.0537 
         350     0.013333  8.79742e-05  -3.5291e-08      10.0537 
         350     0.053333  0.000131067  -4.9489e-07      10.0537 
         350         0.12  0.000205153  -1.9937e-06      10.0537 
         350     0.213332   0.00028093 -4.53188e-06      10.0537 
         350     0.333332  0.000324957 -7.24296e-06      10.0537 
         350         0.48  0.000329303 -9.16459e-06      10.0537 
         350     0.653331  0.000309257 -1.00698e-05      10.0537 
         350     0.853332  0.000279084 -1.04362e-05      10.0537 
         350         1.08  0.000243176 -1.07788e-05      10.0537 
         350      1.33333  0.000205688 -1.10642e-05      10.0537 
         350      1.61333  0.000167652  -1.0925e-05      10.0537 
         350         1.92  0.000129177 -1.03817e-05      10.0537 
         350      2.25333  9.04825e-05  -9.4326e-06      10.0537 
         350      2.61333  4.86306e-05 -8.20265e-06      10.0537 
         350            3  1.22406e-05 -6.77787e-06      10.0537 
         400            0           -0           -0      9.28727 
         400     0.013333  4.62145e-06 -2.11792e-08      9.28727 
         400     0.053333 -0.000167279 -4.14673e-07      9.28727 
         400         0.12 -0.000340598 -2.50928e-06      9.28727 
         400     0.213332 -0.000426777 -8.68386e-06      9.28727 
         400     0.333332 -0.000405796 -2.10827e-05      9.28727 
         400         0.48 -0.000328262 -4.01589e-05      9.28727 
         400     0.653331 -0.000257493 -6.47414e-05      9.28727 
         400     0.853332 -0.000220996  -9.3019e-05      9.28727 
         400         1.08 -0.000203956 -0.000122878      9.28727 
         400      1.33333 -0.000172736  -0.00015203      9.28727 
         400      1.61333 -0.000124426 -0.000178554      9.28727 
         400         1.92 -6.92034e-05 -0.000200774      9.28727 
         400      2.25333  -1.1211e-05 -0.000217509      9.28728 
         400      2.61333  4.43966e-05 -0.000227218      9.28728 
         400            3   9.4287e-05 -0.000228879      9.28729 
         450            0           -0           -0      8.52015 
         450     0.013333  0.000139332  5.88388e-08      8.52015 
         450     0.053333  0.000288401  9.63193e-07      8.52015 
         450         0.12  0.000423906  4.87126e-06      8.52015 
         450     0.213332   0.00045995  1.46342e-05      8.52015 
         450     0.333332  0.000395199  3.20821e-05      8.52015 
         450         0.48  0.000295209  5.69779e-05      8.52015 
         450     0.653331  0.000223706  8.77903e-05      8.52015 
         450     0.853332  0.000203683  0.000122866      8.52015 
         450         1.08  0.000216971  0.000160318      8.52015 
         450      1.33333  0.000220224  0.000197516      8.52015 
         450      1.61333   0.00020058  0.000231702      8.52015 
         450         1.92  0.000167488  0.000260727      8.52014 
         450      2.25333  0.000128616  0.000283048      8.52014 
         450      2.61333  9.21984e-05  0.000296745      8.52014 
         450            3   5.4489e-05  0.000300411      8.52014 
         500            0           -0           -0      7.75147 
         500     0.013333  4.24646e-05 -3.41584e-08      7.75147 
         500     0.053333 -3.14078e-05 -5.35025e-07      7.75147 
         500         0.12 -9.18576e-05 -2.56675e-06      7.75147 
         500     0.213332 -0.000106015 -7.34895e-06      7.75147 
         500     0.333332 -7.83255e-05 -1.55353e-05      7.75147 
         500         0.48  -3.6779e-05   -2.696e-05      7.75147 
         500     0.653331 -6.49022e-06 -4.10742e-05      7.75147 
         500     0.853332  1.37982e-06 -5.74243e-05      7.75147 
         500         1.08 -1.05949e-05 -7.55092e-05      7.75147 
         500      1.33333 -2.39315e-05  -9.4201e-05      7.75147 
         500      1.61333 -2.36022e-05 -0.000111797      7.75147 
         500         1.92 -1.09162e-05 -0.000126956      7.75147 
         500      2.25333  6.32321e-06 -0.000138965      7.75147 
         500      2.61333   2.2646e-05 -0.000146884      7.75147 
         500            3    4.124e-05 -0.000149958      7.75147 
         550            0           -0           -0      6.98171 
         550     0.013333  8.39079e-05 -1.46728e-08      6.98171 
         550     0.053333   0.00011396 -2.16612e-07      6.98171 
         550         0.12  0.000171391 -9.54262e-07      6.98171 
         550     0.213332  0.000242716 -2.45563e-06      6.98171 
         550     0.333332  0.000305227  -4.5443e-06      6.98171 
         550         0.48  0.000342193 -6.64961e-06      6.98171 
         550     0.653331  0.000353391 -8.13787e-06      6.98171 
         550     0.853332  0.000350113  -8.6665e-06      6.98171 
         550         1.08  0.000340416  -8.3356e-06      6.98171 
         550      1.33333  0.000321823 -7.58122e-06      6.98171 
         550      1.61333  0.000289732 -6.79179e-06      6.98171 
         550         1.92  0.000248213 -6.06293e-06      6.98171 
         550      2.25333   0.00020157 -5.25473e-06      6.98171 
         550      2.61333  0.000150087 -4.39569e-06      6.98171 
         550            3  0.000100424 -3.49995e-06      6.98171 
         600            0           -0           -0      6.21061 
         600     0.013333  0.000146097  7.11934e-08      6.21061 
         600     0.053333  0.000306155  1.16905e-06      6.21061 
         600         0.12  0.000434617  5.95428e-06      6.21061 
         600     0.213332  0.000425963  1.80659e-05      6.21061 
         600     0.333332  0.000281991  3.99748e-05      6.21061 
         600         0.48  9.59984e-05  7.13396e-05      6.21061 
         600     0.653331 -4.01566e-05  0.000109742      6.21061 
         600     0.853332 -9.53229e-05  0.000152534      6.21061 
         600         1.08 -9.19813e-05  0.000197426      6.21061 
         600      1.33333 -7.46744e-05  0.000242093      6.21061 
         600      1.61333 -6.11239e-05  0.000284315      6.21061 
         600         1.92 -5.06019e-05  0.000322128      6.21061 
         600      2.25333 -4.00964e-05  0.000353643      6.21061 
         600      2.61333 -2.16736e-05  0.000376469      6.21061 
         600            3 -4.94806e-06  0.000388534      6.21061 
         650            0            0            0      5.43814 
         650     0.013333 -3.99057e-05 -3.69083e-08      5.43814 
         650     0.053333 -0.000325604 -6.81505e-07      5.43814 
         650         0.12 -0.000631479 -3.92196e-06      5.43814 
         650     0.213332 -0.000816829 -1.31371e-05      5.43814 
         650     0.333332 -0.000839374 -3.13135e-05      5.43814 
         650         0.48  -0.00076478 -5.91282e-05      5.43814 
         650     0.653331 -0.000687646 -9.51065e-05      5.43814 
         650     0.853332 -0.000658395 -0.000136999      5.43814 
         650         1.08  -0.00066237  -0.00018204      5.43814 
         650      1.33333  -0.00063832 -0.000226547      5.43814 
         650      1.61333 -0.000553818 -0.000267139      5.43814 
         650         1.92 -0.000435775 -0.000302265      5.43815 
         650      2.25333 -0.000309005  -0.00033116      5.43815 
         650      2.61333 -0.000177172 -0.000351962      5.43816 
         650            3  -4.4533e-05 -0.000362665      5.43817 
         700            0           -0           -0      4.66512 
         700     0.013333  0.000109372  5.30345e-09      4.66512 
         700     0.053333   0.00019765  1.21649e-07      4.66512 
         700         0.12  0.000304161  8.18102e-07      4.66512 
         700     0.213332  0.000381685  3.00228e-06      4.66512 
         700     0.333332  0.000410121  7.53674e-06      4.66512 
         700         0.48  0.000403699  1.46932e-05      4.66512 
         700     0.653331  0.000389188   2.4204e-05      4.66512 
         700     0.853332  0.000384643  3.56158e-05      4.66512 
         700         1.08  0.000389499  4.81987e-05      4.66512 
         700      1.33333  0.000382109  6.05744e-05      4.66512 
         700      1.61333  0.000344487  7.12333e-05      4.66512 
         700         1.92  0.000289572  7.97425e-05      4.66512 
         700      2.25333  0.000233071   8.6346e-05      4.66512 
         700      2.61333  0.000174953  9.07944e-05      4.66512 
         700            3  0.000116315  9.25865e-05      4.66512 
         750            0           -0           -0      3.89059 
         750     0.013333  9.82171e-05  4.56844e-09      3.89059 
         750     0.053333  0.000156794  1.02148e-07      3.89059 
         750         0.12  0.000223885  6.96043e-07      3.89059 
         750     0.213332  0.000259177  2.65444e-06      3.89059 
         750     0.333332  0.000244291  6.96433e-06      3.89059 
         750         0.48   0.00019526  1.40539e-05      3.89059 
         750     0.653331  0.000143079  2.35166e-05      3.89059 
         750     0.853332  0.000106585  3.44638e-05      3.89059 
         750         1.08  8.47182e-05  4.59903e-05      3.89059 
         750      1.33333  6.86785e-05  5.74877e-05      3.89059 
         750      1.61333  5.75993e-05  6.87578e-05      3.89059 
         750         1.92  5.16072e-05   7.9584e-05      3.89059 
         750      2.25333  4.65455e-05  8.94203e-05      3.89059 
         750      2.61333  4.19465e-05  9.75512e-05      3.89059 
         750            3  3.79486e-05  0.000103361      3.89059 
         800            0            0            0       3.1148 
         800     0.013333  4.83154e-05  5.70877e-08       3.1148 
         800     0.053333 -3.95683e-05  8.33555e-07       3.1148 
         800         0.12 -0.000188846  3.60977e-06       3.1148 
         800     0.213332 -0.000373955   9.1501e-06       3.1148 
         800     0.333332 -0.000539649  1.69167e-05       3.1148 
         800         0.48 -0.000642467  2.54829e-05      3.11479 
         800     0.653331 -0.000679343  3.36725e-05      3.11479 
         800     0.853332 -0.000671737  4.12692e-05      3.11479 
         800         1.08 -0.000634328  4.88583e-05      3.11479 
         800      1.33333 -0.000568936  5.70854e-05      3.11479 
         800      1.61333 -0.000481627  6.58424e-05       3.1148 
         800         1.92 -0.000388742  7.42811e-05       3.1148 
         800      2.25333 -0.000293815  8.15905e-05       3.1148 
         800      2.61333 -0.000189626  8.73289e-05       3.1148 
         800            3 -8.25977e-05  9.11057e-05      3.11481 
         850            0            0            0      2.33808 
         850     0.013333 -7.81152e-06 -1.77618e-08      2.33808 
         850     0.053333  -0.00021607 -3.53282e-07      2.33808 
         850         0.12 -0.000441796 -2.19758e-06      2.33808 
         850     0.213332 -0.000577154 -7.88438e-06      2.33808 
         850     0.333332 -0.000577664 -1.98972e-05      2.33808 
         850         0.48 -0.000485749 -3.92329e-05      2.33808 
         850     0.653331 -0.000380598 -6.48792e-05      2.33808 
         850     0.853332 -0.000311779 -9.47504e-05      2.33808 
         850         1.08 -0.000278569 -0.000126695      2.33808 
         850      1.33333 -0.000251954 -0.000158847      2.33808 
         850      1.61333 -0.000212424 -0.000189771      2.33808 
         850         1.92 -0.000161062  -0.00021844      2.33808 
         850      2.25333 -0.000104758 -0.000243914      2.33809 
         850      2.61333 -4.70125e-05 -0.000264833      2.33809 
         850            3  1.28954e-05 -0.000279671       2.3381 
         900            0            0            0      1.56058 
         900     0.013333  0.000128833 -1.48632e-07      1.56058 
         900     0.053333  0.000319907 -2.17914e-06      1.56058 
         900         0.12  0.000683932 -9.49344e-06      1.56058 
         900     0.213332   0.00115535 -2.42047e-05      1.56058 
         900     0.333332   0.00158191 -4.49353e-05      1.56058 
         900         0.48   0.00183982 -6.78111e-05      1.56058 
         900     0.653331    0.0019156  -8.9615e-05      1.56058 
         900     0.853332   0.00186761 -0.000109818      1.56058 
         900         1.08   0.00174301 -0.000129959      1.56058 
         900      1.33333   0.00156082 -0.000151361      1.56058 
         900      1.61333   0.00134738 -0.000173288      1.56058 
         900         1.92   0.00113553 -0.000193679      1.56058 
         900      2.25333  0.000922699  -0.00021097      1.56057 
         900      2.61333  0.000688975 -0.000224339      1.56056 
         900            3  0.000443692 -0.000232867      1.56055 
         950            0            0            0     0.781065 
         950     0.013333  0.000259134 -6.22032e-11     0.781065 
         950     0.053333  0.000742685  1.68321e-07     0.781065 
         950         0.12   0.00133926  1.93219e-06     0.781065 
         950     0.213332   0.00180907  9.11744e-06     0.781066 
         950     0.333332   0.00200426  2.67784e-05     0.781066 
         950         0.48   0.00194986  5.81929e-05     0.781066 
         950     0.653331   0.00178363  0.000103165     0.781067 
         950     0.853332   0.00163172  0.000158971     0.781068 
         950         1.08   0.00153609  0.000221906     0.781068 
         950      1.33333   0.00145493  0.000287703     0.781068 
         950      1.61333   0.00132603  0.000351976     0.781066 
         950         1.92   0.00113638  0.000411962     0.781063 
         950      2.25333  0.000917534  0.000466278     0.781058 
         950      2.61333   0.00068591  0.000512484     0.781049 
         950            3  0.000441551  0.000548224     0.781036 
        1000            0            0            0            0 
        1000     0.013333  0.000140307  8.61555e-06           -0 
        1000     0.053333  0.000378724  3.74224e-05           -0 
        1000         0.12  0.000806867  9.28292e-05  6.42576e-17 
        1000     0.213332   0.00162151  7.46204e-05  7.60547e-16 
        1000     0.333332   0.00166207 -0.000224476  4.18451e-16 
        1000         0.48  0.000562372 -0.000343691           -0 
        1000     0.653331   0.00129052 -0.000552672            0 
        1000     0.853332 -0.000101997  -0.00106402            0 
        1000         1.08 -0.000886144  -0.00116898            0 
        1000      1.33333  -0.00355931  -0.00088334  4.74057e-16 
        1000      1.61333  -0.00140348  0.000412996           -0 
        1000         1.92  -0.00103122  0.000332893  9.01821e-16 
        1000      2.25333   -0.0014137  0.000294637  9.98779e-16 
        1000      2.61333  -0.00244101   0.00104648           -0 
        1000            3    -0.000755   0.00124168  9.20216e-16 
