Variables = x, y, u, v, p

Zone, I=2080, F=POINT
         -50            0            0            0     -45.0883 
         -50      0.00048 -1.32579e-05 -3.67234e-09     -45.0883 
         -50     0.001922  -4.6942e-05 -1.37206e-08     -45.0883 
         -50     0.004326 -8.57666e-05 -2.76792e-08     -45.0883 
         -50      0.00769 -0.000113246 -4.28266e-08     -45.0883 
         -50     0.012017 -0.000120424 -5.75786e-08     -45.0883 
         -50     0.017304 -0.000110373 -7.21888e-08     -45.0883 
         -50     0.023553 -9.55026e-05 -8.84117e-08     -45.0883 
         -50     0.030763 -8.81381e-05 -1.08019e-07     -45.0883 
         -50     0.038936 -9.00479e-05 -1.31068e-07     -45.0883 
         -50     0.048069 -9.00691e-05 -1.55174e-07     -45.0883 
         -50     0.058163 -7.70254e-05 -1.76982e-07     -45.0883 
         -50     0.069219 -6.14244e-05 -1.94946e-07     -45.0883 
         -50     0.081236 -6.57528e-05 -2.07899e-07     -45.0883 
         -50     0.094215 -4.94849e-05 -2.05852e-07     -45.0883 
         -50     0.108155 -4.53644e-05 -1.90839e-07     -45.0883 
         -50     0.123056 -3.85207e-05 -1.55239e-07     -45.0883 
         -50     0.138918 -3.19151e-05  -9.4712e-08     -45.0883 
         -50     0.155744 -2.67313e-05 -4.78692e-09     -45.0883 
         -50     0.173529 -2.27286e-05  1.18937e-07     -45.0883 
         -50     0.192276 -1.91153e-05  2.80702e-07     -45.0883 
         -50     0.211984 -1.56276e-05  4.84312e-07     -45.0883 
         -50     0.232655 -1.30482e-05  7.32923e-07     -45.0883 
         -50     0.254285 -1.18309e-05  1.02862e-06     -45.0882 
         -50     0.276877 -1.00478e-05  1.37305e-06     -45.0882 
         -50     0.300431  -9.3185e-06  1.76835e-06     -45.0882 
         -50     0.324946 -8.79893e-06  2.21444e-06     -45.0882 
         -50     0.350424 -8.49769e-06  2.71074e-06     -45.0882 
         -50     0.376861 -8.38315e-06  3.25567e-06     -45.0882 
         -50      0.40426 -8.39642e-06  3.84691e-06     -45.0882 
         -50     0.432621 -8.46965e-06  4.48123e-06     -45.0882 
         -50     0.461945 -8.54669e-06  5.15475e-06     -45.0881 
         -50     0.492228 -8.60224e-06  5.86296e-06     -45.0881 
         -50     0.523472 -8.65284e-06  6.60134e-06     -45.0881 
         -50     0.555678 -8.75081e-06  7.36554e-06     -45.0881 
         -50     0.588845 -8.94862e-06  8.15199e-06      -45.088 
         -50     0.622976 -9.22642e-06  8.95845e-06      -45.088 
         -50     0.658066 -9.73527e-06  9.77267e-06      -45.088 
         -50     0.694117 -1.04973e-05  1.05873e-05     -45.0879 
         -50      0.73113 -1.15857e-05  1.13967e-05     -45.0879 
         -50     0.769107 -1.30577e-05  1.21957e-05     -45.0879 
         -50     0.808042 -1.49533e-05  1.29796e-05     -45.0878 
         -50     0.847939 -1.72945e-05  1.37441e-05     -45.0878 
         -50     0.888797 -2.00851e-05  1.44857e-05     -45.0877 
         -50      0.93062 -2.33122e-05   1.5201e-05     -45.0876 
         -50       0.9734 -2.69477e-05  1.58869e-05     -45.0876 
         -50      1.01714 -3.09535e-05  1.65408e-05     -45.0875 
         -50      1.06185 -3.52857e-05  1.71603e-05     -45.0875 
         -50      1.10751 -3.99023e-05   1.7743e-05     -45.0874 
         -50      1.15414 -4.47722e-05   1.8287e-05     -45.0873 
         -50      1.20173 -4.98847e-05  1.87906e-05     -45.0872 
         -50      1.25028 -5.52646e-05  1.92529e-05     -45.0871 
         -50      1.29979 -6.09859e-05  1.96741e-05      -45.087 
         -50      1.35026 -6.69895e-05  2.00573e-05     -45.0869 
         -50       1.4017 -7.31574e-05  2.03917e-05     -45.0868 
         -50      1.45409 -7.96064e-05  2.06646e-05     -45.0867 
         -50      1.50745 -8.61623e-05  2.08739e-05     -45.0866 
         -50      1.56176 -9.26801e-05  2.10212e-05     -45.0865 
         -50      1.61705 -9.90451e-05  2.11112e-05     -45.0863 
         -50      1.67329 -0.000105171  2.11498e-05     -45.0862 
         -50      1.73049 -0.000111004  2.11434e-05     -45.0861 
         -50      1.78865 -0.000116514  2.10965e-05     -45.0859 
         -50      1.84778 -0.000121699  2.10108e-05     -45.0857 
         -50      1.90786 -0.000126577  2.08833e-05     -45.0856 
         -50      1.96891 -0.000131185  2.07057e-05     -45.0854 
         -50      2.03092 -0.000135571  2.04626e-05     -45.0852 
         -50      2.09389 -0.000139792  2.01318e-05      -45.085 
         -50      2.15782 -0.000143905  1.96847e-05     -45.0848 
         -50      2.22272  -0.00014796  1.90867e-05     -45.0846 
         -50      2.28857 -0.000151996  1.83003e-05     -45.0844 
         -50      2.35539 -0.000156032  1.72887e-05     -45.0842 
         -50      2.42317 -0.000160061  1.60209e-05     -45.0839 
         -50      2.49191 -0.000164044  1.44801e-05     -45.0837 
         -50      2.56161 -0.000167905   1.2673e-05     -45.0834 
         -50      2.63226 -0.000171527  1.06435e-05     -45.0831 
         -50      2.70389 -0.000174754  8.48912e-06     -45.0829 
         -50      2.77648 -0.000177167   6.2901e-06     -45.0826 
         -50      2.85002 -0.000178651  4.23793e-06     -45.0822 
         -50      2.92453  -0.00017958   2.4455e-06     -45.0819 
         -50            3 -0.000179925  8.26608e-07     -45.0816 
         -25            0 -1.09935e-19 -1.50937e-23     -43.2599 
         -25      0.00048  -1.0315e-05 -1.43193e-09     -43.2599 
         -25     0.001922 -3.68143e-05 -5.29103e-09     -43.2599 
         -25     0.004326 -6.83251e-05 -1.04596e-08     -43.2599 
         -25      0.00769 -9.27727e-05 -1.56837e-08     -43.2599 
         -25     0.012017 -0.000103549 -2.02092e-08     -43.2599 
         -25     0.017304 -0.000102776 -2.41762e-08     -43.2599 
         -25     0.023553 -9.93566e-05 -2.86172e-08     -43.2599 
         -25     0.030763  -0.00010211  -3.5013e-08     -43.2599 
         -25     0.038936 -0.000112147 -4.47357e-08     -43.2599 
         -25     0.048069 -0.000121136 -5.88583e-08     -43.2599 
         -25     0.058163 -0.000120732 -7.87853e-08     -43.2599 
         -25     0.069219 -0.000118381 -1.07356e-07     -43.2599 
         -25     0.081236 -0.000130255  -1.4825e-07     -43.2599 
         -25     0.094215 -0.000126635 -2.02322e-07     -43.2599 
         -25     0.108155 -0.000131196 -2.75447e-07     -43.2599 
         -25     0.123056 -0.000132952 -3.70167e-07     -43.2599 
         -25     0.138918 -0.000133944 -4.90339e-07     -43.2599 
         -25     0.155744 -0.000134955 -6.39575e-07     -43.2599 
         -25     0.173529  -0.00013577  -8.2104e-07     -43.2599 
         -25     0.192276 -0.000135818 -1.03754e-06     -43.2599 
         -25     0.211984 -0.000134948 -1.29139e-06     -43.2599 
         -25     0.232655  -0.00013381 -1.58445e-06     -43.2599 
         -25     0.254285 -0.000132841 -1.91774e-06     -43.2599 
         -25     0.276877 -0.000130764 -2.29169e-06     -43.2599 
         -25     0.300431 -0.000128902 -2.70642e-06     -43.2599 
         -25     0.324946 -0.000126787 -3.16098e-06     -43.2599 
         -25     0.350424 -0.000124572 -3.65436e-06     -43.2599 
         -25     0.376861 -0.000122368 -4.18493e-06     -43.2599 
         -25      0.40426 -0.000120254 -4.75076e-06     -43.2599 
         -25     0.432621 -0.000118278 -5.34956e-06     -43.2599 
         -25     0.461945 -0.000116473 -5.97879e-06     -43.2599 
         -25     0.492228 -0.000114865 -6.63565e-06     -43.2598 
         -25     0.523472  -0.00011348 -7.31728e-06     -43.2598 
         -25     0.555678 -0.000112342 -8.02056e-06     -43.2598 
         -25     0.588845 -0.000111451 -8.74184e-06     -43.2598 
         -25     0.622976 -0.000110731 -9.47733e-06     -43.2598 
         -25     0.658066 -0.000110222  -1.0225e-05     -43.2598 
         -25     0.694117 -0.000109858 -1.09708e-05     -43.2598 
         -25      0.73113 -0.000109595 -1.17193e-05     -43.2598 
         -25     0.769107 -0.000109389 -1.24713e-05     -43.2597 
         -25     0.808042 -0.000109202 -1.32243e-05     -43.2597 
         -25     0.847939    -0.000109 -1.39737e-05     -43.2597 
         -25     0.888797 -0.000108752 -1.47137e-05     -43.2597 
         -25      0.93062 -0.000108431 -1.54392e-05     -43.2597 
         -25       0.9734 -0.000108015  -1.6146e-05     -43.2596 
         -25      1.01714 -0.000107483 -1.68327e-05     -43.2596 
         -25      1.06185 -0.000106814 -1.74999e-05     -43.2596 
         -25      1.10751 -0.000105987   -1.815e-05     -43.2596 
         -25      1.15414 -0.000104977 -1.87848e-05     -43.2595 
         -25      1.20173 -0.000103756 -1.94016e-05     -43.2595 
         -25      1.25028 -0.000102285 -1.99863e-05     -43.2595 
         -25      1.29979 -0.000100519 -2.05033e-05     -43.2594 
         -25      1.35026 -9.85304e-05  -2.1009e-05     -43.2594 
         -25       1.4017 -9.65111e-05 -2.15714e-05     -43.2593 
         -25      1.45409 -9.43316e-05 -2.20381e-05     -43.2593 
         -25      1.50745  -9.2009e-05 -2.24355e-05     -43.2593 
         -25      1.56176 -8.95561e-05 -2.27818e-05     -43.2592 
         -25      1.61705 -8.69851e-05 -2.30878e-05     -43.2592 
         -25      1.67329 -8.43117e-05 -2.33586e-05     -43.2591 
         -25      1.73049 -8.15588e-05 -2.35957e-05      -43.259 
         -25      1.78865 -7.87604e-05 -2.37989e-05      -43.259 
         -25      1.84778 -7.59656e-05 -2.39685e-05     -43.2589 
         -25      1.90786 -7.32419e-05 -2.41072e-05     -43.2589 
         -25      1.96891 -7.06756e-05  -2.4222e-05     -43.2588 
         -25      2.03092 -6.83737e-05 -2.43255e-05     -43.2587 
         -25      2.09389 -6.64607e-05 -2.44365e-05     -43.2586 
         -25      2.15782 -6.50756e-05   -2.458e-05     -43.2586 
         -25      2.22272 -6.43621e-05 -2.47857e-05     -43.2585 
         -25      2.28857 -6.44574e-05 -2.50845e-05     -43.2584 
         -25      2.35539 -6.54743e-05  -2.5504e-05     -43.2583 
         -25      2.42317 -6.74775e-05 -2.60602e-05     -43.2582 
         -25      2.49191 -7.04512e-05 -2.67472e-05     -43.2581 
         -25      2.56161   -7.426e-05 -2.75226e-05      -43.258 
         -25      2.63226 -7.85975e-05 -2.82892e-05     -43.2579 
         -25      2.70389 -8.29237e-05 -2.88703e-05     -43.2578 
         -25      2.77648 -8.62111e-05 -2.88188e-05     -43.2577 
         -25      2.85002 -8.87628e-05 -3.00073e-05     -43.2575 
         -25      2.92453 -9.13148e-05 -3.06756e-05     -43.2574 
         -25            3 -9.36181e-05 -3.06314e-05     -43.2573 
           0            0 -8.97796e-20 -7.26248e-24     -41.8235 
           0      0.00048 -8.41551e-06 -7.00413e-10     -41.8235 
           0     0.001922 -2.99385e-05 -2.72703e-09     -41.8235 
           0     0.004326 -5.52153e-05  -5.9338e-09     -41.8235 
           0      0.00769  -7.4145e-05 -1.03202e-08     -41.8235 
           0     0.012017 -8.12145e-05 -1.62714e-08     -41.8235 
           0     0.017304 -7.82394e-05 -2.46518e-08     -41.8235 
           0     0.023553 -7.27286e-05 -3.67103e-08     -41.8235 
           0     0.030763 -7.21321e-05  -5.3752e-08     -41.8235 
           0     0.038936 -7.74498e-05 -7.67786e-08     -41.8235 
           0     0.048069 -8.17821e-05 -1.06293e-07     -41.8235 
           0     0.058163 -7.82223e-05 -1.42562e-07     -41.8235 
           0     0.069219 -7.31032e-05 -1.86104e-07     -41.8235 
           0     0.081236 -8.00719e-05 -2.37401e-07     -41.8235 
           0     0.094215 -7.43095e-05 -2.95183e-07     -41.8235 
           0     0.108155 -7.57401e-05 -3.60324e-07     -41.8235 
           0     0.123056 -7.52244e-05 -4.31842e-07     -41.8235 
           0     0.138918  -7.4523e-05 -5.09338e-07     -41.8235 
           0     0.155744 -7.43239e-05 -5.92398e-07     -41.8235 
           0     0.173529 -7.44569e-05 -6.80614e-07     -41.8235 
           0     0.192276   -7.443e-05 -7.73734e-07     -41.8235 
           0     0.211984 -7.40856e-05 -8.71685e-07     -41.8235 
           0     0.232655 -7.39181e-05 -9.74666e-07     -41.8235 
           0     0.254285 -7.42309e-05 -1.08314e-06     -41.8235 
           0     0.276877 -7.38834e-05  -1.1978e-06     -41.8235 
           0     0.300431 -7.39091e-05  -1.3195e-06     -41.8235 
           0     0.324946 -7.38425e-05 -1.44958e-06     -41.8235 
           0     0.350424 -7.37422e-05 -1.58944e-06     -41.8235 
           0     0.376861 -7.36441e-05 -1.74057e-06     -41.8235 
           0      0.40426 -7.35658e-05 -1.90458e-06     -41.8235 
           0     0.432621 -7.35154e-05 -2.08315e-06     -41.8235 
           0     0.461945 -7.35015e-05 -2.27803e-06     -41.8235 
           0     0.492228  -7.3542e-05 -2.49096e-06     -41.8235 
           0     0.523472 -7.36693e-05 -2.72362e-06     -41.8235 
           0     0.555678  -7.3925e-05 -2.97746e-06     -41.8235 
           0     0.588845 -7.43381e-05 -3.25345e-06     -41.8235 
           0     0.622976 -7.48807e-05  -3.5521e-06     -41.8234 
           0     0.658066 -7.56124e-05 -3.87687e-06     -41.8234 
           0     0.694117 -7.65112e-05 -4.22314e-06     -41.8234 
           0      0.73113 -7.75658e-05  -4.5921e-06     -41.8234 
           0     0.769107 -7.87517e-05 -4.98337e-06     -41.8234 
           0     0.808042 -8.00326e-05 -5.39505e-06     -41.8234 
           0     0.847939 -8.13644e-05 -5.82425e-06     -41.8234 
           0     0.888797 -8.26986e-05 -6.26729e-06     -41.8234 
           0      0.93062 -8.39868e-05 -6.72017e-06     -41.8234 
           0       0.9734 -8.51847e-05 -7.17884e-06     -41.8234 
           0      1.01714 -8.62578e-05 -7.63985e-06     -41.8234 
           0      1.06185  -8.7184e-05 -8.10032e-06     -41.8233 
           0      1.10751  -8.7957e-05 -8.55814e-06     -41.8233 
           0      1.15414 -8.85864e-05 -9.01168e-06     -41.8233 
           0      1.20173 -8.90945e-05 -9.45889e-06     -41.8233 
           0      1.25028 -8.95098e-05 -9.89621e-06     -41.8233 
           0      1.29979 -8.98531e-05 -1.03162e-05     -41.8233 
           0      1.35026 -9.01991e-05  -1.0734e-05     -41.8232 
           0       1.4017 -9.07884e-05 -1.11523e-05     -41.8232 
           0      1.45409 -9.15598e-05 -1.15348e-05     -41.8232 
           0      1.50745 -9.24624e-05 -1.18918e-05     -41.8232 
           0      1.56176 -9.34259e-05 -1.22288e-05     -41.8232 
           0      1.61705 -9.43662e-05 -1.25473e-05     -41.8231 
           0      1.67329  -9.5191e-05 -1.28456e-05     -41.8231 
           0      1.73049 -9.58074e-05   -1.312e-05     -41.8231 
           0      1.78865 -9.61288e-05 -1.33657e-05     -41.8231 
           0      1.84778 -9.60823e-05 -1.35779e-05      -41.823 
           0      1.90786 -9.56164e-05 -1.37531e-05      -41.823 
           0      1.96891 -9.47075e-05 -1.38904e-05      -41.823 
           0      2.03092 -9.33655e-05  -1.3992e-05     -41.8229 
           0      2.09389 -9.16378e-05 -1.40643e-05     -41.8229 
           0      2.15782 -8.96114e-05 -1.41184e-05     -41.8228 
           0      2.22272 -8.74101e-05 -1.41696e-05     -41.8228 
           0      2.28857 -8.51896e-05 -1.42367e-05     -41.8228 
           0      2.35539 -8.31255e-05 -1.43407e-05     -41.8227 
           0      2.42317 -8.13962e-05 -1.45016e-05     -41.8227 
           0      2.49191 -8.01568e-05 -1.47347e-05     -41.8226 
           0      2.56161 -7.95037e-05  -1.5045e-05     -41.8226 
           0      2.63226 -7.94285e-05 -1.54193e-05     -41.8225 
           0      2.70389 -7.97576e-05  -1.5817e-05     -41.8225 
           0      2.77648 -8.01633e-05 -1.63457e-05     -41.8224 
           0      2.85002 -8.09606e-05 -1.70968e-05     -41.8224 
           0      2.92453 -8.19999e-05 -1.78159e-05     -41.8223 
           0            3 -8.30277e-05 -1.85291e-05     -41.8222 
          20            0  -7.9532e-20 -4.34334e-24     -40.8116 
          20      0.00048 -7.44551e-06 -3.92372e-10     -40.8116 
          20     0.001922 -2.63785e-05 -1.20641e-09     -40.8116 
          20     0.004326 -4.82583e-05  -1.4032e-09     -40.8116 
          20      0.00769 -6.38834e-05   5.8521e-10     -40.8116 
          20     0.012017 -6.82799e-05  6.69672e-09     -40.8116 
          20     0.017304 -6.32165e-05  1.91281e-08     -40.8116 
          20     0.023553 -5.56942e-05  4.03612e-08     -40.8116 
          20     0.030763  -5.2668e-05  7.32673e-08     -40.8116 
          20     0.038936 -5.51762e-05  1.21262e-07     -40.8116 
          20     0.048069  -5.7007e-05  1.88257e-07     -40.8116 
          20     0.058163 -5.19308e-05  2.78448e-07     -40.8116 
          20     0.069219 -4.58479e-05  3.95862e-07     -40.8116 
          20     0.081236 -5.13484e-05  5.44372e-07     -40.8116 
          20     0.094215 -4.57141e-05  7.28635e-07     -40.8116 
          20     0.108155  -4.7249e-05  9.51557e-07     -40.8116 
          20     0.123056 -4.75708e-05  1.21667e-06     -40.8116 
          20     0.138918 -4.82743e-05  1.52655e-06     -40.8116 
          20     0.155744 -4.99504e-05  1.88318e-06     -40.8116 
          20     0.173529 -5.23846e-05  2.28771e-06     -40.8116 
          20     0.192276 -5.50545e-05  2.74069e-06     -40.8116 
          20     0.211984 -5.77342e-05  3.24195e-06     -40.8116 
          20     0.232655 -6.07906e-05  3.79069e-06     -40.8116 
          20     0.254285 -6.44125e-05  4.38535e-06     -40.8116 
          20     0.276877 -6.74662e-05  5.02385e-06     -40.8116 
          20     0.300431 -7.08134e-05  5.70453e-06     -40.8116 
          20     0.324946 -7.39479e-05  6.42486e-06     -40.8116 
          20     0.350424 -7.68504e-05  7.18211e-06     -40.8116 
          20     0.376861 -7.94848e-05  7.97362e-06     -40.8116 
          20      0.40426 -8.18062e-05  8.79716e-06     -40.8116 
          20     0.432621 -8.37681e-05  9.65054e-06     -40.8116 
          20     0.461945 -8.53326e-05  1.05317e-05     -40.8116 
          20     0.492228  -8.6479e-05  1.14383e-05     -40.8116 
          20     0.523472 -8.72092e-05  1.23681e-05     -40.8116 
          20     0.555678 -8.75438e-05  1.33187e-05     -40.8116 
          20     0.588845 -8.75036e-05   1.4288e-05     -40.8116 
          20     0.622976 -8.70754e-05  1.52747e-05     -40.8116 
          20     0.658066 -8.63429e-05  1.62746e-05     -40.8116 
          20     0.694117 -8.53247e-05  1.72811e-05     -40.8116 
          20      0.73113 -8.40848e-05  1.82928e-05     -40.8116 
          20     0.769107 -8.26881e-05  1.93067e-05     -40.8116 
          20     0.808042 -8.11994e-05  2.03187e-05     -40.8115 
          20     0.847939  -7.9679e-05  2.13241e-05     -40.8115 
          20     0.888797  -7.8182e-05  2.23176e-05     -40.8115 
          20      0.93062  -7.6755e-05  2.32942e-05     -40.8115 
          20       0.9734 -7.54353e-05  2.42493e-05     -40.8115 
          20      1.01714 -7.42492e-05   2.5179e-05     -40.8115 
          20      1.06185 -7.32134e-05  2.60806e-05     -40.8115 
          20      1.10751 -7.23363e-05  2.69522e-05     -40.8115 
          20      1.15414 -7.16227e-05  2.77919e-05     -40.8115 
          20      1.20173 -7.10807e-05  2.85971e-05     -40.8115 
          20      1.25028  -7.0733e-05   2.9362e-05     -40.8115 
          20      1.29979 -7.06314e-05  3.00752e-05     -40.8115 
          20      1.35026 -7.07116e-05  3.07567e-05     -40.8115 
          20       1.4017 -7.04422e-05  3.14224e-05     -40.8114 
          20      1.45409 -6.99884e-05  3.20147e-05     -40.8114 
          20      1.50745 -6.94781e-05  3.25386e-05     -40.8114 
          20      1.56176 -6.90038e-05  3.29981e-05     -40.8114 
          20      1.61705 -6.86255e-05  3.33957e-05     -40.8114 
          20      1.67329 -6.83753e-05  3.37328e-05     -40.8114 
          20      1.73049 -6.82625e-05  3.40095e-05     -40.8114 
          20      1.78865 -6.82802e-05  3.42249e-05     -40.8113 
          20      1.84778 -6.84123e-05  3.43774e-05     -40.8113 
          20      1.90786 -6.86401e-05  3.44643e-05     -40.8113 
          20      1.96891 -6.89503e-05  3.44825e-05     -40.8113 
          20      2.03092 -6.93407e-05  3.44287e-05     -40.8113 
          20      2.09389 -6.98265e-05  3.42992e-05     -40.8112 
          20      2.15782 -7.04428e-05  3.40907e-05     -40.8112 
          20      2.22272 -7.12463e-05  3.37997e-05     -40.8112 
          20      2.28857 -7.23121e-05  3.34235e-05     -40.8112 
          20      2.35539 -7.37259e-05  3.29597e-05     -40.8111 
          20      2.42317  -7.5571e-05  3.24062e-05     -40.8111 
          20      2.49191 -7.79057e-05  3.17617e-05     -40.8111 
          20      2.56161 -8.07343e-05  3.10245e-05     -40.8111 
          20      2.63226 -8.39648e-05  3.01929e-05      -40.811 
          20      2.70389 -8.73547e-05  2.92639e-05      -40.811 
          20      2.77648 -9.07993e-05  2.83513e-05      -40.811 
          20      2.85002   -9.428e-05  2.74999e-05     -40.8109 
          20      2.92453 -9.68749e-05  2.68599e-05     -40.8109 
          20            3 -9.90921e-05  2.61751e-05     -40.8108 
          40            0 -7.45172e-20  -2.6896e-24     -39.8683 
          40      0.00048 -6.97343e-06 -2.43165e-10     -39.8683 
          40     0.001922 -2.46755e-05  -7.4986e-10     -39.8683 
          40     0.004326 -4.50306e-05  -8.8104e-10     -39.8683 
          40      0.00769 -5.93367e-05  3.32952e-10     -39.8683 
          40     0.012017 -6.28846e-05  4.10214e-09     -39.8683 
          40     0.017304 -5.73366e-05  1.18188e-08     -39.8683 
          40     0.023553 -4.92995e-05   2.5086e-08     -39.8683 
          40     0.030763 -4.53374e-05  4.57948e-08     -39.8683 
          40     0.038936 -4.64243e-05  7.62325e-08     -39.8683 
          40     0.048069 -4.66866e-05  1.19064e-07     -39.8683 
          40     0.058163 -4.02378e-05  1.77209e-07     -39.8683 
          40     0.069219 -3.26607e-05  2.53564e-07     -39.8683 
          40     0.081236 -3.58664e-05  3.51013e-07     -39.8683 
          40     0.094215 -2.84011e-05     4.73e-07     -39.8683 
          40     0.108155 -2.75882e-05  6.21986e-07     -39.8683 
          40     0.123056 -2.55338e-05  8.00849e-07     -39.8683 
          40     0.138918 -2.37784e-05  1.01194e-06     -39.8683 
          40     0.155744 -2.29162e-05  1.25733e-06     -39.8683 
          40     0.173529 -2.27836e-05  1.53855e-06     -39.8683 
          40     0.192276 -2.29247e-05  1.85686e-06     -39.8683 
          40     0.211984  -2.3164e-05  2.21297e-06     -39.8683 
          40     0.232655 -2.38824e-05  2.60727e-06     -39.8683 
          40     0.254285 -2.52892e-05  3.03964e-06     -39.8683 
          40     0.276877 -2.63366e-05   3.5097e-06     -39.8683 
          40     0.300431 -2.78585e-05  4.01695e-06     -39.8683 
          40     0.324946 -2.93876e-05  4.56064e-06     -39.8683 
          40     0.350424 -3.09103e-05  5.13978e-06     -39.8683 
          40     0.376861 -3.23919e-05  5.75323e-06     -39.8683 
          40      0.40426 -3.37834e-05  6.39996e-06     -39.8683 
          40     0.432621 -3.50302e-05  7.07885e-06     -39.8683 
          40     0.461945 -3.60821e-05  7.78877e-06     -39.8683 
          40     0.492228 -3.69032e-05  8.52836e-06     -39.8683 
          40     0.523472 -3.74775e-05  9.29624e-06     -39.8683 
          40     0.555678 -3.78072e-05  1.00908e-05     -39.8683 
          40     0.588845 -3.78961e-05  1.09103e-05     -39.8683 
          40     0.622976 -3.77176e-05  1.17526e-05     -39.8683 
          40     0.658066  -3.7345e-05  1.26141e-05     -39.8683 
          40     0.694117 -3.67812e-05  1.34914e-05     -39.8683 
          40      0.73113 -3.60835e-05   1.4381e-05     -39.8683 
          40     0.769107 -3.53141e-05  1.52787e-05     -39.8683 
          40     0.808042 -3.45363e-05  1.61795e-05     -39.8683 
          40     0.847939  -3.3812e-05  1.70786e-05     -39.8683 
          40     0.888797 -3.31976e-05  1.79707e-05     -39.8683 
          40      0.93062 -3.27415e-05  1.88509e-05     -39.8683 
          40       0.9734 -3.24808e-05  1.97142e-05     -39.8683 
          40      1.01714 -3.24394e-05  2.05566e-05     -39.8683 
          40      1.06185 -3.26269e-05  2.13747e-05     -39.8683 
          40      1.10751   -3.304e-05   2.2166e-05     -39.8683 
          40      1.15414 -3.36662e-05  2.29286e-05     -39.8683 
          40      1.20173 -3.44909e-05  2.36612e-05     -39.8683 
          40      1.25028 -3.55094e-05  2.43628e-05     -39.8682 
          40      1.29979 -3.67448e-05  2.50316e-05     -39.8682 
          40      1.35026 -3.81428e-05  2.56478e-05     -39.8682 
          40       1.4017 -3.93641e-05  2.62367e-05     -39.8682 
          40      1.45409 -4.05241e-05  2.68123e-05     -39.8682 
          40      1.50745 -4.16811e-05   2.7347e-05     -39.8682 
          40      1.56176 -4.28801e-05  2.78224e-05     -39.8682 
          40      1.61705 -4.41538e-05  2.82281e-05     -39.8682 
          40      1.67329  -4.5522e-05  2.85607e-05     -39.8682 
          40      1.73049 -4.69934e-05  2.88225e-05     -39.8682 
          40      1.78865 -4.85667e-05  2.90196e-05     -39.8682 
          40      1.84778 -5.02322e-05  2.91602e-05     -39.8682 
          40      1.90786 -5.19733e-05  2.92529e-05     -39.8681 
          40      1.96891 -5.37697e-05  2.93045e-05     -39.8681 
          40      2.03092 -5.55994e-05  2.93188e-05     -39.8681 
          40      2.09389 -5.74419e-05  2.92949e-05     -39.8681 
          40      2.15782 -5.92803e-05  2.92267e-05     -39.8681 
          40      2.22272 -6.11053e-05  2.91025e-05     -39.8681 
          40      2.28857 -6.29166e-05  2.89062e-05     -39.8681 
          40      2.35539 -6.47265e-05  2.86194e-05      -39.868 
          40      2.42317 -6.65611e-05  2.82249e-05      -39.868 
          40      2.49191 -6.84611e-05  2.77132e-05      -39.868 
          40      2.56161 -7.04829e-05  2.70898e-05      -39.868 
          40      2.63226 -7.26967e-05   2.6387e-05      -39.868 
          40      2.70389 -7.51845e-05  2.56782e-05      -39.868 
          40      2.77648 -7.80167e-05  2.48134e-05     -39.8679 
          40      2.85002 -8.10404e-05  2.37079e-05     -39.8679 
          40      2.92453 -8.40464e-05  2.27725e-05     -39.8679 
          40            3 -8.68647e-05  2.19372e-05     -39.8679 
          60            0            0            0     -38.9674 
          60      0.00048 -6.94069e-06 -1.61096e-10     -38.9674 
          60     0.001922 -2.46556e-05 -5.90229e-10     -38.9674 
          60     0.004326 -4.53419e-05 -1.14324e-09     -38.9674 
          60      0.00769 -6.05793e-05 -1.63775e-09     -38.9674 
          60     0.012017 -6.57848e-05 -1.90967e-09     -38.9674 
          60     0.017304 -6.25024e-05 -1.83967e-09     -38.9674 
          60     0.023553  -5.7033e-05  -1.3327e-09     -38.9674 
          60     0.030763  -5.5629e-05 -2.50257e-10     -38.9674 
          60     0.038936 -5.91528e-05  1.66783e-09     -38.9674 
          60     0.048069 -6.18655e-05  4.83001e-09     -38.9674 
          60     0.058163 -5.80191e-05  9.72441e-09     -38.9674 
          60     0.069219  -5.2923e-05  1.67847e-08     -38.9674 
          60     0.081236 -5.79919e-05  2.64374e-08     -38.9674 
          60     0.094215 -5.25002e-05  3.94939e-08     -38.9674 
          60     0.108155 -5.31019e-05  5.62141e-08     -38.9674 
          60     0.123056 -5.21644e-05  7.72409e-08     -38.9674 
          60     0.138918 -5.11605e-05  1.03019e-07     -38.9674 
          60     0.155744 -5.06651e-05  1.33941e-07     -38.9674 
          60     0.173529 -5.05347e-05  1.70308e-07     -38.9674 
          60     0.192276 -5.03566e-05   2.1235e-07     -38.9674 
          60     0.211984 -4.99966e-05  2.60195e-07     -38.9674 
          60     0.232655 -4.98647e-05  3.13875e-07     -38.9674 
          60     0.254285 -5.02105e-05  3.73304e-07     -38.9674 
          60     0.276877 -5.00755e-05   4.3831e-07     -38.9674 
          60     0.300431 -5.03157e-05  5.08801e-07     -38.9674 
          60     0.324946 -5.05323e-05  5.84444e-07     -38.9674 
          60     0.350424 -5.07614e-05  6.64877e-07     -38.9674 
          60     0.376861 -5.10167e-05  7.49756e-07     -38.9674 
          60      0.40426 -5.12935e-05  8.38779e-07     -38.9674 
          60     0.432621 -5.15764e-05  9.31621e-07     -38.9674 
          60     0.461945 -5.18485e-05  1.02792e-06     -38.9674 
          60     0.492228 -5.20996e-05  1.12721e-06     -38.9674 
          60     0.523472 -5.23316e-05  1.22899e-06     -38.9674 
          60     0.555678 -5.25565e-05  1.33273e-06     -38.9674 
          60     0.588845  -5.2779e-05  1.43798e-06     -38.9674 
          60     0.622976 -5.29632e-05   1.5446e-06     -38.9674 
          60     0.658066 -5.31571e-05  1.65068e-06     -38.9674 
          60     0.694117 -5.33435e-05  1.75605e-06     -38.9674 
          60      0.73113 -5.35312e-05  1.85999e-06     -38.9674 
          60     0.769107 -5.37293e-05  1.96157e-06     -38.9674 
          60     0.808042 -5.39458e-05  2.05975e-06     -38.9674 
          60     0.847939 -5.41869e-05  2.15346e-06     -38.9674 
          60     0.888797 -5.44568e-05  2.24166e-06     -38.9674 
          60      0.93062 -5.47563e-05  2.32347e-06     -38.9674 
          60       0.9734 -5.50827e-05   2.3982e-06     -38.9674 
          60      1.01714 -5.54293e-05  2.46547e-06     -38.9674 
          60      1.06185 -5.57858e-05  2.52521e-06     -38.9674 
          60      1.10751 -5.61383e-05  2.57768e-06     -38.9674 
          60      1.15414 -5.64714e-05  2.62335e-06     -38.9674 
          60      1.20173 -5.67699e-05  2.66272e-06     -38.9674 
          60      1.25028 -5.70228e-05  2.69605e-06     -38.9674 
          60      1.29979 -5.72284e-05  2.72278e-06     -38.9674 