Variables = x, y, u, v, p

Zone, I=2080, F=POINT
         -50            0            0            0     -32.5479 
         -50      0.00048  1.50454e-05 -2.04954e-09     -32.5479 
         -50     0.001922  5.38014e-05 -7.41335e-09     -32.5479 
         -50     0.004326  0.000100061 -1.41613e-08     -32.5479 
         -50      0.00769  0.000135795 -2.03836e-08     -32.5479 
         -50     0.012017   0.00015013 -2.55525e-08     -32.5479 
         -50     0.017304  0.000144433 -3.14027e-08     -32.5479 
         -50     0.023553  0.000130553 -4.19331e-08     -32.5479 
         -50     0.030763  0.000122165 -6.24343e-08     -32.5479 
         -50     0.038936  0.000124163 -9.81413e-08     -32.5479 
         -50     0.048069  0.000128496 -1.53421e-07     -32.5479 
         -50     0.058163  0.000123869 -2.32387e-07     -32.5479 
         -50     0.069219  0.000115641 -3.40071e-07     -32.5479 
         -50     0.081236  0.000123925 -4.79588e-07     -32.5479 
         -50     0.094215  0.000119767 -6.47461e-07     -32.5479 
         -50     0.108155  0.000121345 -8.57468e-07     -32.5479 
         -50     0.123056  0.000122308 -1.10696e-06     -32.5479 
         -50     0.138918  0.000123431 -1.39861e-06     -32.5479 
         -50     0.155744  0.000125035 -1.73428e-06     -32.5479 
         -50     0.173529  0.000127052 -2.11481e-06     -32.5479 
         -50     0.192276  0.000129239 -2.54051e-06     -32.5479 
         -50     0.211984  0.000131443 -3.01111e-06     -32.5479 
         -50     0.232655  0.000133763 -3.52604e-06     -32.5479 
         -50     0.254285  0.000136265 -4.08411e-06     -32.5479 
         -50     0.276877   0.00013846  -4.6839e-06     -32.5479 
         -50     0.300431  0.000140599 -5.32463e-06     -32.5479 
         -50     0.324946  0.000142495 -6.00423e-06     -32.5479 
         -50     0.350424  0.000144099 -6.72133e-06     -32.5479 
         -50     0.376861  0.000145369 -7.47476e-06     -32.5479 
         -50      0.40426  0.000146267 -8.26377e-06     -32.5478 
         -50     0.432621  0.000146764 -9.08757e-06     -32.5478 
         -50     0.461945  0.000146842 -9.94525e-06     -32.5478 
         -50     0.492228  0.000146499 -1.08354e-05     -32.5478 
         -50     0.523472  0.000145747 -1.17562e-05     -32.5478 
         -50     0.555678  0.000144612 -1.27056e-05     -32.5478 
         -50     0.588845  0.000143134 -1.36813e-05     -32.5477 
         -50     0.622976  0.000141357 -1.46812e-05     -32.5477 
         -50     0.658066   0.00013934 -1.56913e-05     -32.5477 
         -50     0.694117  0.000137154 -1.67233e-05     -32.5477 
         -50      0.73113  0.000134892 -1.77674e-05     -32.5476 
         -50     0.769107  0.000132641 -1.88156e-05     -32.5476 
         -50     0.808042  0.000130482  -1.9861e-05     -32.5476 
         -50     0.847939  0.000128484 -2.08985e-05     -32.5475 
         -50     0.888797  0.000126701 -2.19235e-05     -32.5475 
         -50      0.93062   0.00012517 -2.29322e-05     -32.5475 
         -50       0.9734  0.000123905 -2.39203e-05     -32.5474 
         -50      1.01714  0.000122901 -2.48839e-05     -32.5474 
         -50      1.06185  0.000122134 -2.58182e-05     -32.5473 
         -50      1.10751  0.000121567 -2.67183e-05     -32.5473 
         -50      1.15414  0.000121158 -2.75791e-05     -32.5472 
         -50      1.20173  0.000120875 -2.83971e-05     -32.5471 
         -50      1.25028  0.000120718 -2.91715e-05     -32.5471 
         -50      1.29979  0.000120745 -2.99081e-05      -32.547 
         -50      1.35026  0.000120929  -3.0605e-05     -32.5469 
         -50       1.4017  0.000120461 -3.12228e-05     -32.5469 
         -50      1.45409  0.000119581 -3.17746e-05     -32.5468 
         -50      1.50745  0.000118612  -3.2261e-05     -32.5467 
         -50      1.56176  0.000117796 -3.26789e-05     -32.5466 
         -50      1.61705  0.000117297  -3.3023e-05     -32.5465 
         -50      1.67329  0.000117204 -3.32868e-05     -32.5464 
         -50      1.73049  0.000117539 -3.34642e-05     -32.5463 
         -50      1.78865  0.000118267 -3.35512e-05     -32.5462 
         -50      1.84778  0.000119306 -3.35468e-05     -32.5461 
         -50      1.90786  0.000120538 -3.34553e-05      -32.546 
         -50      1.96891   0.00012183 -3.32865e-05     -32.5458 
         -50      2.03092  0.000123042 -3.30571e-05     -32.5457 
         -50      2.09389  0.000124045 -3.27904e-05     -32.5456 
         -50      2.15782  0.000124734 -3.25164e-05     -32.5454 
         -50      2.22272  0.000125044 -3.22698e-05     -32.5453 
         -50      2.28857  0.000124955 -3.20875e-05     -32.5451 
         -50      2.35539  0.000124498 -3.20044e-05     -32.5449 
         -50      2.42317  0.000123754 -3.20473e-05     -32.5448 
         -50      2.49191  0.000122848  -3.2227e-05     -32.5446 
         -50      2.56161  0.000121923 -3.25267e-05     -32.5444 
         -50      2.63226  0.000121114 -3.28889e-05     -32.5442 
         -50      2.70389  0.000120497  -3.3197e-05      -32.544 
         -50      2.77648  0.000120629 -3.31479e-05     -32.5438 
         -50      2.85002   0.00012174 -3.24981e-05     -32.5436 
         -50      2.92453  0.000122804 -3.15085e-05     -32.5433 
         -50            3  0.000123887 -3.02557e-05     -32.5431 
         -25            0   1.2177e-19 -8.53433e-24     -31.2357 
         -25      0.00048  1.14506e-05 -7.93962e-10     -31.2357 
         -25     0.001922  4.11417e-05 -2.74712e-09     -31.2357 
         -25     0.004326  7.72223e-05 -4.72952e-09     -31.2357 
         -25      0.00769  0.000106483 -5.34041e-09     -31.2357 
         -25     0.012017  0.000120909  -3.3959e-09     -31.2357 
         -25     0.017304  0.000121367  1.76845e-09     -31.2357 
         -25     0.023553   0.00011635  1.03567e-08     -31.2357 
         -25     0.030763  0.000115662  2.25262e-08     -31.2357 
         -25     0.038936  0.000122702  3.89536e-08     -31.2357 
         -25     0.048069  0.000131433  6.11258e-08     -31.2357 
         -25     0.058163  0.000133458  9.10998e-08     -31.2357 
         -25     0.069219  0.000132523  1.30971e-07     -31.2357 
         -25     0.081236  0.000143137  1.83869e-07     -31.2357 
         -25     0.094215  0.000144088  2.55702e-07     -31.2357 
         -25     0.108155  0.000148524  3.45657e-07     -31.2357 
         -25     0.123056  0.000151755  4.59227e-07     -31.2357 
         -25     0.138918  0.000154317  5.99565e-07     -31.2357 
         -25     0.155744  0.000156444  7.69811e-07     -31.2357 
         -25     0.173529  0.000158121  9.72846e-07     -31.2357 
         -25     0.192276  0.000159233   1.2113e-06     -31.2357 
         -25     0.211984  0.000159756   1.4873e-06     -31.2357 
         -25     0.232655  0.000159863  1.80248e-06     -31.2357 
         -25     0.254285  0.000159723  2.15792e-06     -31.2356 
         -25     0.276877  0.000159103  2.55448e-06     -31.2356 
         -25     0.300431  0.000158315  2.99194e-06     -31.2356 
         -25     0.324946  0.000157344  3.47002e-06     -31.2356 
         -25     0.350424  0.000156272  3.98802e-06     -31.2356 
         -25     0.376861  0.000155172  4.54466e-06     -31.2356 
         -25      0.40426  0.000154108  5.13841e-06     -31.2356 
         -25     0.432621  0.000153131  5.76735e-06     -31.2356 
         -25     0.461945  0.000152278  6.42929e-06     -31.2356 
         -25     0.492228  0.000151576  7.12164e-06     -31.2356 
         -25     0.523472   0.00015104  7.84174e-06     -31.2356 
         -25     0.555678  0.000150671  8.58656e-06     -31.2356 
         -25     0.588845  0.000150458  9.35255e-06     -31.2356 
         -25     0.622976  0.000150371  1.01354e-05     -31.2356 
         -25     0.658066  0.000150385  1.09295e-05     -31.2356 
         -25     0.694117  0.000150463  1.17323e-05     -31.2356 
         -25      0.73113  0.000150553  1.25404e-05     -31.2355 
         -25     0.769107  0.000150612  1.33501e-05     -31.2355 
         -25     0.808042    0.0001506   1.4157e-05     -31.2355 
         -25     0.847939   0.00015049  1.49567e-05     -31.2355 
         -25     0.888797   0.00015026  1.57447e-05     -31.2355 
         -25      0.93062    0.0001499  1.65173e-05     -31.2355 
         -25       0.9734  0.000149409   1.7271e-05     -31.2355 
         -25      1.01714  0.000148794  1.80035e-05     -31.2354 
         -25      1.06185  0.000148069  1.87131e-05     -31.2354 
         -25      1.10751  0.000147246  1.93986e-05     -31.2354 
         -25      1.15414  0.000146335  2.00591e-05     -31.2354 
         -25      1.20173  0.000145331  2.06926e-05     -31.2354 
         -25      1.25028  0.000144204  2.12946e-05     -31.2353 
         -25      1.29979  0.000142886  2.18562e-05     -31.2353 
         -25      1.35026  0.000141389  2.23958e-05     -31.2353 
         -25       1.4017  0.000139963  2.29201e-05     -31.2352 
         -25      1.45409  0.000138449  2.33779e-05     -31.2352 
         -25      1.50745  0.000136796  2.37747e-05     -31.2352 
         -25      1.56176  0.000134977  2.41153e-05     -31.2351 
         -25      1.61705  0.000132984  2.44037e-05     -31.2351 
         -25      1.67329  0.000130829  2.46429e-05     -31.2351 
         -25      1.73049  0.000128534  2.48348e-05      -31.235 
         -25      1.78865   0.00012613    2.498e-05      -31.235 
         -25      1.84778   0.00012365   2.5078e-05     -31.2349 
         -25      1.90786   0.00012113   2.5127e-05     -31.2349 
         -25      1.96891  0.000118595  2.51245e-05     -31.2348 
         -25      2.03092  0.000116063  2.50675e-05     -31.2348 
         -25      2.09389  0.000113541  2.49532e-05     -31.2347 
         -25      2.15782  0.000111021  2.47799e-05     -31.2347 
         -25      2.22272  0.000108488  2.45481e-05     -31.2346 
         -25      2.28857  0.000105918  2.42621e-05     -31.2346 
         -25      2.35539  0.000103293   2.3932e-05     -31.2345 
         -25      2.42317   0.00010061  2.35759e-05     -31.2344 
         -25      2.49191  9.79095e-05  2.32231e-05     -31.2343 
         -25      2.56161  9.52941e-05  2.29177e-05     -31.2343 
         -25      2.63226  9.29724e-05  2.27227e-05     -31.2342 
         -25      2.70389   9.1304e-05  2.27254e-05     -31.2341 
         -25      2.77648  9.01345e-05  2.27387e-05      -31.234 
         -25      2.85002  8.92343e-05  2.32099e-05     -31.2339 
         -25      2.92453  8.90231e-05  2.38453e-05     -31.2339 
         -25            3  8.91012e-05  2.44581e-05     -31.2338 
           0            0  9.83071e-20 -4.11629e-24      -30.205 
           0      0.00048  9.23166e-06 -3.76557e-10      -30.205 
           0     0.001922  3.30222e-05 -1.22418e-09      -30.205 
           0     0.004326  6.14503e-05 -1.78385e-09      -30.205 
           0      0.00769  8.34705e-05 -1.06267e-09      -30.205 
           0     0.012017  9.24009e-05  1.87801e-09      -30.205 
           0     0.017304  8.90311e-05  7.70226e-09      -30.205 
           0     0.023553  8.05515e-05  1.67522e-08      -30.205 
           0     0.030763  7.52697e-05  2.91602e-08      -30.205 
           0     0.038936  7.61305e-05  4.50476e-08      -30.205 
           0     0.048069  7.81775e-05  6.45926e-08      -30.205 
           0     0.058163  7.44819e-05  8.78775e-08      -30.205 
           0     0.069219  6.83026e-05  1.14608e-07      -30.205 
           0     0.081236  7.19271e-05    1.446e-07      -30.205 
           0     0.094215  6.76761e-05  1.78663e-07      -30.205 
           0     0.108155  6.66829e-05  2.14077e-07      -30.205 
           0     0.123056  6.51018e-05  2.50966e-07      -30.205 
           0     0.138918  6.34525e-05   2.8822e-07      -30.205 
           0     0.155744  6.19816e-05  3.24706e-07      -30.205 
           0     0.173529  6.07043e-05  3.59285e-07     -30.2049 
           0     0.192276  5.95281e-05  3.90867e-07     -30.2049 
           0     0.211984  5.84149e-05  4.18406e-07     -30.2049 
           0     0.232655  5.74743e-05  4.40931e-07     -30.2049 
           0     0.254285  5.67943e-05  4.57609e-07     -30.2049 
           0     0.276877  5.61106e-05  4.67786e-07     -30.2049 
           0     0.300431  5.56095e-05   4.7079e-07     -30.2049 
           0     0.324946   5.5197e-05  4.66319e-07     -30.2049 
           0     0.350424    5.486e-05  4.54159e-07     -30.2049 
           0     0.376861  5.45821e-05  4.34273e-07     -30.2049 
           0      0.40426  5.43456e-05  4.06829e-07     -30.2049 
           0     0.432621  5.41343e-05  3.72218e-07     -30.2049 
           0     0.461945  5.39357e-05  3.31079e-07     -30.2049 
           0     0.492228  5.37438e-05  2.84309e-07     -30.2049 
           0     0.523472  5.35608e-05  2.33039e-07     -30.2049 
           0     0.555678  5.33975e-05  1.78616e-07     -30.2049 
           0     0.588845  5.32703e-05  1.22537e-07     -30.2049 
           0     0.622976  5.31965e-05  6.66692e-08     -30.2049 
           0     0.658066  5.32062e-05  1.45064e-08     -30.2049 
           0     0.694117  5.33226e-05 -3.71856e-08     -30.2049 
           0      0.73113  5.35778e-05 -8.36945e-08     -30.2049 
           0     0.769107  5.39967e-05  -1.2217e-07     -30.2049 
           0     0.808042  5.45962e-05 -1.51388e-07     -30.2049 
           0     0.847939  5.53855e-05 -1.71429e-07     -30.2049 
           0     0.888797  5.63664e-05  -1.8324e-07     -30.2049 
           0      0.93062  5.75342e-05 -1.88167e-07     -30.2049 
           0       0.9734  5.88781e-05 -1.87484e-07     -30.2049 
           0      1.01714  6.03846e-05 -1.82014e-07     -30.2048 
           0      1.06185  6.20381e-05 -1.71923e-07     -30.2048 
           0      1.10751  6.38247e-05 -1.56813e-07     -30.2048 
           0      1.15414  6.57345e-05  -1.3628e-07     -30.2048 
           0      1.20173  6.77649e-05 -1.11121e-07     -30.2048 
           0      1.25028  6.99248e-05 -8.54053e-08     -30.2048 
           0      1.29979  7.22374e-05 -6.97027e-08     -30.2048 
           0      1.35026  7.47423e-05 -5.61032e-08     -30.2048 
           0       1.4017  7.74399e-05 -1.47941e-08     -30.2047 
           0      1.45409  8.03661e-05  2.44454e-08     -30.2047 
           0      1.50745  8.35568e-05  6.58388e-08     -30.2047 
           0      1.56176  8.70234e-05  1.12274e-07     -30.2047 
           0      1.61705  9.07544e-05  1.65349e-07     -30.2047 
           0      1.67329  9.47164e-05  2.25429e-07     -30.2047 
           0      1.73049  9.88585e-05  2.91777e-07     -30.2046 
           0      1.78865  0.000103115  3.62676e-07     -30.2046 
           0      1.84778  0.000107408  4.35601e-07     -30.2046 
           0      1.90786  0.000111654  5.07371e-07     -30.2046 
           0      1.96891  0.000115766  5.74385e-07     -30.2046 
           0      2.03092  0.000119661   6.3278e-07     -30.2045 
           0      2.09389  0.000123263  6.78618e-07     -30.2045 
           0      2.15782  0.000126504  7.08021e-07     -30.2045 
           0      2.22272  0.000129334  7.17289e-07     -30.2044 
           0      2.28857  0.000131718  7.02911e-07     -30.2044 
           0      2.35539  0.000133638  6.61495e-07     -30.2044 
           0      2.42317  0.000135091  5.89564e-07     -30.2043 
           0      2.49191  0.000136085  4.83216e-07     -30.2043 
           0      2.56161  0.000136632  3.37529e-07     -30.2043 
           0      2.63226  0.000136732  1.45763e-07     -30.2042 
           0      2.70389   0.00013636 -1.01775e-07     -30.2042 
           0      2.77648  0.000135492 -4.25376e-07     -30.2042 
           0      2.85002  0.000134277 -8.29855e-07     -30.2041 
           0      2.92453  0.000132827 -1.20954e-06     -30.2041 
           0            3  0.000131265 -1.50731e-06      -30.204 
          20            0  9.26252e-20 -2.46708e-24     -29.4791 
          20      0.00048   8.7064e-06 -2.32774e-10     -29.4791 
          20     0.001922  3.12401e-05 -8.46227e-10     -29.4791 
          20     0.004326  5.84868e-05 -1.62998e-09     -29.4791 
          20      0.00769   8.0295e-05 -2.36896e-09     -29.4791 
          20     0.012017  9.05172e-05  -2.9799e-09     -29.4791 
          20     0.017304  8.98568e-05 -3.58814e-09     -29.4791 
          20     0.023553  8.48898e-05 -4.50159e-09     -29.4791 
          20     0.030763  8.32093e-05 -6.07346e-09     -29.4791 
          20     0.038936  8.74776e-05 -8.52387e-09     -29.4791 
          20     0.048069  9.30937e-05 -1.18281e-08     -29.4791 
          20     0.058163  9.36394e-05 -1.57701e-08     -29.4791 
          20     0.069219  9.20439e-05 -2.00686e-08     -29.4791 
          20     0.081236  9.95181e-05 -2.40559e-08     -29.4791 
          20     0.094215  9.97558e-05  -2.6147e-08     -29.4791 
          20     0.108155  0.000102908 -2.66125e-08     -29.4791 
          20     0.123056  0.000105371 -2.36947e-08     -29.4791 
          20     0.138918  0.000107561 -1.61684e-08     -29.4791 
          20     0.155744  0.000109647  -2.6974e-09     -29.4791 
          20     0.173529  0.000111599  1.81354e-08     -29.4791 
          20     0.192276  0.000113301  4.78144e-08     -29.4791 
          20     0.211984    0.0001147  8.78425e-08     -29.4791 
          20     0.232655  0.000115893  1.39685e-07     -29.4791 
          20     0.254285  0.000116968   2.0463e-07     -29.4791 
          20     0.276877  0.000117707  2.83549e-07     -29.4791 
          20     0.300431  0.000118311  3.78221e-07     -29.4791 
          20     0.324946  0.000118735  4.89313e-07     -29.4791 
          20     0.350424  0.000119013  6.17123e-07     -29.4791 
          20     0.376861  0.000119176  7.62056e-07     -29.4791 
          20      0.40426  0.000119257  9.24546e-07     -29.4791 
          20     0.432621   0.00011928  1.10481e-06     -29.4791 
          20     0.461945  0.000119272  1.30271e-06     -29.4791 
          20     0.492228  0.000119249  1.51754e-06     -29.4791 
          20     0.523472  0.000119228  1.74816e-06     -29.4791 
          20     0.555678  0.000119215  1.99322e-06     -29.4791 
          20     0.588845  0.000119209   2.2518e-06     -29.4791 
          20     0.622976  0.000119199  2.52465e-06     -29.4791 
          20     0.658066   0.00011918  2.80717e-06     -29.4791 
          20     0.694117  0.000119123  3.09682e-06      -29.479 
          20      0.73113  0.000119006  3.39355e-06      -29.479 
          20     0.769107  0.000118808  3.69659e-06      -29.479 
          20     0.808042  0.000118511  4.00457e-06      -29.479 
          20     0.847939    0.0001181  4.31592e-06      -29.479 
          20     0.888797  0.000117563  4.62901e-06      -29.479 
          20      0.93062  0.000116894  4.94246e-06      -29.479 
          20       0.9734  0.000116092  5.25524e-06      -29.479 
          20      1.01714  0.000115162  5.56693e-06      -29.479 
          20      1.06185  0.000114115   5.8775e-06      -29.479 
          20      1.10751  0.000112967  6.18704e-06      -29.479 
          20      1.15414  0.000111733  6.49501e-06      -29.479 
          20      1.20173  0.000110432  6.79902e-06      -29.479 
          20      1.25028  0.000109073  7.09307e-06      -29.479 
          20      1.29979  0.000107654  7.36482e-06      -29.479 
          20      1.35026   0.00010625  7.65627e-06      -29.479 
          20       1.4017  0.000104923  7.98237e-06      -29.479 
          20      1.45409  0.000103578  8.26002e-06     -29.4789 
          20      1.50745  0.000102269  8.51054e-06     -29.4789 
          20      1.56176   0.00010104  8.74845e-06     -29.4789 
          20      1.61705  9.99213e-05  8.98213e-06     -29.4789 
          20      1.67329  9.89304e-05  9.21454e-06     -29.4789 
          20      1.73049  9.80717e-05  9.44435e-06     -29.4789 
          20      1.78865  9.73367e-05  9.66704e-06     -29.4789 
          20      1.84778  9.67057e-05  9.87621e-06     -29.4789 
          20      1.90786  9.61484e-05  1.00648e-05     -29.4789 
          20      1.96891  9.56262e-05  1.02268e-05     -29.4788 
          20      2.03092   9.5095e-05  1.03577e-05     -29.4788 
          20      2.09389  9.45081e-05  1.04566e-05     -29.4788 
          20      2.15782  9.38207e-05  1.05256e-05     -29.4788 
          20      2.22272  9.29942e-05  1.05709e-05     -29.4788 
          20      2.28857  9.20024e-05  1.06017e-05     -29.4788 
          20      2.35539  9.08373e-05  1.06292e-05     -29.4787 
          20      2.42317  8.95174e-05  1.06632e-05     -29.4787 
          20      2.49191  8.80957e-05  1.07091e-05     -29.4787 
          20      2.56161  8.66693e-05  1.07613e-05     -29.4787 
          20      2.63226  8.53899e-05  1.07956e-05     -29.4787 
          20      2.70389  8.44756e-05  1.07594e-05     -29.4786 
          20      2.77648  8.38495e-05  1.08184e-05     -29.4786 
          20      2.85002  8.33343e-05  1.12174e-05     -29.4786 
          20      2.92453  8.33005e-05  1.13663e-05     -29.4786 
          20            3  8.33851e-05  1.14467e-05     -29.4785 
          40            0  8.32802e-20 -1.52832e-24     -28.8027 
          40      0.00048  7.81349e-06 -1.39845e-10     -28.8027 
          40     0.001922  2.78673e-05 -4.55719e-10     -28.8027 
          40     0.004326  5.15602e-05 -6.73771e-10     -28.8027 
          40      0.00769  6.93246e-05 -4.54296e-10     -28.8027 
          40     0.012017  7.53889e-05  4.78489e-10     -28.8027 
          40     0.017304  7.04799e-05  2.22487e-09     -28.8027 
          40     0.023553  6.08878e-05  4.65609e-09     -28.8027 
          40     0.030763  5.38799e-05   7.4176e-09     -28.8027 
          40     0.038936  5.20702e-05   9.9625e-09     -28.8027 
          40     0.048069  5.12174e-05  1.15431e-08     -28.8027 
          40     0.058163  4.53693e-05   1.1121e-08     -28.8027 
          40     0.069219  3.74227e-05  7.24337e-09     -28.8027 
          40     0.081236  3.81132e-05 -1.78072e-09     -28.8027 
          40     0.094215  3.21466e-05 -1.75501e-08     -28.8027 
          40     0.108155  2.92541e-05  -4.3224e-08     -28.8027 
          40     0.123056  2.61447e-05 -8.11118e-08     -28.8027 
          40     0.138918  2.33145e-05 -1.34137e-07     -28.8027 
          40     0.155744  2.10122e-05  -2.0534e-07     -28.8027 
          40     0.173529  1.92746e-05 -2.97737e-07     -28.8027 
          40     0.192276  1.80326e-05 -4.14291e-07     -28.8027 
          40     0.211984  1.72528e-05 -5.57765e-07     -28.8027 
          40     0.232655  1.70183e-05 -7.30687e-07     -28.8027 
          40     0.254285  1.73819e-05 -9.35191e-07     -28.8027 
          40     0.276877  1.80804e-05 -1.17303e-06     -28.8027 
          40     0.300431  1.92346e-05 -1.44554e-06     -28.8027 
          40     0.324946  2.07142e-05  -1.7537e-06     -28.8027 
          40     0.350424  2.24551e-05   -2.098e-06     -28.8027 
          40     0.376861  2.43874e-05 -2.47838e-06     -28.8027 
          40      0.40426    2.644e-05 -2.89441e-06     -28.8027 
          40     0.432621  2.85433e-05 -3.34529e-06     -28.8027 
          40     0.461945  3.06335e-05 -3.82997e-06     -28.8027 
          40     0.492228  3.26546e-05  -4.3471e-06     -28.8027 
          40     0.523472  3.45622e-05 -4.89524e-06     -28.8027 
          40     0.555678  3.63234e-05 -5.47275e-06     -28.8027 
          40     0.588845  3.79149e-05 -6.07745e-06     -28.8027 
          40     0.622976   3.9319e-05 -6.70648e-06     -28.8027 
          40     0.658066  4.05396e-05 -7.36001e-06     -28.8027 
          40     0.694117  4.15794e-05 -8.03469e-06     -28.8027 
          40      0.73113  4.24549e-05 -8.72757e-06     -28.8027 
          40     0.769107  4.31888e-05 -9.43601e-06     -28.8027 
          40     0.808042  4.38092e-05 -1.01574e-05     -28.8027 
          40     0.847939  4.43484e-05 -1.08896e-05     -28.8027 
          40     0.888797   4.4841e-05   -1.163e-05     -28.8027 
          40      0.93062  4.53225e-05 -1.23764e-05     -28.8027 
          40       0.9734  4.58274e-05 -1.31257e-05     -28.8027 
          40      1.01714  4.63883e-05  -1.3875e-05     -28.8027 
          40      1.06185  4.70341e-05 -1.46207e-05     -28.8027 
          40      1.10751  4.77911e-05  -1.5359e-05     -28.8027 
          40      1.15414  4.86832e-05 -1.60862e-05     -28.8027 
          40      1.20173  4.97351e-05 -1.67989e-05     -28.8027 
          40      1.25028  5.09775e-05 -1.74948e-05     -28.8026 
          40      1.29979  5.24555e-05 -1.81744e-05     -28.8026 
          40      1.35026  5.41183e-05 -1.88335e-05     -28.8026 
          40       1.4017  5.57069e-05 -1.94748e-05     -28.8026 
          40      1.45409  5.73513e-05 -2.00968e-05     -28.8026 
          40      1.50745  5.90922e-05 -2.06841e-05     -28.8026 
          40      1.56176  6.09569e-05 -2.12271e-05     -28.8026 
          40      1.61705  6.29587e-05 -2.17212e-05     -28.8026 
          40      1.67329  6.50969e-05 -2.21655e-05     -28.8026 
          40      1.73049  6.73579e-05  -2.2563e-05     -28.8026 
          40      1.78865   6.9716e-05 -2.29183e-05     -28.8026 
          40      1.84778  7.21346e-05 -2.32376e-05     -28.8026 
          40      1.90786  7.45678e-05 -2.35267e-05     -28.8026 
          40      1.96891  7.69638e-05 -2.37901e-05     -28.8026 
          40      2.03092  7.92665e-05 -2.40305e-05     -28.8026 
          40      2.09389  8.14199e-05 -2.42475e-05     -28.8025 
          40      2.15782  8.33705e-05 -2.44373e-05     -28.8025 
          40      2.22272   8.5073e-05 -2.45931e-05     -28.8025 
          40      2.28857  8.64938e-05 -2.47057e-05     -28.8025 
          40      2.35539  8.76165e-05 -2.47649e-05     -28.8025 
          40      2.42317  8.84471e-05 -2.47625e-05     -28.8025 
          40      2.49191  8.90189e-05 -2.46963e-05     -28.8025 
          40      2.56161  8.93992e-05 -2.45753e-05     -28.8025 
          40      2.63226  8.96938e-05 -2.44278e-05     -28.8024 
          40      2.70389  9.00535e-05 -2.43108e-05     -28.8024 
          40      2.77648  9.06116e-05 -2.40096e-05     -28.8024 
          40      2.85002  9.11559e-05 -2.34858e-05     -28.8024 
          40      2.92453  9.17297e-05 -2.31464e-05     -28.8024 
          40            3  9.23797e-05  -2.2811e-05     -28.8024 
          60            0            0            0     -28.1569 
          60      0.00048  7.61844e-06 -6.19281e-11     -28.1569 
          60     0.001922  2.71999e-05  1.34055e-10     -28.1569 
          60     0.004326  5.04249e-05  1.69947e-09     -28.1569 
          60      0.00769  6.80257e-05  6.37369e-09     -28.1569 
          60     0.012017  7.43811e-05  1.63973e-08     -28.1569 
          60     0.017304  7.01227e-05  3.43507e-08     -28.1569 
          60     0.023553   6.1239e-05  6.30507e-08     -28.1569 
          60     0.030763  5.46568e-05  1.05425e-07     -28.1569 
          60     0.038936  5.28166e-05   1.6444e-07     -28.1569 
          60     0.048069  5.15552e-05  2.42921e-07     -28.1569 
          60     0.058163  4.50697e-05  3.43423e-07     -28.1569 
          60     0.069219  3.61026e-05  4.68009e-07     -28.1569 
          60     0.081236  3.49698e-05   6.1823e-07     -28.1569 
          60     0.094215  2.69072e-05  7.95272e-07     -28.1569 
          60     0.108155  2.13003e-05  9.98797e-07     -28.1569 
          60     0.123056  1.49947e-05  1.22845e-06     -28.1569 
          60     0.138918  8.50523e-06  1.48291e-06     -28.1569 
          60     0.155744  2.12163e-06  1.76026e-06     -28.1569 
          60     0.173529 -4.05638e-06  2.05792e-06     -28.1569 
          60     0.192276 -1.00247e-05  2.37305e-06     -28.1569 
          60     0.211984 -1.57378e-05  2.70243e-06     -28.1569 
          60     0.232655 -2.10361e-05  3.04278e-06     -28.1569 
          60     0.254285 -2.57875e-05   3.3908e-06     -28.1569 
          60     0.276877 -3.01701e-05  3.74344e-06     -28.1569 
          60     0.300431 -3.39938e-05  4.09794e-06     -28.1569 
          60     0.324946 -3.73179e-05  4.45196e-06     -28.1569 
          60     0.350424 -4.01445e-05  4.80372e-06     -28.1569 
          60     0.376861 -4.24854e-05   5.1519e-06     -28.1569 
          60      0.40426 -4.43609e-05  5.49588e-06     -28.1569 
          60     0.432621 -4.57949e-05  5.83558e-06     -28.1569 
          60     0.461945 -4.68113e-05  6.17154e-06     -28.1569 
          60     0.492228 -4.74296e-05  6.50474e-06     -28.1569 
          60     0.523472  -4.7662e-05  6.83669e-06     -28.1569 
          60     0.555678 -4.75124e-05   7.1692e-06     -28.1569 
          60     0.588845 -4.69788e-05  7.50429e-06     -28.1569 
          60     0.622976 -4.60604e-05  7.84414e-06     -28.1569 
          60     0.658066 -4.47461e-05  8.19067e-06     -28.1569 
          60     0.694117 -4.30338e-05   8.5467e-06     -28.1569 
          60      0.73113 -4.09129e-05  8.91322e-06     -28.1569 
          60     0.769107 -3.83852e-05  9.29101e-06     -28.1569 
          60     0.808042 -3.54663e-05  9.68038e-06     -28.1569 
          60     0.847939 -3.21843e-05  1.00813e-05     -28.1569 
          60     0.888797 -2.85802e-05  1.04931e-05     -28.1569 
          60      0.93062 -2.47061e-05  1.09145e-05     -28.1569 
          60       0.9734 -2.06248e-05  1.13432e-05     -28.1569 
          60      1.01714 -1.64042e-05  1.17767e-05     -28.1569 
          60      1.06185 -1.21165e-05  1.22112e-05     -28.1569 
          60      1.10751 -7.83194e-06   1.2643e-05     -28.1569 
          60      1.15414  -3.6139e-06  1.30679e-05     -28.1569 
          60      1.20173  4.86841e-07   1.3482e-05     -28.1568 
          60      1.25028  4.44138e-06  1.38826e-05     -28.1568 
          60      1.29979  8.25004e-06   1.4269e-05     -28.1568 