Variables = x, y, u, v, p

Zone, I=416, F=POINT
         -50            0            0            0     -45.0762 
         -50     0.013333 -0.000268844 -8.72066e-08     -45.0762 
         -50     0.053333 -0.000265752 -4.02855e-07     -45.0762 
         -50         0.12 -0.000248612 -1.19386e-06     -45.0762 
         -50     0.213332 -0.000236997 -2.57623e-06     -45.0762 
         -50     0.333332  -0.00022811 -4.45488e-06     -45.0761 
         -50         0.48 -0.000222845 -6.62735e-06      -45.076 
         -50     0.653331 -0.000222466 -9.03524e-06     -45.0759 
         -50     0.853332  -0.00022836 -1.16935e-05     -45.0757 
         -50         1.08 -0.000237605 -1.43668e-05     -45.0753 
         -50      1.33333 -0.000245362 -1.66187e-05     -45.0749 
         -50      1.61333 -0.000249808 -1.83346e-05     -45.0742 
         -50         1.92 -0.000248047 -1.91156e-05     -45.0734 
         -50      2.25333 -0.000247469 -1.98438e-05     -45.0724 
         -50      2.61333 -0.000241616 -1.50556e-05     -45.0711 
         -50            3 -0.000232532 -5.84941e-06     -45.0695 
         -25            0 -2.03045e-19 -1.50247e-23     -43.2523 
         -25     0.013333 -0.000189635  -4.0998e-08     -43.2523 
         -25     0.053333  -0.00017097 -2.41004e-07     -43.2523 
         -25         0.12 -0.000137566 -7.30145e-07     -43.2523 
         -25     0.213332 -0.000109243  -1.4415e-06     -43.2523 
         -25     0.333332 -8.53516e-05   -2.231e-06     -43.2523 
         -25         0.48 -6.69692e-05 -3.09574e-06     -43.2523 
         -25     0.653331 -5.96747e-05 -4.29965e-06     -43.2522 
         -25     0.853332 -7.09874e-05 -6.28362e-06     -43.2521 
         -25         1.08 -9.67662e-05 -8.99104e-06      -43.252 
         -25      1.33333  -0.00012444 -1.18121e-05     -43.2518 
         -25      1.61333  -0.00015647 -1.43769e-05     -43.2516 
         -25         1.92 -0.000189673 -1.67649e-05     -43.2513 
         -25      2.25333  -0.00021401  -1.8429e-05     -43.2509 
         -25      2.61333 -0.000231581 -2.12364e-05     -43.2504 
         -25            3  -0.00024013  -2.6561e-05     -43.2497 
           0            0 -1.75356e-19 -7.22405e-24     -41.8199 
           0     0.013333  -0.00017219 -2.84501e-08     -41.8199 
           0     0.053333 -0.000187918 -2.74259e-07     -41.8199 
           0         0.12 -0.000189685 -1.22407e-06     -41.8199 
           0     0.213332 -0.000179037  -3.4317e-06     -41.8199 
           0     0.333332 -0.000157574 -7.13667e-06     -41.8199 
           0         0.48 -0.000137489 -1.21922e-05     -41.8199 
           0     0.653331 -0.000127953 -1.82981e-05     -41.8199 
           0     0.853332 -0.000128689 -2.49839e-05     -41.8198 
           0         1.08 -0.000132319 -3.14751e-05     -41.8197 
           0      1.33333 -0.000135112 -3.70688e-05     -41.8197 
           0      1.61333 -0.000142767 -4.11327e-05     -41.8195 
           0         1.92  -0.00015028  -4.3268e-05     -41.8194 
           0      2.25333 -0.000155987 -4.31165e-05     -41.8192 
           0      2.61333 -0.000157789 -4.17039e-05     -41.8189 
           0            3 -0.000157712 -4.05562e-05     -41.8186 
          20            0 -1.62817e-19 -4.31963e-24     -40.8109 
          20     0.013333 -0.000163487 -2.09163e-09     -40.8109 
          20     0.053333 -0.000196607  3.73662e-08     -40.8109 
          20         0.12 -0.000230163   3.1147e-08     -40.8109 
          20     0.213332 -0.000256215 -4.53543e-07     -40.8109 
          20     0.333332 -0.000264227 -1.95562e-06     -40.8109 
          20         0.48 -0.000260791 -4.68243e-06     -40.8109 
          20     0.653331 -0.000254223  -8.3694e-06     -40.8109 
          20     0.853332 -0.000243034 -1.24033e-05     -40.8109 
          20         1.08 -0.000222629 -1.61254e-05     -40.8108 
          20      1.33333 -0.000196544 -1.92876e-05     -40.8108 
          20      1.61333 -0.000170555 -2.16681e-05     -40.8107 
          20         1.92 -0.000150253 -2.29859e-05     -40.8106 
          20      2.25333  -0.00013338 -2.27569e-05     -40.8105 
          20      2.61333 -0.000114565 -2.12049e-05     -40.8104 
          20            3 -0.000104259 -1.76154e-05     -40.8102 
          40            0 -1.50172e-19 -2.67366e-24     -39.8704 
          40     0.013333 -0.000145067  9.69472e-09     -39.8704 
          40     0.053333 -0.000155027  1.93924e-07     -39.8704 
          40         0.12 -0.000169563  8.28109e-07     -39.8704 
          40     0.213332 -0.000193051  1.99912e-06     -39.8704 
          40     0.333332 -0.000213726  3.53553e-06     -39.8704 
          40         0.48 -0.000226757  5.23998e-06     -39.8704 
          40     0.653331 -0.000230768  7.12217e-06     -39.8704 
          40     0.853332 -0.000222999  9.37885e-06     -39.8704 
          40         1.08 -0.000204681  1.20285e-05     -39.8704 
          40      1.33333 -0.000183662  1.46463e-05     -39.8703 
          40      1.61333 -0.000157545  1.67667e-05     -39.8703 
          40         1.92 -0.000133443  1.80749e-05     -39.8702 
          40      2.25333 -0.000122203   1.8144e-05     -39.8702 
          40      2.61333 -0.000119805  1.71285e-05     -39.8701 
          40            3  -0.00012561  1.46941e-05       -39.87 
          60            0            0            0     -38.9722 
          60     0.013333 -0.000134681  2.72738e-10     -38.9722 
          60     0.053333  -0.00012792  4.11458e-08     -38.9722 
          60         0.12 -0.000114847  1.91711e-07     -38.9722 
          60     0.213332 -0.000105242  4.71543e-07     -38.9722 
          60     0.333332   -9.528e-05   8.5037e-07     -38.9722 
          60         0.48 -8.49194e-05  1.34137e-06     -38.9721 
          60     0.653331 -7.57885e-05  1.99032e-06     -38.9721 
          60     0.853332 -7.07324e-05  2.72662e-06     -38.9721 
          60         1.08 -7.28696e-05  3.36171e-06     -38.9721 
          60      1.33333  -8.1139e-05  3.81319e-06     -38.9721 
          60      1.61333 -9.17626e-05  4.10189e-06     -38.9721 
          60         1.92 -0.000101795  4.20212e-06      -38.972 
          60      2.25333 -0.000107787  4.18346e-06      -38.972 
          60      2.61333 -0.000113021  3.75603e-06     -38.9719 
          60            3  -0.00011742  3.59343e-06     -38.9719 
          80            0            0            0     -38.1006 
          80     0.013333 -0.000144953  1.08375e-08     -38.1006 
          80     0.053333 -0.000174832   1.5537e-07     -38.1006 
          80         0.12 -0.000208165   5.0366e-07     -38.1006 
          80     0.213332 -0.000236397  7.13631e-07     -38.1006 
          80     0.333332 -0.000246793  2.08175e-07     -38.1006 
          80         0.48  -0.00024424 -1.26008e-06     -38.1006 
          80     0.653331 -0.000236966 -3.40711e-06     -38.1006 
          80     0.853332 -0.000225436 -5.72812e-06     -38.1006 
          80         1.08 -0.000208641 -7.92179e-06     -38.1006 
          80      1.33333 -0.000189064 -9.96238e-06     -38.1006 
          80      1.61333 -0.000166527 -1.17919e-05     -38.1006 
          80         1.92 -0.000143012 -1.29704e-05     -38.1005 
          80      2.25333 -0.000118629 -1.34824e-05     -38.1005 
          80      2.61333 -9.51108e-05 -1.32947e-05     -38.1005 
          80            3 -8.26862e-05 -1.25814e-05     -38.1004 
         100            0  -1.4288e-19 -6.97036e-25     -37.2461 
         100     0.013333 -0.000144291  1.88174e-08     -37.2461 
         100     0.053333 -0.000178278  2.49464e-07     -37.2461 
         100         0.12   -0.0002159  8.22726e-07     -37.2461 
         100     0.213332 -0.000243861  1.29946e-06     -37.2461 
         100     0.333332 -0.000248289  9.63082e-07     -37.2461 
         100         0.48 -0.000237456 -3.97534e-07     -37.2461 
         100     0.653331 -0.000222289 -2.27576e-06     -37.2461 
         100     0.853332 -0.000202829 -3.90745e-06     -37.2461 
         100         1.08 -0.000179353 -4.96779e-06     -37.2461 
         100      1.33333 -0.000159025 -5.78122e-06     -37.2461 
         100      1.61333 -0.000139315  -6.5627e-06     -37.2461 
         100         1.92 -0.000122308 -7.02256e-06     -37.2461 
         100      2.25333 -0.000111445 -7.28759e-06      -37.246 
         100      2.61333 -0.000105607 -7.38736e-06      -37.246 
         100            3 -0.000108184 -7.15822e-06      -37.246 
         150            0           -0           -0     -35.1496 
         150     0.013333 -0.000135034 -5.59436e-08     -35.1496 
         150     0.053333 -0.000134956 -8.28926e-07     -35.1496 
         150         0.12  -9.7601e-05  -3.6786e-06     -35.1496 
         150     0.213332 -3.31308e-05 -9.55608e-06     -35.1496 
         150     0.333332  3.04697e-05  -1.8166e-05     -35.1496 
         150         0.48  6.74274e-05 -2.84707e-05     -35.1496 
         150     0.653331   7.2324e-05 -3.97784e-05     -35.1496 
         150     0.853332  5.03819e-05 -5.18843e-05     -35.1496 
         150         1.08  1.47009e-05 -6.41877e-05     -35.1496 
         150      1.33333 -1.57802e-05 -7.54015e-05     -35.1496 
         150      1.61333 -5.13789e-05 -8.42549e-05     -35.1496 
         150         1.92 -8.81379e-05  -8.9843e-05     -35.1496 
         150      2.25333 -0.000118635  -9.1695e-05     -35.1496 
         150      2.61333 -0.000145712 -8.96657e-05     -35.1496 
         150            3 -0.000156328 -8.44849e-05     -35.1496 
         200            0           -0           -0     -33.0781 
         200     0.013333 -0.000138699 -3.89594e-08     -33.0781 
         200     0.053333 -0.000154673 -5.85372e-07     -33.0781 
         200         0.12 -0.000145912 -2.64819e-06     -33.0781 
         200     0.213332 -0.000113263 -7.07064e-06     -33.0781 
         200     0.333332 -7.09888e-05 -1.39051e-05     -33.0781 
         200         0.48 -3.99909e-05 -2.25982e-05     -33.0781 
         200     0.653331 -3.00967e-05 -3.26646e-05     -33.0781 
         200     0.853332 -4.13209e-05 -4.38847e-05     -33.0781 
         200         1.08 -6.46024e-05 -5.57635e-05     -33.0781 
         200      1.33333 -8.24298e-05 -6.71677e-05     -33.0781 
         200      1.61333 -9.89362e-05 -7.68544e-05     -33.0781 
         200         1.92 -0.000114391 -8.38551e-05     -33.0781 
         200      2.25333 -0.000126069 -8.76556e-05     -33.0781 
         200      2.61333 -0.000137386 -8.78419e-05     -33.0781 
         200            3 -0.000139205  -8.4643e-05     -33.0781 
         250            0            0            0     -31.0144 
         250     0.013333 -0.000149885 -1.62063e-08     -31.0144 
         250     0.053333 -0.000199717 -2.80689e-07     -31.0144 
         250         0.12 -0.000238992 -1.50219e-06     -31.0144 
         250     0.213332 -0.000249045 -4.68698e-06     -31.0144 
         250     0.333332 -0.000228804 -1.04638e-05     -31.0144 
         250         0.48 -0.000201009 -1.86676e-05     -31.0144 
         250     0.653331 -0.000185061 -2.86498e-05     -31.0144 
         250     0.853332  -0.00018311 -3.96343e-05     -31.0144 
         250         1.08 -0.000183495 -5.06893e-05     -31.0144 
         250      1.33333 -0.000174189 -6.09312e-05     -31.0144 
         250      1.61333 -0.000160706 -6.97072e-05     -31.0144 
         250         1.92 -0.000146146 -7.62215e-05     -31.0144 
         250      2.25333 -0.000132142 -8.01009e-05     -31.0144 
         250      2.61333 -0.000122377 -8.09267e-05     -31.0144 
         250            3 -0.000116963 -7.87029e-05     -31.0144 
         300            0           -0           -0     -28.9526 
         300     0.013333 -0.000129588 -1.56906e-08     -28.9526 
         300     0.053333  -0.00012897 -2.36616e-07     -28.9526 
         300         0.12 -0.000114973 -1.05796e-06     -28.9526 
         300     0.213332 -9.81653e-05 -2.72766e-06     -28.9526 
         300     0.333332 -8.63218e-05 -5.05361e-06     -28.9526 
         300         0.48 -8.65125e-05 -7.62237e-06     -28.9526 
         300     0.653331 -9.77858e-05 -1.02361e-05     -28.9526 
         300     0.853332 -0.000114857 -1.28821e-05     -28.9526 
         300         1.08 -0.000129261 -1.52914e-05     -28.9526 
         300      1.33333 -0.000133464 -1.69868e-05     -28.9526 
         300      1.61333 -0.000133313 -1.78538e-05     -28.9526 
         300         1.92 -0.000133723 -1.80122e-05     -28.9526 
         300      2.25333 -0.000133039 -1.74693e-05     -28.9526 
         300      2.61333 -0.000130362 -1.62777e-05     -28.9526 
         300            3 -0.000127278 -1.45234e-05     -28.9526 
         350            0 -1.39487e-19  3.48193e-27     -26.8909 
         350     0.013333  -0.00014008 -5.43401e-08     -26.8909 
         350     0.053333  -0.00015494 -8.24369e-07     -26.8909 
         350         0.12 -0.000130289 -3.76545e-06     -26.8909 
         350     0.213332 -6.37904e-05 -1.01431e-05     -26.8909 
         350     0.333332  1.84514e-05 -2.00425e-05     -26.8909 
         350         0.48  7.99709e-05 -3.25203e-05     -26.8909 
         350     0.653331  0.000104854 -4.66583e-05     -26.8909 
         350     0.853332  9.48321e-05 -6.20947e-05     -26.8909 
         350         1.08  6.11536e-05 -7.84073e-05     -26.8909 
         350      1.33333  2.57768e-05 -9.43906e-05     -26.8909 
         350      1.61333 -8.03935e-06 -0.000108551     -26.8909 
         350         1.92 -4.17409e-05 -0.000119862     -26.8909 
         350      2.25333 -7.44649e-05 -0.000127583     -26.8909 
         350      2.61333 -0.000111346 -0.000130942     -26.8909 
         350            3 -0.000139496 -0.000129634     -26.8909 
         400            0           -0           -0     -24.8289 
         400     0.013333 -0.000133343  8.23541e-10     -24.8289 
         400     0.053333 -0.000145578  -7.3846e-09     -24.8289 
         400         0.12  -0.00015277 -1.47685e-07     -24.8289 
         400     0.213332 -0.000156644 -6.82715e-07     -24.8289 
         400     0.333332 -0.000155932 -1.75273e-06     -24.8289 
         400         0.48 -0.000158086 -3.16384e-06     -24.8289 
         400     0.653331 -0.000166875 -4.52856e-06     -24.8289 
         400     0.853332  -0.00017702 -5.44539e-06     -24.8289 
         400         1.08 -0.000178806  -5.5071e-06     -24.8289 
         400      1.33333 -0.000168762 -4.52366e-06     -24.8289 
         400      1.61333 -0.000154953 -2.79837e-06     -24.8289 
         400         1.92  -0.00014419 -7.03607e-07     -24.8289 
         400      2.25333 -0.000135101  1.52913e-06     -24.8289 
         400      2.61333 -0.000124492   3.7921e-06     -24.8289 
         400            3 -0.000116604  5.89341e-06     -24.8289 
         450            0           -0           -0     -22.7662 
         450     0.013333 -0.000166532  5.29273e-08     -22.7662 
         450     0.053333 -0.000279579  7.30911e-07     -22.7662 
         450         0.12 -0.000441576   2.8722e-06     -22.7662 
         450     0.213332 -0.000605106  6.29281e-06     -22.7662 
         450     0.333332 -0.000709299   9.4968e-06     -22.7662 
         450         0.48 -0.000740313  1.09128e-05     -22.7662 
         450     0.653331 -0.000725453  1.01731e-05     -22.7662 
         450     0.853332 -0.000689713  8.16775e-06     -22.7662 
         450         1.08 -0.000635395  6.16117e-06     -22.7662 
         450      1.33333 -0.000561657  4.67248e-06     -22.7662 
         450      1.61333 -0.000476077  3.31825e-06     -22.7662 
         450         1.92 -0.000387083  1.92006e-06     -22.7662 
         450      2.25333 -0.000295987   4.2744e-07     -22.7662 
         450      2.61333  -0.00019923 -1.06341e-06     -22.7662 
         450            3  -0.00011443 -2.36151e-06     -22.7662 
         500            0           -0           -0     -20.7019 
         500     0.013333 -9.49336e-05 -3.15833e-09     -20.7019 
         500     0.053333 -8.07833e-06  1.17777e-10     -20.7019 
         500         0.12  0.000100075  2.99862e-07     -20.7019 
         500     0.213332  0.000180716  1.67342e-06     -20.7019 
         500     0.333332  0.000220612   4.9338e-06     -20.7019 
         500         0.48  0.000233205  1.03352e-05     -20.7019 
         500     0.653331  0.000239894  1.75706e-05     -20.7019 
         500     0.853332  0.000249685  2.59897e-05     -20.7019 
         500         1.08  0.000250072  3.44718e-05     -20.7019 
         500      1.33333  0.000219632  4.16668e-05     -20.7019 
         500      1.61333   0.00016141  4.70145e-05     -20.7019 
         500         1.92  9.62313e-05  5.07182e-05     -20.7019 
         500      2.25333  2.97657e-05  5.30038e-05     -20.7019 
         500      2.61333 -4.15836e-05  5.35731e-05     -20.7019 
         500            3 -0.000108624  5.22761e-05     -20.7019 
         550            0           -0           -0     -18.6367 
         550     0.013333 -9.06964e-05 -2.93288e-08     -18.6367 
         550     0.053333  1.48714e-05 -3.88951e-07     -18.6367 
         550         0.12  0.000162429 -1.40494e-06     -18.6367 
         550     0.213332  0.000290765 -2.60255e-06     -18.6367 
         550     0.333332  0.000358956 -2.65983e-06     -18.6367 
         550         0.48  0.000364344 -3.85715e-07     -18.6367 
         550     0.653331  0.000336256   4.4062e-06     -18.6367 
         550     0.853332  0.000300843  1.09301e-05     -18.6367 
         550         1.08  0.000260765  1.80018e-05     -18.6367 
         550      1.33333  0.000208711  2.47975e-05     -18.6367 
         550      1.61333  0.000148214  3.12479e-05     -18.6367 
         550         1.92  8.54676e-05  3.73226e-05     -18.6367 
         550      2.25333  1.95752e-05  4.27971e-05     -18.6367 
         550      2.61333 -5.05622e-05  4.72083e-05     -18.6367 
         550            3 -0.000116012  5.02061e-05     -18.6367 
         600            0           -0           -0     -16.5707 
         600     0.013333 -0.000158069  7.58471e-08     -16.5707 
         600     0.053333 -0.000258821  1.10302e-06     -16.5707 
         600         0.12  -0.00043433  4.74211e-06     -16.5707 
         600     0.213332 -0.000654702  1.18792e-05     -16.5707 
         600     0.333332 -0.000842982  2.16093e-05     -16.5707 
         600         0.48 -0.000948175  3.19457e-05     -16.5707 
         600     0.653331 -0.000973639  4.14423e-05     -16.5707 
         600     0.853332 -0.000948071  4.99924e-05     -16.5707 
         600         1.08 -0.000889259  5.83118e-05     -16.5707 
         600      1.33333 -0.000803238  6.68725e-05     -16.5707 
         600      1.61333 -0.000696097   7.5338e-05     -16.5707 
         600         1.92 -0.000581035  8.29779e-05     -16.5707 
         600      2.25333 -0.000461262  8.89745e-05     -16.5707 
         600      2.61333  -0.00033022  9.29068e-05     -16.5707 
         600            3 -0.000204335  9.43298e-05     -16.5707 
         650            0            0            0      -14.503 
         650     0.013333 -0.000161014 -8.27554e-08      -14.503 
         650     0.053333 -0.000220953 -1.26119e-06      -14.503 
         650         0.12 -0.000227673  -5.8302e-06      -14.503 
         650     0.213332 -0.000148718 -1.60514e-05      -14.503 
         650     0.333332 -1.04184e-05 -3.26842e-05      -14.503 
         650         0.48  0.000124454   -5.482e-05      -14.503 
         650     0.653331  0.000212045 -8.11092e-05      -14.503 
         650     0.853332  0.000238679  -0.00011088      -14.503 
         650         1.08  0.000206875 -0.000143876      -14.503 
         650      1.33333  0.000141606 -0.000178894      -14.503 
         650      1.61333  7.82052e-05 -0.000213295      -14.503 
         650         1.92  3.22267e-05  -0.00024462      -14.503 
         650      2.25333 -7.19016e-06  -0.00027121      -14.503 
         650      2.61333 -5.41056e-05 -0.000291464      -14.503 
         650            3 -9.74927e-05 -0.000303652      -14.503 
         700            0           -0           -0     -12.4344 
         700     0.013333 -0.000114872 -4.74193e-08     -12.4344 
         700     0.053333 -6.19837e-05  -7.1575e-07     -12.4344 
         700         0.12  5.24292e-05 -3.25496e-06     -12.4344 
         700     0.213332  0.000210332  -8.7342e-06     -12.4344 
         700     0.333332  0.000369364 -1.70979e-05     -12.4344 
         700         0.48  0.000480715 -2.71063e-05     -12.4344 
         700     0.653331   0.00052697 -3.72961e-05     -12.4344 
         700     0.853332  0.000522694 -4.68448e-05     -12.4344 
         700         1.08  0.000490811 -5.55136e-05     -12.4344 
         700      1.33333  0.000445677 -6.32635e-05     -12.4344 
         700      1.61333  0.000384881 -7.02816e-05     -12.4344 
         700         1.92  0.000306812 -7.67047e-05     -12.4344 
         700      2.25333  0.000217572  -8.2129e-05     -12.4345 
         700      2.61333  0.000117623 -8.59907e-05     -12.4345 
         700            3  1.49887e-05 -8.79249e-05     -12.4345 
         750            0           -0           -0     -10.3651 
         750     0.013333 -6.47862e-05   7.4919e-08     -10.3651 
         750     0.053333  7.66191e-05  1.19652e-06     -10.3651 
         750         0.12   0.00018785  5.88438e-06     -10.3651 
         750     0.213332  0.000177136  1.72395e-05     -10.3651 
         750     0.333332  6.11131e-05  3.69919e-05     -10.3651 
         750         0.48 -7.56323e-05   6.4429e-05     -10.3651 
         750     0.653331 -0.000159606  9.74571e-05     -10.3651 
         750     0.853332 -0.000168933  0.000134246     -10.3651 
         750         1.08 -0.000125126   0.00017329     -10.3651 
         750      1.33333 -7.80562e-05  0.000212365     -10.3651 
         750      1.61333 -6.38657e-05   0.00024882     -10.3651 
         750         1.92 -7.40502e-05  0.000281099     -10.3651 
         750      2.25333 -8.76854e-05   0.00030834     -10.3651 
         750      2.61333 -9.69547e-05  0.000329005     -10.3651 
         750            3 -0.000108242  0.000341307     -10.3651 
         800            0            0            0     -8.29476 
         800     0.013333 -0.000232952 -2.39364e-08     -8.29476 
         800     0.053333 -0.000495107 -4.78736e-07     -8.29476 
         800         0.12 -0.000778751 -2.97296e-06     -8.29476 
         800     0.213332 -0.000950521 -1.05914e-05     -8.29476 
         800     0.333332 -0.000950479 -2.64796e-05     -8.29476 
         800         0.48 -0.000834876 -5.17669e-05     -8.29476 
         800     0.653331 -0.000705146 -8.51432e-05     -8.29476 
         800     0.853332 -0.000624705 -0.000124167     -8.29476 
         800         1.08 -0.000593499 -0.000166221     -8.29476 
         800      1.33333 -0.000566666 -0.000208446     -8.29476 
         800      1.61333 -0.000508088 -0.000248152     -8.29476 
         800         1.92 -0.000426559 -0.000283893     -8.29476 
         800      2.25333 -0.000342118 -0.000314956     -8.29476 
         800      2.61333 -0.000258551 -0.000339746     -8.29475 
         800            3 -0.000173748 -0.000356278     -8.29475 
         850            0            0            0     -6.22249 
         850     0.013333  -8.4781e-05 -1.31259e-07     -6.22249 
         850     0.053333  7.28409e-05 -1.92357e-06     -6.22249 
         850         0.12  0.000377578 -8.38237e-06     -6.22249 
         850     0.213332  0.000773237 -2.14368e-05     -6.22249 
         850     0.333332   0.00114215 -4.01022e-05     -6.22249 
         850         0.48   0.00138351 -6.13316e-05     -6.22249 
         850     0.653331    0.0014815 -8.25787e-05     -6.22249 
         850     0.853332   0.00147554 -0.000103422     -6.22249 
         850         1.08   0.00139519 -0.000125108     -6.22249 
         850      1.33333   0.00124978 -0.000148742     -6.22249 
         850      1.61333   0.00105999 -0.000173663     -6.22249 
         850         1.92  0.000861863 -0.000197809     -6.22249 
         850      2.25333  0.000662387 -0.000219192      -6.2225 
         850      2.61333  0.000444516 -0.000236604     -6.22251 
         850            3  0.000217712 -0.000248848     -6.22252 
         900            0            0            0     -4.14967 
         900     0.013333  -4.8003e-05  1.24616e-08     -4.14967 
         900     0.053333  0.000161607     2.49e-07     -4.14967 
         900         0.12  0.000419787  1.54321e-06     -4.14967 
         900     0.213332  0.000624075  5.48828e-06     -4.14967 
         900     0.333332  0.000728058  1.37696e-05     -4.14967 
         900         0.48  0.000745472  2.72625e-05     -4.14967 
         900     0.653331  0.000723723  4.58894e-05     -4.14967 
         900     0.853332  0.000706368  6.90885e-05     -4.14967 
         900         1.08  0.000708937  9.58632e-05     -4.14967 
         900      1.33333  0.000706398  0.000124216     -4.14967 
         900      1.61333  0.000656717  0.000151365     -4.14967 
         900         1.92  0.000556181  0.000175522     -4.14967 
         900      2.25333  0.000433519  0.000196355     -4.14967 
         900      2.61333  0.000302183  0.000213327     -4.14968 
         900            3  0.000161166  0.000225248     -4.14968 
         950            0            0            0     -2.07521 
         950     0.013333 -7.19307e-05 -4.18977e-08     -2.07521 
         950     0.053333  9.18428e-05 -5.86003e-07     -2.07521 
         950         0.12  0.000334345 -2.33502e-06     -2.07521 
         950     0.213332  0.000577758 -5.12101e-06     -2.07521 
         950     0.333332  0.000746816 -7.38104e-06     -2.07521 
         950         0.48  0.000806338 -7.06094e-06     -2.07521 
         950     0.653331  0.000779941 -3.12156e-06     -2.07521 
         950     0.853332  0.000713425  3.90877e-06     -2.07521 
         950         1.08  0.000633616  1.27159e-05     -2.07521 
         950      1.33333  0.000548896  2.24147e-05     -2.07521 
         950      1.61333   0.00046693   3.2942e-05     -2.07521 
         950         1.92  0.000384392  4.41878e-05     -2.07521 
         950      2.25333  0.000290804  5.54407e-05     -2.07521 
         950      2.61333  0.000183914  6.58103e-05     -2.07522 
         950            3  6.99203e-05  7.50096e-05     -2.07522 
        1000            0            0            0            0 
        1000     0.013333 -8.39474e-05  2.52316e-06           -0 
        1000     0.053333  5.76802e-05  1.10415e-05           -0 
        1000         0.12  0.000267721  2.69295e-05 -1.72554e-16 
        1000     0.213332  0.000592036  2.61206e-06 -2.05168e-15 
        1000     0.333332  0.000599515 -0.000170589 -1.13383e-15 
        1000         0.48 -6.00012e-05 -0.000243263           -0 
        1000     0.653331  7.42569e-05 -0.000263282            0 
        1000     0.853332  -0.00029165 -0.000413978            0 
        1000         1.08 -0.000574862 -0.000450602            0 
        1000      1.33333  -0.00166419 -0.000317792 -1.06935e-15 
        1000      1.61333 -0.000700536  0.000269385           -0 
        1000         1.92 -0.000542177  0.000245436 -2.22992e-15 
        1000      2.25333 -0.000701102  0.000229748  -2.3494e-15 
        1000      2.61333  -0.00113383   0.00053233           -0 
        1000            3  -0.00046037  0.000619075 -2.34175e-15 
