Variables = x, y, u, v, p

Zone, I=2080, F=POINT
         -50            0            0            0     -58.1208 
         -50      0.00048 -8.05014e-06 -4.36602e-09     -58.1208 
         -50     0.001922 -2.82843e-05 -1.58601e-08     -58.1208 
         -50     0.004326 -5.09722e-05 -3.02388e-08     -58.1208 
         -50      0.00769 -6.59204e-05 -4.22432e-08     -58.1208 
         -50     0.012017 -6.82211e-05 -4.74983e-08     -58.1208 
         -50     0.017304 -6.10289e-05 -4.37388e-08     -58.1208 
         -50     0.023553 -5.33643e-05 -3.08424e-08     -58.1208 
         -50     0.030763 -5.34344e-05 -9.57744e-09     -58.1208 
         -50     0.038936 -6.15314e-05  2.01044e-08     -58.1208 
         -50     0.048069 -6.89331e-05  5.97623e-08     -58.1208 
         -50     0.058163 -6.76358e-05  1.11078e-07     -58.1208 
         -50     0.069219 -6.56713e-05  1.73262e-07     -58.1208 
         -50     0.081236 -7.84592e-05  2.45642e-07     -58.1208 
         -50     0.094215 -7.49049e-05  3.36091e-07     -58.1208 
         -50     0.108155 -8.09675e-05  4.32581e-07     -58.1208 
         -50     0.123056 -8.39729e-05  5.38752e-07     -58.1208 
         -50     0.138918 -8.63593e-05  6.51831e-07     -58.1208 
         -50     0.155744 -8.90456e-05  7.68967e-07     -58.1207 
         -50     0.173529 -9.17415e-05  8.87217e-07     -58.1207 
         -50     0.192276 -9.37204e-05  1.00365e-06     -58.1207 
         -50     0.211984 -9.47555e-05  1.11525e-06     -58.1207 
         -50     0.232655 -9.55665e-05  1.21904e-06     -58.1207 
         -50     0.254285 -9.65965e-05  1.31245e-06     -58.1207 
         -50     0.276877 -9.62297e-05  1.39381e-06     -58.1207 
         -50     0.300431  -9.6013e-05  1.46023e-06     -58.1207 
         -50     0.324946 -9.53101e-05  1.51096e-06     -58.1207 
         -50     0.350424 -9.42548e-05  1.54545e-06     -58.1206 
         -50     0.376861 -9.29412e-05  1.56327e-06     -58.1206 
         -50      0.40426  -9.1428e-05  1.56427e-06     -58.1206 
         -50     0.432621 -8.97495e-05   1.5488e-06     -58.1206 
         -50     0.461945 -8.79297e-05  1.51788e-06     -58.1206 
         -50     0.492228  -8.5997e-05  1.47324e-06     -58.1205 
         -50     0.523472 -8.39924e-05  1.41712e-06     -58.1205 
         -50     0.555678 -8.19663e-05  1.35174e-06     -58.1205 
         -50     0.588845 -7.99512e-05  1.27813e-06     -58.1204 
         -50     0.622976  -7.7904e-05  1.19388e-06     -58.1204 
         -50     0.658066 -7.59297e-05  1.10307e-06     -58.1203 
         -50     0.694117 -7.39859e-05  1.01226e-06     -58.1203 
         -50      0.73113  -7.2115e-05  9.11947e-07     -58.1202 
         -50     0.769107 -7.03497e-05   7.9737e-07     -58.1202 
         -50     0.808042 -6.87132e-05  6.67674e-07     -58.1201 
         -50     0.847939 -6.72198e-05  5.24702e-07     -58.1201 
         -50     0.888797 -6.58763e-05  3.71685e-07       -58.12 
         -50      0.93062 -6.46832e-05   2.1178e-07     -58.1199 
         -50       0.9734 -6.36366e-05  4.68186e-08     -58.1198 
         -50      1.01714 -6.27291e-05 -1.23735e-07     -58.1198 
         -50      1.06185 -6.19514e-05 -3.02953e-07     -58.1197 
         -50      1.10751 -6.12918e-05 -4.95663e-07     -58.1196 
         -50      1.15414 -6.07347e-05  -7.0599e-07     -58.1195 
         -50      1.20173 -6.02576e-05 -9.32658e-07     -58.1194 
         -50      1.25028 -5.98235e-05 -1.16148e-06     -58.1192 
         -50      1.29979 -5.93707e-05 -1.35388e-06     -58.1191 
         -50      1.35026 -5.89223e-05 -1.60088e-06      -58.119 
         -50       1.4017  -5.8686e-05 -1.92036e-06     -58.1189 
         -50      1.45409 -5.84372e-05 -2.10772e-06     -58.1187 
         -50      1.50745 -5.80842e-05 -2.23978e-06     -58.1186 
         -50      1.56176 -5.75933e-05 -2.37331e-06     -58.1184 
         -50      1.61705 -5.69785e-05 -2.54518e-06     -58.1182 
         -50      1.67329 -5.62889e-05 -2.77313e-06     -58.1181 
         -50      1.73049 -5.55943e-05 -3.05725e-06     -58.1179 
         -50      1.78865 -5.49697e-05 -3.38203e-06     -58.1177 
         -50      1.84778 -5.44804e-05 -3.71913e-06     -58.1175 
         -50      1.90786 -5.41668e-05 -4.03067e-06     -58.1173 
         -50      1.96891 -5.40313e-05 -4.27342e-06      -58.117 
         -50      2.03092  -5.4029e-05 -4.40324e-06     -58.1168 
         -50      2.09389 -5.40628e-05 -4.38025e-06     -58.1165 
         -50      2.15782 -5.39855e-05 -4.17434e-06     -58.1163 
         -50      2.22272 -5.36107e-05 -3.77096e-06      -58.116 
         -50      2.28857 -5.27367e-05 -3.17717e-06     -58.1157 
         -50      2.35539 -5.11832e-05 -2.42748e-06     -58.1154 
         -50      2.42317 -4.88479e-05 -1.58955e-06     -58.1151 
         -50      2.49191 -4.57845e-05 -7.69658e-07     -58.1148 
         -50      2.56161 -4.23068e-05 -1.16678e-07     -58.1144 
         -50      2.63226 -3.91239e-05  1.74427e-07     -58.1141 
         -50      2.70389 -3.75132e-05 -1.39092e-07     -58.1137 
         -50      2.77648 -3.81838e-05 -1.24107e-06     -58.1133 
         -50      2.85002 -3.85358e-05  -2.6152e-06      -58.113 
         -50      2.92453 -3.92117e-05 -4.09921e-06     -58.1125 
         -50            3 -3.99453e-05 -5.62074e-06     -58.1121 
         -25            0 -6.50133e-20 -1.81132e-23     -55.7731 
         -25      0.00048 -6.07865e-06 -1.72212e-09     -55.7731 
         -25     0.001922 -2.14556e-05 -6.40787e-09     -55.7731 
         -25     0.004326 -3.90218e-05 -1.28362e-08     -55.7731 
         -25      0.00769  -5.1317e-05 -1.96734e-08     -55.7731 
         -25     0.012017 -5.47225e-05 -2.62091e-08     -55.7731 
         -25     0.017304 -5.14811e-05 -3.28104e-08     -55.7731 
         -25     0.023553 -4.81049e-05 -4.09193e-08     -55.7731 
         -25     0.030763 -5.05096e-05   -5.252e-08     -55.7731 
         -25     0.038936 -5.88473e-05 -6.94419e-08     -55.7731 
         -25     0.048069 -6.67077e-05 -9.30147e-08     -55.7731 
         -25     0.058163 -6.82135e-05 -1.24587e-07     -55.7731 
         -25     0.069219   -6.918e-05 -1.66478e-07     -55.7731 
         -25     0.081236 -8.08142e-05 -2.20888e-07     -55.7731 
         -25     0.094215  -8.0448e-05 -2.86566e-07     -55.7731 
         -25     0.108155 -8.69922e-05 -3.69903e-07     -55.7731 
         -25     0.123056 -9.12202e-05 -4.70938e-07     -55.7731 
         -25     0.138918 -9.49258e-05 -5.92013e-07     -55.7731 
         -25     0.155744 -9.88029e-05 -7.35329e-07     -55.7731 
         -25     0.173529 -0.000102668 -9.02813e-07     -55.7731 
         -25     0.192276 -0.000106023 -1.09626e-06      -55.773 
         -25     0.211984 -0.000108732 -1.31725e-06      -55.773 
         -25     0.232655 -0.000111348 -1.56725e-06      -55.773 
         -25     0.254285 -0.000114215 -1.84738e-06      -55.773 
         -25     0.276877 -0.000116177 -2.15841e-06      -55.773 
         -25     0.300431 -0.000118373 -2.50114e-06      -55.773 
         -25     0.324946 -0.000120348 -2.87605e-06      -55.773 
         -25     0.350424 -0.000122201 -3.28329e-06      -55.773 
         -25     0.376861 -0.000123998 -3.72265e-06      -55.773 
         -25      0.40426 -0.000125777 -4.19378e-06      -55.773 
         -25     0.432621 -0.000127549 -4.69601e-06      -55.773 
         -25     0.461945 -0.000129315 -5.22846e-06      -55.773 
         -25     0.492228 -0.000131071 -5.78986e-06      -55.773 
         -25     0.523472 -0.000132817 -6.37877e-06      -55.773 
         -25     0.555678 -0.000134553 -6.99328e-06     -55.7729 
         -25     0.588845 -0.000136257  -7.6309e-06     -55.7729 
         -25     0.622976 -0.000137842 -8.28866e-06     -55.7729 
         -25     0.658066 -0.000139305 -8.96844e-06     -55.7729 
         -25     0.694117  -0.00014058 -9.66211e-06     -55.7729 
         -25      0.73113 -0.000141598  -1.0365e-05     -55.7729 
         -25     0.769107 -0.000142294  -1.1073e-05     -55.7728 
         -25     0.808042 -0.000142605 -1.17821e-05     -55.7728 
         -25     0.847939 -0.000142478 -1.24884e-05     -55.7728 
         -25     0.888797 -0.000141873 -1.31885e-05     -55.7728 
         -25      0.93062 -0.000140761 -1.38786e-05     -55.7727 
         -25       0.9734 -0.000139136 -1.45547e-05     -55.7727 
         -25      1.01714 -0.000137005 -1.52131e-05     -55.7727 
         -25      1.06185 -0.000134396 -1.58497e-05     -55.7726 
         -25      1.10751 -0.000131352  -1.6461e-05     -55.7726 
         -25      1.15414 -0.000127922  -1.7044e-05     -55.7726 
         -25      1.20173  -0.00012415 -1.75979e-05     -55.7725 
         -25      1.25028 -0.000120058 -1.81248e-05     -55.7725 
         -25      1.29979 -0.000115623 -1.86321e-05     -55.7724 
         -25      1.35026 -0.000110915 -1.91318e-05     -55.7724 
         -25       1.4017 -0.000106284 -1.95753e-05     -55.7723 
         -25      1.45409 -0.000101536 -1.99572e-05     -55.7723 
         -25      1.50745 -9.66342e-05 -2.02939e-05     -55.7722 
         -25      1.56176 -9.15934e-05 -2.05973e-05     -55.7721 
         -25      1.61705  -8.6471e-05 -2.08757e-05     -55.7721 
         -25      1.67329 -8.13578e-05 -2.11336e-05      -55.772 
         -25      1.73049 -7.63644e-05  -2.1372e-05     -55.7719 
         -25      1.78865 -7.16098e-05 -2.15891e-05     -55.7718 
         -25      1.84778 -6.72076e-05 -2.17804e-05     -55.7718 
         -25      1.90786 -6.32539e-05 -2.19397e-05     -55.7717 
         -25      1.96891 -5.98123e-05 -2.20598e-05     -55.7716 
         -25      2.03092 -5.69051e-05 -2.21328e-05     -55.7715 
         -25      2.09389 -5.45047e-05 -2.21515e-05     -55.7714 
         -25      2.15782 -5.25307e-05 -2.21096e-05     -55.7713 
         -25      2.22272 -5.08515e-05 -2.20029e-05     -55.7712 
         -25      2.28857  -4.9295e-05 -2.18293e-05     -55.7711 
         -25      2.35539 -4.76688e-05 -2.15898e-05      -55.771 
         -25      2.42317 -4.57923e-05  -2.1288e-05     -55.7708 
         -25      2.49191  -4.3545e-05 -2.09307e-05     -55.7707 
         -25      2.56161 -4.09311e-05 -2.05266e-05     -55.7706 
         -25      2.63226  -3.8168e-05 -2.00853e-05     -55.7704 
         -25      2.70389 -3.57987e-05 -1.96156e-05     -55.7703 
         -25      2.77648 -3.45611e-05 -1.94501e-05     -55.7702 
         -25      2.85002 -3.30684e-05 -1.89844e-05       -55.77 
         -25      2.92453 -3.17542e-05 -1.84825e-05     -55.7698 
         -25            3 -3.07403e-05 -1.81179e-05     -55.7697 
           0            0 -5.09416e-20 -8.72072e-24     -53.9287 
           0      0.00048 -4.74929e-06 -8.36696e-10     -53.9287 
           0     0.001922 -1.66045e-05 -3.20547e-09     -53.9287 
           0     0.004326 -2.96214e-05 -6.78114e-09     -53.9287 
           0      0.00769 -3.75711e-05 -1.13334e-08     -53.9287 
           0     0.012017 -3.74469e-05 -1.70475e-08     -53.9287 
           0     0.017304 -3.11644e-05 -2.46901e-08     -53.9287 
           0     0.023553 -2.42204e-05 -3.55582e-08     -53.9287 
           0     0.030763 -2.16224e-05 -5.11543e-08     -53.9287 
           0     0.038936  -2.3556e-05 -7.27945e-08     -53.9287 
           0     0.048069 -2.47213e-05 -1.01367e-07     -53.9287 
           0     0.058163 -2.02711e-05 -1.37541e-07     -53.9287 
           0     0.069219 -1.51617e-05 -1.82172e-07     -53.9287 
           0     0.081236 -1.88697e-05 -2.35737e-07     -53.9287 
           0     0.094215 -1.24903e-05 -2.96719e-07     -53.9287 
           0     0.108155 -1.19579e-05  -3.6693e-07     -53.9287 
           0     0.123056 -9.62378e-06 -4.44807e-07     -53.9287 
           0     0.138918 -7.06704e-06 -5.29607e-07     -53.9286 
           0     0.155744  -4.9346e-06 -6.20278e-07     -53.9286 
           0     0.173529 -3.12821e-06 -7.15451e-07     -53.9286 
           0     0.192276  -1.2691e-06 -8.13602e-07     -53.9286 
           0     0.211984  7.30999e-07 -9.13075e-07     -53.9286 
           0     0.232655      2.4e-06  -1.0122e-06     -53.9286 
           0     0.254285  3.45214e-06 -1.10926e-06     -53.9286 
           0     0.276877  4.87732e-06 -1.20267e-06     -53.9286 
           0     0.300431  5.74787e-06 -1.29086e-06     -53.9286 
           0     0.324946  6.48446e-06 -1.37261e-06     -53.9286 
           0     0.350424  7.04633e-06 -1.44696e-06     -53.9286 
           0     0.376861  7.42203e-06  -1.5131e-06     -53.9286 
           0      0.40426  7.62367e-06 -1.57046e-06     -53.9286 
           0     0.432621  7.67732e-06 -1.61872e-06     -53.9286 
           0     0.461945  7.61149e-06 -1.65798e-06     -53.9286 
           0     0.492228   7.4459e-06 -1.68868e-06     -53.9286 
           0     0.523472  7.18402e-06 -1.71162e-06     -53.9286 
           0     0.555678  6.81481e-06 -1.72779e-06     -53.9286 
           0     0.588845  6.33095e-06 -1.73803e-06     -53.9286 
           0     0.622976    5.768e-06 -1.74253e-06     -53.9286 
           0     0.658066  5.06815e-06 -1.74401e-06     -53.9286 
           0     0.694117  4.24328e-06 -1.74354e-06     -53.9286 
           0      0.73113  3.27824e-06 -1.74146e-06     -53.9286 
           0     0.769107  2.16277e-06 -1.73819e-06     -53.9285 
           0     0.808042  8.92345e-07  -1.7342e-06     -53.9285 
           0     0.847939 -5.31932e-07 -1.72988e-06     -53.9285 
           0     0.888797 -2.10263e-06 -1.72544e-06     -53.9285 
           0      0.93062 -3.80638e-06 -1.72079e-06     -53.9285 
           0       0.9734 -5.62344e-06 -1.71551e-06     -53.9285 
           0      1.01714 -7.52942e-06 -1.70878e-06     -53.9285 
           0      1.06185 -9.49533e-06 -1.69943e-06     -53.9284 
           0      1.10751 -1.14896e-05 -1.68606e-06     -53.9284 
           0      1.15414 -1.34798e-05 -1.66732e-06     -53.9284 
           0      1.20173 -1.54346e-05 -1.64235e-06     -53.9284 
           0      1.25028 -1.73277e-05  -1.6114e-06     -53.9284 
           0      1.29979 -1.91409e-05 -1.57684e-06     -53.9283 
           0      1.35026 -2.08744e-05 -1.54607e-06     -53.9283 
           0       1.4017 -2.25763e-05 -1.50324e-06     -53.9283 
           0      1.45409 -2.42306e-05 -1.44487e-06     -53.9283 
           0      1.50745 -2.58129e-05 -1.37935e-06     -53.9282 
           0      1.56176 -2.73075e-05 -1.31246e-06     -53.9282 
           0      1.61705 -2.87084e-05  -1.2477e-06     -53.9282 
           0      1.67329 -3.00176e-05 -1.18676e-06     -53.9281 
           0      1.73049 -3.12459e-05 -1.12998e-06     -53.9281 
           0      1.78865 -3.24111e-05 -1.07693e-06     -53.9281 
           0      1.84778 -3.35371e-05 -1.02687e-06      -53.928 
           0      1.90786  -3.4652e-05 -9.79358e-07      -53.928 
           0      1.96891 -3.57871e-05 -9.34585e-07     -53.9279 
           0      2.03092 -3.69734e-05  -8.9371e-07     -53.9279 
           0      2.09389 -3.82403e-05 -8.58914e-07     -53.9279 
           0      2.15782 -3.96116e-05 -8.33202e-07     -53.9278 
           0      2.22272 -4.11034e-05 -8.19789e-07     -53.9278 
           0      2.28857 -4.27196e-05 -8.21021e-07     -53.9277 
           0      2.35539 -4.44494e-05 -8.36663e-07     -53.9276 
           0      2.42317 -4.62624e-05 -8.61436e-07     -53.9276 
           0      2.49191 -4.81049e-05 -8.81621e-07     -53.9275 
           0      2.56161 -4.98965e-05 -8.70586e-07     -53.9275 
           0      2.63226 -5.15255e-05 -7.82987e-07     -53.9274 
           0      2.70389 -5.28453e-05 -5.47421e-07     -53.9273 
           0      2.77648 -5.37332e-05 -2.20767e-07     -53.9273 
           0      2.85002 -5.42812e-05  6.12143e-08     -53.9272 
           0      2.92453  -5.4594e-05  4.75631e-07     -53.9271 
           0            3 -5.47975e-05  9.36535e-07      -53.927 
          20            0 -4.91893e-20 -5.21777e-24     -52.6295 
          20      0.00048 -4.59603e-06 -5.05426e-10     -52.6295 
          20     0.001922 -1.61863e-05 -1.99558e-09     -52.6295 
          20     0.004326 -2.93057e-05 -4.45479e-09     -52.6295 
          20      0.00769 -3.82175e-05  -8.0541e-09     -52.6295 
          20     0.012017 -4.01327e-05 -1.33601e-08     -52.6295 
          20     0.017304 -3.67643e-05 -2.14491e-08     -52.6295 
          20     0.023553 -3.31023e-05 -3.38995e-08     -52.6295 
          20     0.030763 -3.36787e-05 -5.26096e-08     -52.6295 
          20     0.038936 -3.85981e-05 -7.95798e-08     -52.6295 
          20     0.048069 -4.29275e-05 -1.16759e-07     -52.6295 
          20     0.058163 -4.21478e-05 -1.66176e-07     -52.6295 
          20     0.069219 -4.07274e-05 -2.30162e-07     -52.6295 
          20     0.081236   -4.728e-05 -3.10978e-07     -52.6295 
          20     0.094215 -4.43951e-05 -4.09824e-07     -52.6295 
          20     0.108155 -4.66202e-05 -5.29953e-07     -52.6295 
          20     0.123056 -4.68822e-05 -6.72625e-07     -52.6295 
          20     0.138918 -4.65831e-05  -8.3955e-07     -52.6295 
          20     0.155744 -4.62827e-05 -1.03217e-06     -52.6295 
          20     0.173529 -4.58701e-05 -1.25153e-06     -52.6295 
          20     0.192276 -4.49924e-05 -1.49842e-06     -52.6295 
          20     0.211984 -4.35769e-05 -1.77329e-06     -52.6295 
          20     0.232655  -4.2078e-05 -2.07637e-06     -52.6295 
          20     0.254285  -4.0791e-05 -2.40752e-06     -52.6295 
          20     0.276877 -3.88514e-05 -2.76648e-06     -52.6295 
          20     0.300431 -3.71611e-05  -3.1528e-06     -52.6295 
          20     0.324946 -3.53911e-05 -3.56572e-06     -52.6295 
          20     0.350424 -3.36383e-05 -4.00459e-06     -52.6295 
          20     0.376861  -3.1973e-05 -4.46864e-06     -52.6295 
          20      0.40426 -3.04416e-05 -4.95718e-06     -52.6295 
          20     0.432621 -2.90724e-05 -5.46946e-06     -52.6295 
          20     0.461945 -2.78845e-05 -6.00467e-06     -52.6295 
          20     0.492228 -2.68962e-05 -6.56185e-06     -52.6295 
          20     0.523472 -2.61299e-05 -7.14006e-06     -52.6295 
          20     0.555678 -2.56098e-05 -7.73822e-06     -52.6295 
          20     0.588845 -2.53446e-05 -8.35511e-06     -52.6295 
          20     0.622976 -2.52921e-05 -8.98979e-06     -52.6295 
          20     0.658066 -2.54819e-05 -9.64218e-06     -52.6295 
          20     0.694117 -2.58778e-05 -1.03067e-05     -52.6295 
          20      0.73113 -2.64538e-05 -1.09834e-05     -52.6294 
          20     0.769107 -2.71787e-05  -1.1671e-05     -52.6294 
          20     0.808042  -2.8018e-05 -1.23671e-05     -52.6294 
          20     0.847939 -2.89351e-05 -1.30688e-05     -52.6294 
          20     0.888797  -2.9894e-05 -1.37724e-05     -52.6294 
          20      0.93062 -3.08613e-05 -1.44745e-05     -52.6294 
          20       0.9734 -3.18075e-05 -1.51715e-05     -52.6294 
          20      1.01714 -3.27094e-05 -1.58608e-05     -52.6294 
          20      1.06185 -3.35503e-05 -1.65401e-05     -52.6294 
          20      1.10751 -3.43201e-05  -1.7208e-05     -52.6294 
          20      1.15414 -3.50133e-05 -1.78632e-05     -52.6294 
          20      1.20173 -3.56244e-05 -1.85037e-05     -52.6293 
          20      1.25028 -3.61417e-05 -1.91258e-05     -52.6293 
          20      1.29979  -3.6536e-05 -1.97212e-05     -52.6293 
          20      1.35026  -3.6871e-05 -2.02944e-05     -52.6293 
          20       1.4017  -3.7529e-05 -2.08514e-05     -52.6293 
          20      1.45409 -3.83635e-05 -2.13656e-05     -52.6293 
          20      1.50745 -3.92612e-05 -2.18389e-05     -52.6293 
          20      1.56176 -4.01307e-05 -2.22726e-05     -52.6292 
          20      1.61705 -4.09007e-05  -2.2667e-05     -52.6292 
          20      1.67329 -4.15178e-05 -2.30216e-05     -52.6292 
          20      1.73049 -4.19442e-05  -2.3335e-05     -52.6292 
          20      1.78865 -4.21542e-05  -2.3605e-05     -52.6292 
          20      1.84778 -4.21311e-05 -2.38282e-05     -52.6291 
          20      1.90786 -4.18632e-05  -2.4001e-05     -52.6291 
          20      1.96891 -4.13405e-05 -2.41188e-05     -52.6291 
          20      2.03092 -4.05519e-05  -2.4177e-05     -52.6291 
          20      2.09389 -3.94825e-05  -2.4171e-05      -52.629 
          20      2.15782 -3.81132e-05  -2.4097e-05      -52.629 
          20      2.22272 -3.64209e-05 -2.39521e-05      -52.629 
          20      2.28857 -3.43821e-05 -2.37357e-05     -52.6289 
          20      2.35539 -3.19789e-05 -2.34499e-05     -52.6289 
          20      2.42317 -2.92085e-05 -2.31009e-05     -52.6289 
          20      2.49191 -2.60996e-05 -2.27004e-05     -52.6288 
          20      2.56161 -2.27311e-05  -2.2267e-05     -52.6288 
          20      2.63226 -1.92604e-05  -2.1828e-05     -52.6288 
          20      2.70389 -1.59591e-05 -2.14221e-05     -52.6287 
          20      2.77648 -1.29646e-05 -2.11113e-05     -52.6287 
          20      2.85002  -1.0512e-05 -2.09293e-05     -52.6286 
          20      2.92453 -8.75387e-06 -2.10534e-05     -52.6286 
          20            3 -7.94883e-06 -2.12835e-05     -52.6285 
          40            0 -4.49219e-20 -3.23088e-24     -51.4186 
          40      0.00048 -4.19158e-06 -3.06608e-10     -51.4186 
          40     0.001922 -1.46958e-05 -1.13359e-09     -51.4186 
          40     0.004326 -2.63687e-05  -2.2397e-09     -51.4186 
          40      0.00769 -3.38227e-05 -3.34126e-09     -51.4186 
          40     0.012017 -3.44647e-05 -4.23363e-09     -51.4186 
          40     0.017304 -2.99663e-05 -4.86023e-09     -51.4186 
          40     0.023553 -2.51016e-05 -5.29739e-09     -51.4186 
          40     0.030763 -2.42184e-05 -5.64497e-09     -51.4186 
          40     0.038936 -2.74839e-05 -5.88679e-09     -51.4186 
          40     0.048069  -3.0308e-05 -5.81915e-09     -51.4186 
          40     0.058163 -2.84903e-05  -5.1321e-09     -51.4186 
          40     0.069219 -2.63192e-05 -3.57636e-09     -51.4186 
          40     0.081236 -3.19917e-05 -7.76701e-10     -51.4186 
          40     0.094215 -2.91067e-05  4.35383e-09     -51.4186 
          40     0.108155 -3.14494e-05  1.16393e-08     -51.4186 
          40     0.123056  -3.2361e-05  2.20631e-08     -51.4186 
          40     0.138918 -3.31772e-05  3.62289e-08     -51.4186 
          40     0.155744 -3.44237e-05  5.47746e-08     -51.4186 
          40     0.173529 -3.59775e-05  7.83176e-08     -51.4186 
          40     0.192276  -3.7474e-05   1.0742e-07     -51.4186 
          40     0.211984 -3.88014e-05  1.42526e-07     -51.4186 
          40     0.232655 -4.03372e-05  1.83959e-07     -51.4186 
          40     0.254285 -4.23002e-05  2.31954e-07     -51.4186 
          40     0.276877 -4.38095e-05  2.86699e-07     -51.4186 
          40     0.300431 -4.56501e-05  3.47732e-07     -51.4186 
          40     0.324946 -4.74443e-05  4.14994e-07     -51.4186 
          40     0.350424  -4.9219e-05  4.88242e-07     -51.4186 
          40     0.376861 -5.09787e-05  5.66978e-07     -51.4186 
          40      0.40426 -5.27108e-05   6.5058e-07     -51.4186 
          40     0.432621 -5.43915e-05   7.3838e-07     -51.4186 
          40     0.461945 -5.59955e-05  8.29781e-07     -51.4186 
          40     0.492228 -5.75029e-05  9.24311e-07     -51.4186 
          40     0.523472 -5.89052e-05  1.02165e-06     -51.4186 
          40     0.555678 -6.02022e-05  1.12146e-06     -51.4186 
          40     0.588845 -6.13854e-05  1.22298e-06     -51.4186 
          40     0.622976  -6.2405e-05  1.32479e-06     -51.4186 
          40     0.658066 -6.32867e-05  1.43265e-06     -51.4186 
          40     0.694117 -6.40023e-05  1.54141e-06     -51.4186 
          40      0.73113 -6.45344e-05   1.6525e-06     -51.4186 
          40     0.769107 -6.48684e-05  1.76711e-06     -51.4186 
          40     0.808042 -6.49934e-05  1.88617e-06     -51.4186 
          40     0.847939 -6.49032e-05  2.01038e-06     -51.4186 
          40     0.888797 -6.45974e-05   2.1402e-06     -51.4186 
          40      0.93062 -6.40817e-05  2.27587e-06     -51.4186 
          40       0.9734 -6.33692e-05  2.41739e-06     -51.4185 
          40      1.01714 -6.24803e-05  2.56453e-06     -51.4185 
          40      1.06185 -6.14423e-05  2.71673e-06     -51.4185 
          40      1.10751 -6.02888e-05  2.87305e-06     -51.4185 
          40      1.15414 -5.90576e-05   3.0319e-06     -51.4185 
          40      1.20173 -5.77882e-05  3.19076e-06     -51.4185 
          40      1.25028 -5.65169e-05  3.34579e-06     -51.4185 
          40      1.29979 -5.52709e-05  3.49119e-06     -51.4185 
          40      1.35026 -5.40445e-05   3.6452e-06     -51.4185 
          40       1.4017 -5.27712e-05  3.80931e-06     -51.4185 
          40      1.45409 -5.14803e-05  3.94864e-06     -51.4185 
          40      1.50745 -5.02096e-05  4.07393e-06     -51.4185 
          40      1.56176 -4.89974e-05  4.19182e-06     -51.4184 
          40      1.61705 -4.78807e-05  4.30549e-06     -51.4184 
          40      1.67329 -4.68933e-05  4.41525e-06     -51.4184 
          40      1.73049 -4.60633e-05  4.51941e-06     -51.4184 
          40      1.78865 -4.54114e-05  4.61506e-06     -51.4184 
          40      1.84778  -4.4949e-05  4.69901e-06     -51.4184 
          40      1.90786 -4.46764e-05  4.76864e-06     -51.4184 
          40      1.96891 -4.45818e-05  4.82273e-06     -51.4184 
          40      2.03092 -4.46401e-05  4.86205e-06     -51.4183 
          40      2.09389 -4.48136e-05  4.88981e-06     -51.4183 
          40      2.15782 -4.50529e-05  4.91157e-06     -51.4183 
          40      2.22272  -4.5299e-05  4.93486e-06     -51.4183 
          40      2.28857 -4.54878e-05  4.96797e-06     -51.4183 
          40      2.35539 -4.55557e-05  5.01806e-06     -51.4182 
          40      2.42317 -4.54479e-05  5.08816e-06     -51.4182 
          40      2.49191 -4.51294e-05  5.17293e-06     -51.4182 
          40      2.56161 -4.45995e-05  5.25306e-06     -51.4182 
          40      2.63226 -4.39095e-05  5.28772e-06     -51.4181 
          40      2.70389 -4.31857e-05    5.205e-06     -51.4181 
          40      2.77648 -4.26104e-05  5.10482e-06     -51.4181 
          40      2.85002 -4.20437e-05  5.22185e-06     -51.4181 
          40      2.92453 -4.14792e-05  5.24659e-06      -51.418 
          40            3 -4.09744e-05  5.16861e-06      -51.418 
          60            0            0            0     -50.2622 
          60      0.00048 -3.83828e-06 -1.98011e-10     -50.2622 
          60     0.001922 -1.33593e-05 -7.83367e-10     -50.2622 
          60     0.004326 -2.36129e-05 -1.74774e-09     -50.2622 
          60      0.00769 -2.94189e-05  -3.1322e-09     -50.2622 
          60     0.012017  -2.8292e-05 -5.07782e-09     -50.2622 
          60     0.017304 -2.18628e-05 -7.83113e-09     -50.2622 
          60     0.023553 -1.47538e-05  -1.1697e-08     -50.2622 
          60     0.030763 -1.11828e-05 -1.69239e-08     -50.2622 
          60     0.038936 -1.13443e-05 -2.35778e-08     -50.2622 
          60     0.048069 -1.08555e-05 -3.14552e-08     -50.2622 
          60     0.058163 -5.71154e-06 -4.01144e-08     -50.2622 
          60     0.069219 -8.95721e-08 -4.89621e-08     -50.2622 
          60     0.081236 -1.93419e-06 -5.71318e-08     -50.2622 
          60     0.094215  4.51134e-06 -6.31276e-08     -50.2622 
          60     0.108155  5.91826e-06 -6.60835e-08     -50.2622 
          60     0.123056  8.66008e-06 -6.42843e-08     -50.2622 
          60     0.138918  1.14103e-05  -5.6164e-08     -50.2622 
          60     0.155744  1.36285e-05 -4.00829e-08     -50.2622 
          60     0.173529  1.54034e-05 -1.44134e-08     -50.2622 
          60     0.192276   1.7064e-05  2.23962e-08     -50.2622 
          60     0.211984  1.87017e-05  7.17397e-08     -50.2622 
          60     0.232655  1.99433e-05  1.34825e-07     -50.2622 
          60     0.254285  2.05735e-05  2.12669e-07     -50.2622 
          60     0.276877  2.14431e-05   3.0613e-07     -50.2622 
          60     0.300431  2.18013e-05  4.15427e-07     -50.2622 
          60     0.324946  2.20214e-05  5.40948e-07     -50.2622 
          60     0.350424  2.20895e-05  6.82789e-07     -50.2622 
          60     0.376861  2.20139e-05  8.40635e-07     -50.2622 
          60      0.40426  2.18197e-05  1.01389e-06     -50.2622 
          60     0.432621  2.15407e-05   1.2017e-06     -50.2622 
          60     0.461945  2.12098e-05  1.40306e-06     -50.2622 
          60     0.492228  2.08499e-05  1.61682e-06     -50.2622 
          60     0.523472  2.04681e-05  1.84177e-06     -50.2622 
          60     0.555678  2.00574e-05  2.07644e-06     -50.2622 
          60     0.588845  1.96116e-05  2.31874e-06     -50.2622 
          60     0.622976  1.91569e-05  2.56565e-06     -50.2622 
          60     0.658066  1.86373e-05  2.81778e-06     -50.2622 
          60     0.694117  1.80641e-05  3.07087e-06     -50.2622 
          60      0.73113    1.741e-05  3.32297e-06     -50.2622 
          60     0.769107  1.66537e-05  3.57219e-06     -50.2622 
          60     0.808042  1.57806e-05  3.81675e-06     -50.2621 
          60     0.847939  1.47838e-05   4.0551e-06     -50.2621 
          60     0.888797  1.36641e-05  4.28596e-06     -50.2621 
          60      0.93062  1.24304e-05  4.50837e-06     -50.2621 
          60       0.9734  1.10991e-05  4.72168e-06     -50.2621 
          60      1.01714  9.69245e-06  4.92572e-06     -50.2621 
          60      1.06185  8.23729e-06  5.12065e-06     -50.2621 
          60      1.10751  6.76169e-06  5.30699e-06     -50.2621 
          60      1.15414  5.29117e-06  5.48554e-06     -50.2621 
          60      1.20173  3.84389e-06  5.65715e-06     -50.2621 
          60      1.25028   2.4234e-06  5.82257e-06     -50.2621 
          60      1.29979   1.0108e-06  5.98209e-06     -50.2621 