Variables = x, y, u, v, p

Zone, I=416, F=POINT
         -50            0            0            0      68.9863 
         -50     0.013333  0.000114924  8.38999e-08      68.9863 
         -50     0.053333  0.000108488  2.45364e-07      68.9863 
         -50         0.12  9.30158e-05  6.49913e-07      68.9862 
         -50     0.213332  8.18182e-05  1.26923e-06      68.9862 
         -50     0.333332  7.75442e-05   1.9914e-06      68.9861 
         -50         0.48  7.81434e-05  2.79135e-06       68.986 
         -50     0.653331  8.28722e-05  3.74169e-06      68.9858 
         -50     0.853332  9.02701e-05  4.96853e-06      68.9854 
         -50         1.08  9.75974e-05  6.41955e-06      68.9849 
         -50      1.33333   0.00010411  7.99351e-06      68.9842 
         -50      1.61333  0.000113286  9.56346e-06      68.9832 
         -50         1.92  0.000121625   1.0423e-05       68.982 
         -50      2.25333  0.000127916  1.16604e-05      68.9804 
         -50      2.61333  0.000123381  5.65544e-06      68.9784 
         -50            3  0.000109085 -7.04916e-06      68.9759 
         -25            0  1.02329e-19  2.26583e-23      66.1886 
         -25     0.013333  7.72669e-05  1.61138e-08      66.1886 
         -25     0.053333  6.19287e-05 -1.63262e-07      66.1886 
         -25         0.12  5.03653e-05 -9.72389e-07      66.1886 
         -25     0.213332  5.81958e-05 -2.94245e-06      66.1886 
         -25     0.333332  7.91441e-05 -6.34402e-06      66.1886 
         -25         0.48  9.79347e-05 -1.11401e-05      66.1885 
         -25     0.653331  0.000103961 -1.71372e-05      66.1884 
         -25     0.853332  9.70726e-05 -2.38544e-05      66.1883 
         -25         1.08  8.70329e-05 -3.04112e-05      66.1881 
         -25      1.33333  8.01214e-05 -3.59485e-05      66.1878 
         -25      1.61333  7.15092e-05 -3.97263e-05      66.1874 
         -25         1.92  6.42173e-05 -4.15039e-05       66.187 
         -25      2.25333  6.42917e-05 -4.02483e-05      66.1863 
         -25      2.61333  7.16453e-05 -3.81252e-05      66.1856 
         -25            3  7.34957e-05 -3.84466e-05      66.1846 
           0            0  8.51454e-20  1.08894e-23      63.9925 
           0     0.013333  6.33674e-05  5.87324e-10      63.9925 
           0     0.053333  4.71257e-05 -1.89198e-07      63.9924 
           0         0.12  3.25491e-05 -9.82584e-07      63.9924 
           0     0.213332   3.2591e-05 -2.82168e-06      63.9924 
           0     0.333332  4.19946e-05 -5.87015e-06      63.9924 
           0         0.48  4.99453e-05 -1.00197e-05      63.9924 
           0     0.653331  5.10852e-05 -1.50512e-05      63.9924 
           0     0.853332  4.76362e-05 -2.05501e-05      63.9923 
           0         1.08  4.62947e-05 -2.58336e-05      63.9922 
           0      1.33333  4.88626e-05 -3.03053e-05      63.9921 
           0      1.61333  4.96933e-05 -3.34606e-05      63.9919 
           0         1.92  4.76177e-05 -3.49858e-05      63.9917 
           0      2.25333  4.00919e-05 -3.50605e-05      63.9914 
           0      2.61333  3.46864e-05  -3.3497e-05       63.991 
           0            3  3.87867e-05 -3.03282e-05      63.9905 
          20            0  8.02851e-20  6.51046e-24      62.4458 
          20     0.013333  6.34471e-05   1.1558e-08      62.4458 
          20     0.053333  5.76119e-05  6.30919e-08      62.4458 
          20         0.12  4.31296e-05  2.52856e-07      62.4458 
          20     0.213332   2.6286e-05  6.65097e-07      62.4458 
          20     0.333332  1.05726e-05  1.26893e-06      62.4458 
          20         0.48 -1.81941e-06  1.89826e-06      62.4458 
          20     0.653331 -9.39476e-06  2.40791e-06      62.4458 
          20     0.853332 -1.01049e-05  2.83924e-06      62.4457 
          20         1.08 -1.96039e-06  3.33938e-06      62.4457 
          20      1.33333  1.14219e-05  3.91048e-06      62.4456 
          20      1.61333  2.64378e-05  4.32202e-06      62.4455 
          20         1.92  3.92085e-05  4.68189e-06      62.4453 
          20      2.25333  4.57876e-05  4.54064e-06      62.4452 
          20      2.61333  4.91288e-05  4.82294e-06      62.4449 
          20            3  5.62111e-05  8.47622e-06      62.4447 
          40            0  8.13369e-20  4.03066e-24      61.0044 
          40     0.013333  7.43713e-05  3.65827e-09      61.0044 
          40     0.053333  0.000106812  1.26775e-08      61.0044 
          40         0.12  0.000139227  2.04928e-07      61.0044 
          40     0.213332  0.000159409  1.04808e-06      61.0044 
          40     0.333332  0.000162683   3.0478e-06      61.0044 
          40         0.48  0.000156922  6.38141e-06      61.0044 
          40     0.653331  0.000151636  1.08205e-05      61.0044 
          40     0.853332  0.000146325   1.5804e-05      61.0043 
          40         1.08  0.000135073  2.06531e-05      61.0043 
          40      1.33333  0.000117643  2.49462e-05      61.0043 
          40      1.61333  9.73043e-05   2.8355e-05      61.0042 
          40         1.92  7.33828e-05  3.02246e-05      61.0041 
          40      2.25333  4.84815e-05  3.06973e-05       61.004 
          40      2.61333  2.55373e-05  2.98247e-05      61.0038 
          40            3   1.9207e-05  3.13063e-05      61.0037 
          60            0            0            0      59.6278 
          60     0.013333  6.35975e-05 -1.81134e-08      59.6278 
          60     0.053333  7.96699e-05 -2.99929e-07      59.6278 
          60         0.12  0.000106193 -1.26347e-06      59.6278 
          60     0.213332  0.000139235 -3.05116e-06      59.6278 
          60     0.333332  0.000165449  -5.3583e-06      59.6278 
          60         0.48  0.000178198 -7.77854e-06      59.6278 
          60     0.653331  0.000178784 -1.01959e-05      59.6278 
          60     0.853332  0.000167764 -1.27661e-05      59.6278 
          60         1.08  0.000147174 -1.55274e-05      59.6278 
          60      1.33333  0.000124915 -1.81307e-05      59.6278 
          60      1.61333  0.000100018 -2.00617e-05      59.6277 
          60         1.92  7.92934e-05 -2.11865e-05      59.6277 
          60      2.25333  6.49314e-05 -2.13933e-05      59.6276 
          60      2.61333  4.70164e-05 -2.15945e-05      59.6275 
          60            3  2.74668e-05 -2.31994e-05      59.6274 
          80            0            0            0      58.2922 
          80     0.013333  5.02811e-05 -1.83122e-08      58.2922 
          80     0.053333  3.65973e-05 -3.13566e-07      58.2922 
          80         0.12  3.10621e-05 -1.48059e-06      58.2922 
          80     0.213332  4.47363e-05  -4.0791e-06      58.2922 
          80     0.333332  6.71873e-05 -8.19371e-06      58.2922 
          80         0.48  8.36663e-05 -1.34868e-05      58.2922 
          80     0.653331  8.81158e-05 -1.95863e-05      58.2922 
          80     0.853332  8.23837e-05 -2.61372e-05      58.2922 
          80         1.08  7.38787e-05 -3.25654e-05      58.2922 
          80      1.33333  6.90708e-05 -3.82144e-05      58.2922 
          80      1.61333  6.23823e-05 -4.25329e-05      58.2921 
          80         1.92  5.84005e-05 -4.48222e-05      58.2921 
          80      2.25333  6.02918e-05  -4.5057e-05      58.2921 
          80      2.61333  6.07606e-05 -4.35184e-05       58.292 
          80            3  5.82542e-05 -4.06674e-05      58.2919 
         100            0  6.61856e-20  1.05315e-24      56.9828 
         100     0.013333  4.53497e-05 -3.44823e-09      56.9828 
         100     0.053333  1.75964e-05 -9.36658e-08      56.9828 
         100         0.12 -1.27757e-05 -5.71417e-07      56.9828 
         100     0.213332 -2.78369e-05 -1.91491e-06      56.9828 
         100     0.333332 -2.83221e-05 -4.44214e-06      56.9828 
         100         0.48 -2.51057e-05 -8.10508e-06      56.9828 
         100     0.653331 -2.50142e-05 -1.26002e-05      56.9828 
         100     0.853332 -2.56317e-05  -1.7429e-05      56.9828 
         100         1.08 -1.93133e-05 -2.19306e-05      56.9828 
         100      1.33333 -4.40699e-06  -2.5701e-05      56.9828 
         100      1.61333  1.29314e-05 -2.85475e-05      56.9828 
         100         1.92   2.9268e-05 -3.01074e-05      56.9827 
         100      2.25333  4.26167e-05 -3.02199e-05      56.9827 
         100      2.61333  5.76745e-05  -2.8697e-05      56.9827 
         100            3  7.54012e-05 -2.49636e-05      56.9826 
         150            0           -0           -0      53.7709 
         150     0.013333  7.17499e-05 -1.09856e-08      53.7709 
         150     0.053333  0.000114276  -1.3208e-07      53.7709 
         150         0.12  0.000163457 -3.55219e-07      53.7709 
         150     0.213332  0.000201454 -2.50072e-07      53.7709 
         150     0.333332  0.000217794  7.87699e-07      53.7709 
         150         0.48  0.000218842  3.01403e-06      53.7709 
         150     0.653331  0.000215522   6.1593e-06      53.7709 
         150     0.853332   0.00020766   9.5377e-06      53.7709 
         150         1.08  0.000188441  1.24141e-05      53.7709 
         150      1.33333  0.000160169  1.46548e-05      53.7709 
         150      1.61333  0.000126809  1.64503e-05      53.7709 
         150         1.92   9.1916e-05  1.75144e-05      53.7709 
         150      2.25333  5.98994e-05  1.78431e-05      53.7709 
         150      2.61333   3.1575e-05  1.75164e-05      53.7709 
         150            3  1.76949e-05  1.65946e-05      53.7708 
         200            0           -0           -0      50.5976 
         200     0.013333   6.6642e-05 -1.32508e-08      50.5976 
         200     0.053333   9.7228e-05 -1.73594e-07      50.5976 
         200         0.12  0.000132835 -5.98119e-07      50.5976 
         200     0.213332  0.000158663 -1.00018e-06      50.5976 
         200     0.333332   0.00016222 -7.64707e-07      50.5976 
         200         0.48    0.0001475  4.85454e-07      50.5976 
         200     0.653331  0.000127034  2.58112e-06      50.5976 
         200     0.853332  0.000107735  5.10111e-06      50.5976 
         200         1.08  9.17448e-05  7.80064e-06      50.5976 
         200      1.33333  7.93048e-05  1.06232e-05      50.5976 
         200      1.61333  6.76777e-05  1.33833e-05      50.5976 
         200         1.92  5.71518e-05  1.57245e-05      50.5975 
         200      2.25333  4.79188e-05  1.74367e-05      50.5975 
         200      2.61333  3.64248e-05  1.83523e-05      50.5975 
         200            3  2.74501e-05  1.86676e-05      50.5975 
         250            0            0            0      47.4368 
         250     0.013333  6.73646e-05 -2.79141e-08      47.4368 
         250     0.053333  0.000104013 -3.81045e-07      47.4368 
         250         0.12  0.000157173 -1.48242e-06      47.4368 
         250     0.213332  0.000213138 -3.28964e-06      47.4368 
         250     0.333332  0.000254574 -5.30692e-06      47.4368 
         250         0.48  0.000278045 -7.15916e-06      47.4368 
         250     0.653331  0.000288621 -8.97828e-06      47.4368 
         250     0.853332  0.000284014 -1.13712e-05      47.4368 
         250         1.08  0.000257285 -1.49685e-05      47.4368 
         250      1.33333  0.000216272  -1.9532e-05      47.4368 
         250      1.61333  0.000170588 -2.40701e-05      47.4368 
         250         1.92  0.000126055 -2.80723e-05      47.4368 
         250      2.25333   8.5336e-05 -3.11997e-05      47.4368 
         250      2.61333  4.46647e-05  -3.3099e-05      47.4368 
         250            3  2.12426e-05 -3.36624e-05      47.4368 
         300            0           -0           -0      44.2794 
         300     0.013333  6.58222e-05 -3.98662e-10      44.2794 
         300     0.053333  9.24611e-05  8.11183e-09      44.2794 
         300         0.12  0.000121215  1.26112e-07      44.2794 
         300     0.213332  0.000144007  6.04562e-07      44.2794 
         300     0.333332  0.000155195  1.72011e-06      44.2794 
         300         0.48  0.000157306   3.6039e-06      44.2794 
         300     0.653331  0.000157078  6.21251e-06      44.2794 
         300     0.853332  0.000157397  9.34856e-06      44.2794 
         300         1.08   0.00015447  1.26352e-05      44.2794 
         300      1.33333  0.000142805  1.56577e-05      44.2794 
         300      1.61333  0.000124368  1.82367e-05      44.2794 
         300         1.92  0.000103636  2.01968e-05      44.2794 
         300      2.25333  8.24109e-05  2.15118e-05      44.2794 
         300      2.61333  6.15342e-05  2.20252e-05      44.2794 
         300            3  4.65596e-05  2.17865e-05      44.2794 
         350            0  6.93434e-20 -3.44314e-28      41.1228 
         350     0.013333  5.62518e-05  1.11021e-08      41.1228 
         350     0.053333  5.46314e-05   1.6817e-07      41.1228 
         350         0.12  4.15607e-05  7.65285e-07      41.1228 
         350     0.213332  2.13904e-05  2.04547e-06      41.1228 
         350     0.333332  1.72534e-06  3.98436e-06      41.1228 
         350         0.48 -1.04196e-05  6.32384e-06      41.1228 
         350     0.653331 -1.30397e-05  8.81434e-06      41.1228 
         350     0.853332  -8.6708e-06  1.13423e-05      41.1228 
         350         1.08 -7.66585e-07  1.38436e-05      41.1228 
         350      1.33333  7.63093e-06  1.62016e-05      41.1228 
         350      1.61333   1.6939e-05  1.82826e-05      41.1228 
         350         1.92  2.63775e-05  1.99173e-05      41.1228 
         350      2.25333  3.55155e-05  2.10077e-05      41.1228 
         350      2.61333  4.61004e-05  2.14131e-05      41.1228 
         350            3   5.5272e-05  2.12045e-05      41.1228 
         400            0           -0           -0      37.9663 
         400     0.013333  8.59737e-05 -2.14014e-08      37.9663 
         400     0.053333  0.000169296 -2.73507e-07      37.9663 
         400         0.12  0.000275021 -9.14677e-07      37.9663 
         400     0.213332  0.000364091 -1.41593e-06      37.9663 
         400     0.333332  0.000404917  -6.4604e-07      37.9663 
         400         0.48  0.000399946  2.26387e-06      37.9663 
         400     0.653331  0.000374717  7.30622e-06      37.9663 
         400     0.853332  0.000347312  1.37583e-05      37.9663 
         400         1.08  0.000317359  2.06766e-05      37.9663 
         400      1.33333  0.000278457  2.74083e-05      37.9663 
         400      1.61333  0.000231477  3.37049e-05      37.9663 
         400         1.92  0.000180722  3.92137e-05      37.9663 
         400      2.25333  0.000127898  4.36928e-05      37.9663 
         400      2.61333  7.27386e-05  4.67428e-05      37.9663 
         400            3  2.47071e-05  4.80939e-05      37.9663 
         450            0           -0           -0      34.8089 
         450     0.013333  1.10138e-05  -2.5906e-09      34.8089 
         450     0.053333 -0.000102963 -9.92306e-08      34.8089 
         450         0.12 -0.000235782 -8.44076e-07      34.8089 
         450     0.213332 -0.000325204 -3.48057e-06      34.8089 
         450     0.333332 -0.000348762  -9.3232e-06      34.8089 
         450         0.48 -0.000329156 -1.88665e-05      34.8089 
         450     0.653331 -0.000302477 -3.16553e-05      34.8089 
         450     0.853332 -0.000287208 -4.66954e-05      34.8089 
         450         1.08 -0.000274288 -6.26092e-05      34.8089 
         450      1.33333 -0.000242043 -7.78908e-05      34.8089 
         450      1.61333 -0.000189585 -9.15317e-05      34.8089 
         450         1.92 -0.000129325 -0.000102893      34.8089 
         450      2.25333 -6.60366e-05 -0.000111572      34.8089 
         450      2.61333 -7.68062e-07 -0.000116767      34.8089 
         450            3  5.74585e-05 -0.000117981      34.8089 
         500            0           -0           -0      31.6506 
         500     0.013333  7.27882e-05 -1.83015e-08      31.6506 
         500     0.053333  0.000123049 -2.61455e-07      31.6506 
         500         0.12  0.000196386 -1.08988e-06      31.6506 
         500     0.213332  0.000276842 -2.59443e-06      31.6506 
         500     0.333332  0.000338625 -4.34496e-06      31.6506 
         500         0.48  0.000367647  -5.6327e-06      31.6506 
         500     0.653331  0.000369711 -5.96051e-06      31.6506 
         500     0.853332  0.000358186  -5.2579e-06      31.6506 
         500         1.08  0.000340879 -3.75277e-06      31.6506 
         500      1.33333  0.000316105 -1.83669e-06      31.6506 
         500      1.61333  0.000278622  5.09416e-08      31.6506 
         500         1.92  0.000232352  1.69278e-06      31.6506 
         500      2.25333  0.000182441  3.17528e-06      31.6506 
         500      2.61333  0.000128769  4.43999e-06      31.6506 
         500            3  7.84091e-05  5.37257e-06      31.6506 
         550            0           -0           -0      28.4907 
         550     0.013333  5.20549e-05  4.30978e-08      28.4907 
         550     0.053333  2.96377e-05  6.31221e-07      28.4907 
         550         0.12 -2.99535e-05  2.74735e-06      28.4907 
         550     0.213332  -0.00011559  7.02978e-06      28.4907 
         550     0.333332 -0.000198782  1.32385e-05      28.4907 
         550         0.48  -0.00025644  2.06044e-05      28.4907 
         550     0.653331 -0.000283971  2.86037e-05      28.4907 
         550     0.853332 -0.000285098  3.73327e-05      28.4907 
         550         1.08  -0.00025984  4.71856e-05      28.4907 
         550      1.33333 -0.000214059  5.80257e-05      28.4907 
         550      1.61333 -0.000161878  6.88293e-05      28.4907 
         550         1.92 -0.000113045  7.85787e-05      28.4907 
         550      2.25333 -6.50013e-05  8.66205e-05      28.4907 
         550      2.61333 -1.11034e-05  9.24292e-05      28.4907 
         550            3  3.91833e-05   9.5506e-05      28.4907 
         600            0           -0           -0      25.3299 
         600     0.013333  4.92364e-05 -2.29526e-09      25.3299 
         600     0.053333  3.21579e-05 -4.10553e-08      25.3299 
         600         0.12  9.94971e-06 -2.33891e-07      25.3299 
         600     0.213332 -4.89847e-06 -7.89333e-07      25.3299 
         600     0.333332 -1.00971e-05 -1.90901e-06      25.3299 
         600         0.48 -1.04903e-05 -3.64172e-06      25.3299 
         600     0.653331 -1.09637e-05  -5.8451e-06      25.3299 
         600     0.853332 -1.24093e-05 -8.28174e-06      25.3299 
         600         1.08  -1.2354e-05 -1.07597e-05      25.3299 
         600      1.33333 -9.60237e-06 -1.32376e-05      25.3299 
         600      1.61333 -4.91543e-06 -1.56891e-05      25.3299 
         600         1.92  2.64914e-06 -1.79355e-05      25.3299 
         600      2.25333  1.26157e-05 -1.97917e-05      25.3299 
         600      2.61333  2.36233e-05  -2.1125e-05      25.3299 
         600            3  3.51732e-05  -2.1813e-05      25.3299 
         650            0            0            0      22.1679 
         650     0.013333  8.80518e-05  3.77016e-08      22.1679 
         650     0.053333  0.000156527  6.16794e-07      22.1679 
         650         0.12  0.000195818  3.12631e-06      22.1679 
         650     0.213332   0.00016181  9.43582e-06      22.1679 
         650     0.333332   6.2135e-05  2.07495e-05      22.1679 
         650         0.48 -5.09688e-05  3.67334e-05      22.1679 
         650     0.653331 -0.000129125   5.5934e-05      22.1679 
         650     0.853332 -0.000159514  7.68361e-05      22.1679 
         650         1.08 -0.000157301  9.82551e-05      22.1679 
         650      1.33333 -0.000145217  0.000119165      22.1679 
         650      1.61333 -0.000129997  0.000138732      22.1679 
         650         1.92 -0.000109773  0.000156285      22.1679 
         650      2.25333 -8.49293e-05  0.000171016      22.1679 
         650      2.61333 -5.34872e-05   0.00018181      22.1679 
         650            3 -2.08131e-05  0.000187676      22.1679 
         700            0           -0           -0      19.0045 
         700     0.013333 -3.10051e-05  1.95985e-08      19.0045 
         700     0.053333 -0.000264807  2.05246e-07      19.0045 
         700         0.12 -0.000565923  3.25295e-07      19.0045 
         700     0.213332 -0.000819828 -1.09047e-06      19.0045 
         700     0.333332 -0.000951838 -6.37606e-06      19.0045 
         700         0.48 -0.000966894 -1.72627e-05      19.0045 
         700     0.653331 -0.000923794 -3.39494e-05      19.0045 
         700     0.853332 -0.000877071  -5.5344e-05      19.0045 
         700         1.08 -0.000837988 -7.95128e-05      19.0045 
         700      1.33333 -0.000777546 -0.000104011      19.0045 
         700      1.61333 -0.000674684 -0.000126807      19.0045 
         700         1.92 -0.000544887 -0.000147088      19.0045 
         700      2.25333 -0.000403924 -0.000164588      19.0045 
         700      2.61333 -0.000252974 -0.000178314      19.0045 
         700            3 -0.000100365 -0.000187127      19.0045 
         750            0           -0           -0      15.8407 
         750     0.013333  2.28052e-06 -8.44576e-08      15.8407 
         750     0.053333 -0.000109116 -1.33464e-06      15.8407 
         750         0.12 -0.000168841 -6.49869e-06      15.8407 
         750     0.213332 -9.24224e-05 -1.89441e-05      15.8407 
         750     0.333332  9.89015e-05 -4.06467e-05      15.8407 
         750         0.48  0.000307895 -7.09203e-05      15.8407 
         750     0.653331  0.000450394 -0.000107259      15.8407 
         750     0.853332    0.0005038  -0.00014717      15.8407 
         750         1.08  0.000491006  -0.00018894      15.8407 
         750      1.33333  0.000447234 -0.000231227      15.8407 
         750      1.61333   0.00039276 -0.000272545      15.8407 
         750         1.92  0.000339266 -0.000311057      15.8407 
         750      2.25333  0.000287165 -0.000344736      15.8407 
         750      2.61333  0.000226366 -0.000371419      15.8407 
         750            3   0.00016516 -0.000389001      15.8407 
         800            0            0            0      12.6758 
         800     0.013333  0.000236423 -5.67092e-08      12.6758 
         800     0.053333  0.000721472 -6.47486e-07      12.6758 
         800         0.12   0.00133811 -1.53691e-06      12.6758 
         800     0.213332   0.00185112  4.50319e-07      12.6758 
         800     0.333332    0.0020924  1.07126e-05      12.6758 
         800         0.48   0.00207427  3.31634e-05      12.6758 
         800     0.653331   0.00193744  6.76402e-05      12.6758 
         800     0.853332   0.00180284  0.000110616      12.6758 
         800         1.08   0.00168708  0.000157132      12.6758 
         800      1.33333   0.00153472  0.000202517      12.6758 
         800      1.61333   0.00132248  0.000244269      12.6758 
         800         1.92   0.00108595  0.000282099      12.6758 
         800      2.25333  0.000842903  0.000315694      12.6758 
         800      2.61333  0.000585275  0.000343137      12.6758 
         800            3  0.000321495  0.000362194      12.6758 
         850            0            0            0      9.50839 
         850     0.013333  5.78944e-05  1.84476e-07      9.50839 
         850     0.053333   3.2113e-06  2.74526e-06      9.50839 
         850         0.12  -0.00021245  1.22649e-05      9.50839 
         850     0.213332 -0.000592526  3.24531e-05      9.50839 
         850     0.333332  -0.00101739  6.33651e-05      9.50839 
         850         0.48  -0.00134705  0.000101882      9.50839 
         850     0.653331  -0.00152433  0.000144745      9.50839 
         850     0.853332  -0.00156507  0.000190937      9.50839 
         850         1.08  -0.00148804   0.00024151      9.50839 
         850      1.33333  -0.00130736  0.000297083      9.50839 
         850      1.61333  -0.00107529  0.000355072      9.50839 
         850         1.92 -0.000862371  0.000410618       9.5084 
         850      2.25333 -0.000668734  0.000459938       9.5084 
         850      2.61333 -0.000457067  0.000500588      9.50841 
         850            3 -0.000239305  0.000529927      9.50843 
         900            0            0            0      6.34036 
         900     0.013333 -2.08414e-05  6.46435e-08      6.34036 
         900     0.053333   -0.0002482  9.19699e-07      6.34036 
         900         0.12 -0.000594534  3.81016e-06      6.34036 
         900     0.213332 -0.000970944  9.03392e-06      6.34036 
         900     0.333332  -0.00127122  1.51172e-05      6.34036 
         900         0.48  -0.00143314  1.95812e-05      6.34036 
         900     0.653331   -0.0014683   2.0539e-05      6.34036 
         900     0.853332  -0.00143113  1.75804e-05      6.34036 
         900         1.08  -0.00136581  1.15076e-05      6.34036 
         900      1.33333  -0.00127973  3.77757e-06      6.34036 
         900      1.61333  -0.00115451  -3.8903e-06      6.34036 
         900         1.92 -0.000986011 -1.03885e-05      6.34036 
         900      2.25333 -0.000792257 -1.58742e-05      6.34037 
         900      2.61333 -0.000580677  -2.0601e-05      6.34037 
         900            3 -0.000355276 -2.43552e-05      6.34038 
         950            0            0            0      3.17046 
         950     0.013333 -0.000125944 -5.64627e-09      3.17046 
         950     0.053333  -0.00060095  -2.7523e-07      3.17046 
         950         0.12  -0.00116958 -2.57198e-06      3.17046 
         950     0.213332  -0.00158189 -1.13593e-05      3.17046 
         950     0.333332  -0.00169756 -3.22849e-05      3.17046 
         950         0.48  -0.00156655 -6.85524e-05      3.17046 
         950     0.653331  -0.00135124 -0.000119008      3.17046 
         950     0.853332  -0.00118078 -0.000179524      3.17046 
         950         1.08  -0.00107624 -0.000245188      3.17046 
         950      1.33333 -0.000979635 -0.000311432      3.17046 
         950      1.61333 -0.000847175  -0.00037499      3.17046 
         950         1.92 -0.000686208 -0.000434747      3.17046 
         950      2.25333 -0.000516033 -0.000489407      3.17047 
         950      2.61333 -0.000337692 -0.000535641      3.17048 
         950            3 -0.000152128   -0.0005715      3.17049 
        1000            0            0            0            0 
        1000     0.013333 -0.000108857  4.37367e-06           -0 
        1000     0.053333 -0.000557569  1.91605e-05           -0 
        1000         0.12  -0.00101022  6.14279e-05   2.6378e-16 
        1000     0.213332  -0.00142429  0.000279928  3.13839e-15 
        1000     0.333332  -0.00161381   0.00112605  1.73526e-15 
        1000         0.48   0.00144309   0.00159802           -0 
        1000     0.653331  0.000848256   0.00157105            0 
        1000     0.853332   0.00166866   0.00263261            0 
        1000         1.08   0.00385738   0.00322783            0 
        1000      1.33333    0.0119788   0.00248806   1.4765e-15 
        1000      1.61333   0.00476041  -0.00100034           -0 
        1000         1.92   0.00337139 -0.000479361  3.28337e-15 
        1000      2.25333   0.00418212 -0.000222678  3.38033e-15 
        1000      2.61333   0.00631529  -0.00193263           -0 
        1000            3   0.00189732  -0.00221768  3.51608e-15 
