Variables = x, y, u, v, p

Zone, I=416, F=POINT
         -50            0            0            0       1.2707 
         -50     0.013333 -3.66907e-05 -2.10888e-08       1.2707 
         -50     0.053333  -4.0892e-05  -3.2079e-07       1.2707 
         -50         0.12 -3.25267e-05 -1.34582e-06       1.2707 
         -50     0.213332 -1.99727e-05 -3.31448e-06      1.27069 
         -50     0.333332 -1.29917e-05 -5.99138e-06      1.27069 
         -50         0.48 -1.48108e-05  -9.0399e-06      1.27069 
         -50     0.653331  -2.3204e-05 -1.22906e-05      1.27068 
         -50     0.853332 -3.12176e-05 -1.54003e-05      1.27067 
         -50         1.08 -3.15108e-05 -1.77651e-05      1.27066 
         -50      1.33333 -2.43469e-05 -1.91128e-05      1.27064 
         -50      1.61333 -1.40521e-05 -1.96574e-05      1.27063 
         -50         1.92 -4.05981e-06 -1.88222e-05       1.2706 
         -50      2.25333  4.34815e-06 -1.80126e-05      1.27057 
         -50      2.61333 -3.48859e-06 -2.20674e-05      1.27054 
         -50            3 -7.45814e-06 -2.31188e-05      1.27049 
         -25            0 -3.09722e-20  -1.5087e-24      1.23065 
         -25     0.013333  -1.8661e-05 -6.17948e-09      1.23065 
         -25     0.053333 -3.09333e-06 -8.42345e-08      1.23065 
         -25         0.12   2.1457e-05 -2.80067e-07      1.23065 
         -25     0.213332  4.28791e-05 -4.73084e-07      1.23064 
         -25     0.333332  5.58155e-05 -4.05911e-07      1.23064 
         -25         0.48  6.16564e-05  8.92525e-08      1.23064 
         -25     0.653331  6.22062e-05  9.53278e-07      1.23064 
         -25     0.853332  5.62284e-05  1.94224e-06      1.23064 
         -25         1.08  4.29151e-05  2.78364e-06      1.23063 
         -25      1.33333  2.53404e-05  3.37814e-06      1.23062 
         -25      1.61333  3.56855e-06  3.65592e-06      1.23062 
         -25         1.92 -1.55991e-05  3.68127e-06      1.23061 
         -25      2.25333   -1.899e-05  4.56922e-06      1.23059 
         -25      2.61333 -9.71359e-06  5.29288e-06      1.23058 
         -25            3  -7.8041e-06  5.21373e-07      1.23056 
           0            0 -2.94378e-20 -7.18321e-25      1.19936 
           0     0.013333 -2.49392e-05  1.06535e-08      1.19936 
           0     0.053333 -3.73563e-05  1.32882e-07      1.19936 
           0         0.12 -4.73858e-05  4.40052e-07      1.19936 
           0     0.213332  -4.7567e-05  6.79141e-07      1.19936 
           0     0.333332 -3.41669e-05  4.37344e-07      1.19936 
           0         0.48 -1.33548e-05 -4.02608e-07      1.19936 
           0     0.653331  6.52685e-06 -1.60968e-06      1.19936 
           0     0.853332  2.04281e-05 -2.98626e-06      1.19936 
           0         1.08  2.53793e-05 -4.55862e-06      1.19936 
           0      1.33333  2.31769e-05 -6.26219e-06      1.19935 
           0      1.61333  1.70123e-05 -7.74408e-06      1.19935 
           0         1.92  1.10044e-05 -8.98246e-06      1.19935 
           0      2.25333  8.70971e-06 -9.32938e-06      1.19934 
           0      2.61333  3.45606e-06  -1.1014e-05      1.19934 
           0            3 -4.51791e-06 -1.01122e-05      1.19933 
          20            0 -3.22117e-20 -4.26109e-25      1.17754 
          20     0.013333 -3.65982e-05   1.4769e-08      1.17754 
          20     0.053333 -8.44367e-05  1.68615e-07      1.17754 
          20         0.12 -0.000139364  4.44744e-07      1.17754 
          20     0.213332  -0.00017966  2.84331e-07      1.17754 
          20     0.333332 -0.000195957 -1.05681e-06      1.17754 
          20         0.48 -0.000196844 -3.83162e-06      1.17754 
          20     0.653331 -0.000190907 -7.58786e-06      1.17754 
          20     0.853332 -0.000173414 -1.13831e-05      1.17754 
          20         1.08  -0.00014018 -1.44623e-05      1.17754 
          20      1.33333 -0.000100264 -1.68174e-05      1.17754 
          20      1.61333 -5.70207e-05  -1.8581e-05      1.17754 
          20         1.92 -2.00753e-05  -1.9315e-05      1.17754 
          20      2.25333  4.30753e-06 -1.91262e-05      1.17754 
          20      2.61333  2.21916e-05 -1.73739e-05      1.17754 
          20            3  3.40528e-05 -1.22774e-05      1.17753 
          40            0 -2.69752e-20 -2.65079e-25      1.15745 
          40     0.013333 -2.57516e-05  2.02348e-08      1.15745 
          40     0.053333 -5.06062e-05  2.75674e-07      1.15745 
          40         0.12 -8.48392e-05  1.07299e-06      1.15745 
          40     0.213332 -0.000117911  2.35329e-06      1.15745 
          40     0.333332 -0.000137924  3.67112e-06      1.15745 
          40         0.48 -0.000143708     4.64e-06      1.15745 
          40     0.653331 -0.000139853  5.28091e-06      1.15745 
          40     0.853332 -0.000126225  5.96823e-06      1.15745 
          40         1.08 -0.000102333  6.98487e-06      1.15745 
          40      1.33333  -7.4796e-05   8.1045e-06      1.15745 
          40      1.61333 -4.21017e-05  8.92132e-06      1.15745 
          40         1.92 -1.08858e-05  9.42078e-06      1.15745 
          40      2.25333  1.27947e-05  9.43429e-06      1.15745 
          40      2.61333  2.98449e-05  8.64864e-06      1.15745 
          40            3  2.75208e-05  5.91872e-06      1.15745 
          60            0            0            0       1.1384 
          60     0.013333 -1.23193e-05  1.84838e-08       1.1384 
          60     0.053333 -5.15115e-06  2.78394e-07       1.1384 
          60         0.12 -5.14328e-06  1.26283e-06       1.1384 
          60     0.213332  -1.8967e-05  3.37994e-06       1.1384 
          60     0.333332 -3.88471e-05  6.68602e-06       1.1384 
          60         0.48 -5.38846e-05   1.0992e-05       1.1384 
          60     0.653331 -5.78825e-05  1.61351e-05       1.1384 
          60     0.853332 -5.03297e-05  2.19404e-05       1.1384 
          60         1.08 -3.81457e-05   2.7919e-05       1.1384 
          60      1.33333 -3.01384e-05  3.33684e-05       1.1384 
          60      1.61333 -2.06635e-05  3.76751e-05       1.1384 
          60         1.92 -1.10494e-05  4.02809e-05       1.1384 
          60      2.25333  -4.3015e-06  4.10854e-05      1.13839 
          60      2.61333   5.1558e-06  4.05583e-05      1.13839 
          60            3  1.55409e-05  3.95336e-05      1.13839 
          80            0            0            0      1.11995 
          80     0.013333 -1.11839e-05 -2.73964e-09      1.11995 
          80     0.053333   2.9827e-06 -3.07616e-08      1.11995 
          80         0.12  2.28636e-05 -7.17544e-08      1.11995 
          80     0.213332   3.8305e-05  5.82676e-09      1.11995 
          80     0.333332  4.54659e-05  3.99762e-07      1.11995 
          80         0.48  4.67032e-05  1.23584e-06      1.11995 
          80     0.653331  4.55561e-05  2.48765e-06      1.11995 
          80     0.853332  4.25203e-05  3.97507e-06      1.11995 
          80         1.08  3.54617e-05  5.39987e-06      1.11995 
          80      1.33333   2.4686e-05  6.60337e-06      1.11995 
          80      1.61333  1.16431e-05  7.47279e-06      1.11995 
          80         1.92 -2.21194e-06  7.90847e-06      1.11995 
          80      2.25333 -1.53709e-05  7.95001e-06      1.11994 
          80      2.61333 -2.43765e-05  7.83293e-06      1.11994 
          80            3 -2.35096e-05  7.33445e-06      1.11994 
         100            0 -2.33495e-20 -7.94673e-26      1.10176 
         100     0.013333 -1.91389e-05  -5.3263e-09      1.10176 
         100     0.053333 -2.53618e-05 -7.99189e-08      1.10176 
         100         0.12 -2.77024e-05 -3.59688e-07      1.10176 
         100     0.213332 -2.64984e-05 -9.66449e-07      1.10176 
         100     0.333332 -2.28945e-05 -1.94835e-06      1.10176 
         100         0.48 -1.91018e-05 -3.30985e-06      1.10176 
         100     0.653331 -1.78961e-05 -5.05645e-06      1.10176 
         100     0.853332 -2.04013e-05 -7.14774e-06      1.10176 
         100         1.08 -2.40079e-05 -9.39233e-06      1.10176 
         100      1.33333 -2.45546e-05  -1.1519e-05      1.10176 
         100      1.61333 -2.32114e-05 -1.32663e-05      1.10176 
         100         1.92 -1.98506e-05 -1.45116e-05      1.10176 
         100      2.25333 -1.58975e-05 -1.51001e-05      1.10176 
         100      2.61333 -1.28341e-05 -1.51532e-05      1.10176 
         100            3 -1.24809e-05 -1.53398e-05      1.10176 
         150            0           -0           -0      1.05651 
         150     0.013333 -1.29797e-05  3.06869e-08      1.05651 
         150     0.053333 -1.37486e-05  4.60428e-07      1.05651 
         150         0.12 -3.16692e-05  2.06289e-06      1.05651 
         150     0.213332 -6.94602e-05  5.41407e-06      1.05651 
         150     0.333332 -0.000109274   1.0392e-05      1.05651 
         150         0.48 -0.000134204   1.6411e-05      1.05651 
         150     0.653331 -0.000140113  2.30344e-05      1.05651 
         150     0.853332 -0.000129943  3.00904e-05      1.05651 
         150         1.08 -0.000111246  3.72303e-05      1.05651 
         150      1.33333 -9.45731e-05  4.37807e-05      1.05651 
         150      1.61333 -7.48818e-05  4.90461e-05      1.05651 
         150         1.92 -5.50706e-05  5.24597e-05      1.05651 
         150      2.25333 -3.50258e-05  5.38773e-05      1.05651 
         150      2.61333 -8.27448e-06  5.31028e-05      1.05651 
         150            3  7.51364e-06  4.98598e-05      1.05652 
         200            0           -0           -0      1.01035 
         200     0.013333 -5.94469e-06   2.1089e-08      1.01035 
         200     0.053333  1.34561e-05   3.2731e-07      1.01035 
         200         0.12   2.4734e-05  1.53848e-06      1.01035 
         200     0.213332  1.50157e-05  4.27272e-06      1.01035 
         200     0.333332 -7.47822e-06  8.70822e-06      1.01035 
         200         0.48 -2.71243e-05  1.45728e-05      1.01035 
         200     0.653331 -3.50961e-05  2.15093e-05      1.01035 
         200     0.853332 -3.10734e-05  2.92265e-05      1.01035 
         200         1.08 -2.20497e-05  3.72545e-05      1.01035 
         200      1.33333 -1.85099e-05  4.48624e-05      1.01035 
         200      1.61333 -1.71849e-05  5.13135e-05      1.01035 
         200         1.92 -1.75615e-05  5.59435e-05      1.01036 
         200      2.25333 -2.03435e-05  5.84575e-05      1.01036 
         200      2.61333 -2.21996e-05  5.85628e-05      1.01036 
         200            3 -2.53421e-05   5.6487e-05      1.01036 
         250            0            0            0      0.96231 
         250     0.013333 -1.99719e-05  4.68981e-09      0.96231 
         250     0.053333 -3.16177e-05  5.85459e-08      0.96231 
         250         0.12   -4.333e-05  1.83418e-07      0.96231 
         250     0.213332 -5.05771e-05  2.42433e-07      0.96231 
         250     0.333332 -4.97524e-05  6.67298e-09      0.96231 
         250         0.48 -4.33622e-05 -6.22496e-07      0.96231 
         250     0.653331 -3.63643e-05 -1.52111e-06      0.96231 
         250     0.853332 -3.01072e-05 -2.44142e-06      0.96231 
         250         1.08 -2.38802e-05  -3.2144e-06      0.96231 
         250      1.33333 -1.94413e-05 -3.92566e-06     0.962311 
         250      1.61333 -1.71378e-05 -4.68335e-06     0.962311 
         250         1.92 -1.46542e-05 -5.36571e-06     0.962312 
         250      2.25333 -1.14831e-05 -5.90958e-06     0.962314 
         250      2.61333 -9.57577e-06  -6.3003e-06     0.962315 
         250            3   -1.222e-05 -6.58018e-06     0.962317 
         300            0           -0           -0     0.912106 
         300     0.013333 -9.88086e-06  9.35269e-09     0.912106 
         300     0.053333  1.94015e-06  1.51021e-07     0.912106 
         300         0.12  1.06604e-05  7.46393e-07     0.912106 
         300     0.213332  6.24847e-06  2.17759e-06     0.912106 
         300     0.333332 -7.49959e-06  4.61371e-06     0.912106 
         300         0.48 -2.01717e-05  7.90251e-06     0.912106 
         300     0.653331 -2.55959e-05  1.17459e-05     0.912106 
         300     0.853332 -2.46054e-05  1.58573e-05     0.912106 
         300         1.08 -2.18536e-05    1.997e-05     0.912107 
         300      1.33333 -2.09844e-05  2.38781e-05     0.912107 
         300      1.61333  -2.0605e-05  2.73856e-05     0.912107 
         300         1.92 -2.11912e-05  3.01511e-05     0.912107 
         300      2.25333 -2.24929e-05  3.20016e-05     0.912108 
         300      2.61333 -2.19284e-05  3.27204e-05     0.912108 
         300            3 -2.05016e-05  3.22878e-05     0.912109 
         350            0 -1.08442e-20 -1.49583e-26     0.860126 
         350     0.013333  1.12149e-05  1.35258e-08     0.860126 
         350     0.053333  7.45276e-05  2.48735e-07     0.860126 
         350         0.12   0.00013527   1.4168e-06     0.860126 
         350     0.213332  0.000153468  4.67493e-06     0.860126 
         350     0.333332  0.000125512  1.09357e-05     0.860126 
         350         0.48  7.91877e-05  2.02282e-05     0.860126 
         350     0.653331  4.30733e-05  3.18725e-05     0.860126 
         350     0.853332  2.69508e-05  4.49854e-05     0.860127 
         350         1.08  2.18431e-05  5.85741e-05     0.860127 
         350      1.33333  1.24569e-05  7.16105e-05     0.860127 
         350      1.61333  3.90878e-08  8.33438e-05     0.860126 
         350         1.92 -1.30144e-05  9.29031e-05     0.860126 
         350      2.25333   -2.702e-05  9.98183e-05     0.860125 
         350      2.61333 -3.85563e-05  0.000103268     0.860123 
         350            3 -4.78331e-05  0.000103113     0.860122 
         400            0           -0           -0       0.8065 
         400     0.013333 -4.67573e-05 -2.66236e-08       0.8065 
         400     0.053333 -0.000119531 -4.32328e-07       0.8065 
         400         0.12 -0.000183339  -2.1744e-06       0.8065 
         400     0.213332 -0.000201735 -6.52835e-06       0.8065 
         400     0.333332 -0.000172632 -1.43794e-05       0.8065 
         400         0.48 -0.000123546 -2.57535e-05       0.8065 
         400     0.653331  -8.4211e-05 -4.00791e-05       0.8065 
         400     0.853332 -6.82853e-05 -5.66788e-05       0.8065 
         400         1.08 -7.10275e-05 -7.47557e-05       0.8065 
         400      1.33333 -7.34521e-05 -9.31016e-05     0.806501 
         400      1.61333 -6.78857e-05  -0.00011024     0.806501 
         400         1.92 -5.57331e-05 -0.000124878     0.806502 
         400      2.25333 -4.06002e-05 -0.000136156     0.806504 
         400      2.61333 -2.86035e-05 -0.000143079     0.806505 
         400            3 -1.76631e-05 -0.000145054     0.806507 
         450            0           -0           -0     0.751102 
         450     0.013333  1.45601e-05  8.09975e-09     0.751102 
         450     0.053333  8.99383e-05  1.55564e-07     0.751102 
         450         0.12  0.000175819  9.26369e-07     0.751102 
         450     0.213332  0.000231149  3.19227e-06     0.751102 
         450     0.333332  0.000241737  7.80336e-06     0.751102 
         450         0.48  0.000222736  1.50959e-05     0.751102 
         450     0.653331  0.000198836  2.48532e-05     0.751103 
         450     0.853332  0.000185106  3.65559e-05     0.751103 
         450         1.08  0.000179141  4.94174e-05     0.751103 
         450      1.33333   0.00016575  6.23701e-05     0.751103 
         450      1.61333   0.00013927  7.43912e-05     0.751103 
         450         1.92  0.000104721  8.47239e-05     0.751102 
         450      2.25333  6.61949e-05  9.28637e-05     0.751102 
         450      2.61333  2.64366e-05  9.81627e-05       0.7511 
         450            3 -1.05796e-05  0.000100089     0.751099 
         500            0           -0           -0     0.693215 
         500     0.013333 -2.19335e-05  1.41997e-08     0.693215 
         500     0.053333 -4.36084e-05  2.05345e-07     0.693215 
         500         0.12 -7.98008e-05  8.79603e-07     0.693215 
         500     0.213332 -0.000127936  2.22564e-06     0.693215 
         500     0.333332 -0.000176855   4.1742e-06     0.693215 
         500         0.48 -0.000216583   6.4896e-06     0.693215 
         500     0.653331 -0.000243802  8.97097e-06     0.693215 
         500     0.853332 -0.000257689  1.16278e-05     0.693215 
         500         1.08  -0.00025502  1.46853e-05     0.693215 
         500      1.33333 -0.000234546  1.82746e-05     0.693216 
         500      1.61333 -0.000201208  2.21558e-05     0.693216 
         500         1.92 -0.000163449  2.59466e-05     0.693217 
         500      2.25333 -0.000124049  2.92732e-05     0.693219 
         500      2.61333  -8.0621e-05  3.18969e-05     0.693221 
         500            3 -4.02222e-05  3.36154e-05     0.693224 
         550            0           -0           -0     0.633051 
         550     0.013333 -8.13685e-05  4.38006e-08     0.633051 
         550     0.053333 -0.000263896  5.70353e-07     0.633051 
         550         0.12 -0.000504024  1.97228e-06     0.633051 
         550     0.213332 -0.000711788  3.26735e-06     0.633051 
         550     0.333332 -0.000813466  2.09925e-06      0.63305 
         550         0.48 -0.000807376 -3.52735e-06      0.63305 
         550     0.653331 -0.000746839 -1.37483e-05      0.63305 
         550     0.853332 -0.000676722 -2.70587e-05      0.63305 
         550         1.08 -0.000604431 -4.15626e-05      0.63305 
         550      1.33333 -0.000522409 -5.61289e-05     0.633051 
         550      1.61333 -0.000431882 -7.03983e-05     0.633053 
         550         1.92  -0.00033505 -8.37432e-05     0.633057 
         550      2.25333 -0.000231843 -9.55044e-05     0.633062 
         550      2.61333  -0.00012312 -0.000104797      0.63307 
         550            3 -2.14811e-05 -0.000110829      0.63308 
         600            0           -0           -0     0.571489 
         600     0.013333  7.28286e-05 -6.89393e-08     0.571489 
         600     0.053333  0.000320449 -9.09077e-07     0.571489 
         600         0.12  0.000662119 -3.27576e-06     0.571489 
         600     0.213332  0.000976817 -6.14315e-06     0.571489 
         600     0.333332    0.0011661 -6.73744e-06      0.57149 
         600         0.48   0.00122179 -2.68667e-06      0.57149 
         600     0.653331    0.0012042  6.26859e-06     0.571491 
         600     0.853332   0.00116432   1.8367e-05     0.571491 
         600         1.08   0.00109823  3.07507e-05     0.571491 
         600      1.33333  0.000976789  4.09663e-05     0.571491 
         600      1.61333  0.000808946  4.86251e-05     0.571489 
         600         1.92  0.000631838  5.45772e-05     0.571485 
         600      2.25333  0.000452096  5.93482e-05     0.571479 
         600      2.61333  0.000259307  6.24719e-05     0.571469 
         600            3  7.42811e-05   6.3492e-05     0.571456 
         650            0            0            0     0.506844 
         650     0.013333 -3.59484e-05  3.64526e-08     0.506844 
         650     0.053333 -9.96511e-05  5.10301e-07     0.506844 
         650         0.12 -0.000197605  2.07073e-06     0.506844 
         650     0.213332 -0.000305937  4.85104e-06     0.506844 
         650     0.333332 -0.000392239  8.26988e-06     0.506844 
         650         0.48 -0.000442452  1.15979e-05     0.506844 
         650     0.653331 -0.000464691  1.45487e-05     0.506844 
         650     0.853332 -0.000469847  1.74309e-05     0.506844 
         650         1.08 -0.000455012  2.10401e-05     0.506844 
         650      1.33333 -0.000409663  2.61891e-05     0.506844 
         650      1.61333 -0.000339146  3.28073e-05     0.506845 
         650         1.92 -0.000266571  3.98627e-05     0.506847 
         650      2.25333 -0.000197417  4.63963e-05      0.50685 
         650      2.61333 -0.000122886  5.19867e-05     0.506854 
         650            3 -5.08036e-05  5.63138e-05      0.50686 
         700            0           -0           -0     0.440744 
         700     0.013333 -3.11801e-05  1.46516e-08     0.440744 
         700     0.053333 -7.74202e-05  2.06068e-07     0.440744 
         700         0.12 -0.000142512  8.27658e-07     0.440744 
         700     0.213332 -0.000208666  1.84353e-06     0.440744 
         700     0.333332 -0.000253045  2.75919e-06     0.440744 
         700         0.48   -0.0002663  2.94823e-06     0.440744 
         700     0.653331 -0.000256936  2.14434e-06     0.440744 
         700     0.853332 -0.000237635  5.53561e-07     0.440744 
         700         1.08  -0.00021484 -1.46782e-06     0.440744 
         700      1.33333  -0.00019105 -3.77044e-06     0.440744 
         700      1.61333 -0.000167321  -6.3597e-06     0.440745 
         700         1.92 -0.000141406 -9.07072e-06     0.440746 
         700      2.25333 -0.000111624 -1.17097e-05     0.440748 
         700      2.61333 -7.82674e-05 -1.40852e-05      0.44075 
         700            3 -4.38571e-05 -1.60688e-05     0.440753 
         750            0           -0           -0     0.372817 
         750     0.013333  8.34131e-06 -4.40012e-08     0.372817 
         750     0.053333  8.17813e-05 -6.23347e-07     0.372817 
         750         0.12  0.000200416 -2.55821e-06     0.372817 
         750     0.213332  0.000325025 -5.96889e-06     0.372817 
         750     0.333332  0.000407578 -9.83684e-06     0.372817 
         750         0.48  0.000429373 -1.28434e-05     0.372817 
         750     0.653331  0.000407965 -1.45654e-05     0.372817 
         750     0.853332  0.000366437 -1.57169e-05     0.372818 
         750         1.08   0.00031148 -1.73411e-05     0.372818 
         750      1.33333  0.000247143 -1.97242e-05     0.372818 
         750      1.61333  0.000187482 -2.21456e-05     0.372818 
         750         1.92  0.000138957 -2.39633e-05     0.372817 
         750      2.25333  9.34876e-05 -2.50649e-05     0.372815 
         750      2.61333  4.46372e-05 -2.55322e-05     0.372812 
         750            3 -2.43625e-06 -2.53108e-05     0.372808 
         800            0            0            0     0.302329 
         800     0.013333 -5.59956e-05  1.08276e-07     0.302329 
         800     0.053333 -0.000196642  1.57622e-06     0.302329 
         800         0.12 -0.000448725  6.77688e-06     0.302329 
         800     0.213332  -0.00076201  1.69535e-05     0.302329 
         800     0.333332  -0.00102974  3.07509e-05     0.302329 
         800         0.48  -0.00117641  4.53156e-05     0.302328 
         800     0.653331  -0.00120637  5.87759e-05     0.302328 
         800     0.853332  -0.00116125  7.14471e-05     0.302328 
         800         1.08   -0.0010641  8.48686e-05     0.302328 
         800      1.33333 -0.000927093  9.97018e-05     0.302328 
         800      1.61333  -0.00077865  0.000114609      0.30233 
         800         1.92 -0.000640748  0.000127829     0.302333 
         800      2.25333 -0.000502854  0.000138528     0.302339 
         800      2.61333 -0.000349955   0.00014629     0.302347 
         800            3 -0.000193794  0.000150541     0.302357 
         850            0            0            0     0.230571 
         850     0.013333 -3.32159e-05  -9.4917e-08     0.230571 
         850     0.053333 -5.30936e-05 -1.42154e-06     0.230571 
         850         0.12 -9.88245e-06 -6.39055e-06     0.230571 
         850     0.213332  0.000107123 -1.69343e-05     0.230571 
         850     0.333332   0.00024165 -3.29157e-05     0.230571 
         850         0.48  0.000328008 -5.25326e-05     0.230571 
         850     0.653331  0.000344842 -7.43171e-05     0.230572 
         850     0.853332  0.000302264 -9.83634e-05     0.230572 
         850         1.08  0.000210764 -0.000125437     0.230572 
         850      1.33333  9.68601e-05 -0.000154838     0.230573 
         850      1.61333   1.1666e-05  -0.00018364     0.230572 
         850         1.92 -2.44531e-05 -0.000209168     0.230572 
         850      2.25333  -4.0799e-05 -0.000230528      0.23057 
         850      2.61333 -6.03261e-05 -0.000247135     0.230568 
         850            3 -7.60626e-05  -0.00025776     0.230565 
         900            0            0            0     0.155586 
         900     0.013333  6.26923e-06  1.65529e-07     0.155586 
         900     0.053333   3.8615e-06  2.53069e-06     0.155586 
         900         0.12 -0.000148326  1.17341e-05     0.155586 
         900     0.213332 -0.000496321   3.2281e-05     0.155586 
         900     0.333332 -0.000928955  6.51538e-05     0.155586 
         900         0.48  -0.00127299  0.000107134     0.155586 
         900     0.653331  -0.00143449  0.000153735     0.155586 
         900     0.853332  -0.00142599  0.000202376     0.155586 
         900         1.08  -0.00130296  0.000252416     0.155586 
         900      1.33333   -0.0011304  0.000302713     0.155587 
         900      1.61333 -0.000968102  0.000350405     0.155588 
         900         1.92 -0.000830825  0.000392933     0.155591 
         900      2.25333 -0.000689039  0.000429045     0.155595 
         900      2.61333 -0.000521857  0.000457263     0.155601 
         900            3 -0.000343582  0.000475411      0.15561 
         950            0            0            0      0.07799 
         950     0.013333 -0.000261114  5.65321e-08      0.07799 
         950     0.053333 -0.000923319  6.04728e-07    0.0779901 
         950         0.12  -0.00177044  1.05495e-06      0.07799 
         950     0.213332   -0.0024892 -2.75868e-06    0.0779898 
         950     0.333332  -0.00285276 -1.76901e-05    0.0779894 
         950         0.48  -0.00286231 -4.88745e-05    0.0779888 
         950     0.653331  -0.00269293 -9.65404e-05    0.0779879 
         950     0.853332  -0.00251571  -0.00015677    0.0779871 
         950         1.08  -0.00237864 -0.000223747    0.0779868 
         950      1.33333  -0.00221573 -0.000291226    0.0779875 
         950      1.61333  -0.00196353 -0.000354406    0.0779902 
         950         1.92  -0.00164549 -0.000412033    0.0779959 
         950      2.25333  -0.00130833  -0.00046403     0.078006 
         950      2.61333 -0.000954043 -0.000508031    0.0780216 
         950            3  -0.00058128  -0.00054171    0.0780434 
        1000            0            0            0            0 
        1000     0.013333 -0.000124666 -3.37128e-06           -0 
        1000     0.053333 -0.000457017 -1.46442e-05           -0 
        1000         0.12  -0.00089513 -3.15207e-05  5.77635e-18 
        1000     0.213332  -0.00153703  6.18875e-05   7.2165e-17 
        1000     0.333332  -0.00162038  0.000559509  4.16176e-17 
        1000         0.48  0.000203717  0.000804891           -0 
        1000     0.653331 -0.000373739  0.000895468            0 
        1000     0.853332  0.000690858   0.00154266            0 
        1000         1.08   0.00190998   0.00180047            0 
        1000      1.33333   0.00635706   0.00134927 -7.29456e-17 
        1000      1.61333   0.00244957 -0.000710369           -0 
        1000         1.92   0.00171174 -0.000503121 -1.69004e-17 
        1000      2.25333   0.00220218 -0.000398809 -6.99005e-17 
        1000      2.61333   0.00352959  -0.00141634           -0 
        1000            3   0.00108568  -0.00164289  2.55483e-17 
