Variables = x, y, u, v, p

Zone, I=416, F=POINT
         -50            0            0            0     -28.9192 
         -50     0.013333  1.54854e-05 -4.21945e-08     -28.9192 
         -50     0.053333  2.16969e-05 -2.86051e-07     -28.9192 
         -50         0.12  3.02857e-05 -1.13884e-06     -28.9192 
         -50     0.213332  4.45015e-05 -2.72665e-06     -28.9192 
         -50     0.333332  5.51375e-05 -4.83198e-06     -28.9192 
         -50         0.48  5.90312e-05 -7.22179e-06     -28.9191 
         -50     0.653331  5.51503e-05 -9.88489e-06      -28.919 
         -50     0.853332  4.34228e-05 -1.27694e-05     -28.9189 
         -50         1.08  2.73057e-05 -1.54573e-05     -28.9187 
         -50      1.33333  1.04819e-05 -1.74346e-05     -28.9184 
         -50      1.61333 -5.08061e-06 -1.83948e-05      -28.918 
         -50         1.92 -1.95886e-05 -1.77947e-05     -28.9175 
         -50      2.25333  -1.9241e-05 -1.53808e-05     -28.9168 
         -50      2.61333 -1.36037e-05 -1.35106e-05      -28.916 
         -50            3 -1.83758e-05 -1.95759e-05     -28.9149 
         -25            0  3.82993e-21 -9.36302e-24     -27.7478 
         -25     0.013333  9.37927e-06 -1.61835e-08     -27.7478 
         -25     0.053333  9.34676e-06 -1.24801e-07     -27.7478 
         -25         0.12  1.15585e-05  -6.0673e-07     -27.7478 
         -25     0.213332  2.21963e-05 -1.73562e-06     -27.7478 
         -25     0.333332  3.33235e-05 -3.49062e-06     -27.7478 
         -25         0.48  3.89154e-05 -5.54902e-06     -27.7478 
         -25     0.653331  3.88183e-05 -7.57267e-06     -27.7477 
         -25     0.853332  3.51249e-05  -9.3642e-06     -27.7477 
         -25         1.08  2.85036e-05 -1.08931e-05     -27.7476 
         -25      1.33333  1.93615e-05 -1.20789e-05     -27.7475 
         -25      1.61333  4.83967e-06 -1.29529e-05     -27.7473 
         -25         1.92 -1.24441e-05 -1.31014e-05     -27.7471 
         -25      2.25333 -2.99337e-05 -1.35383e-05     -27.7469 
         -25      2.61333 -4.83074e-05 -1.35154e-05     -27.7465 
         -25            3 -4.48328e-05 -5.12035e-06     -27.7461 
           0            0  7.72261e-21 -4.51173e-24     -26.8269 
           0     0.013333  1.95946e-05 -1.38237e-08     -26.8269 
           0     0.053333  4.84695e-05 -1.11231e-07     -26.8269 
           0         0.12  7.93437e-05  -2.9491e-07     -26.8269 
           0     0.213332  0.000102329 -2.53502e-07     -26.8269 
           0     0.333332   0.00011127  4.10761e-07     -26.8269 
           0         0.48  0.000111415  1.82077e-06     -26.8269 
           0     0.653331   0.00010687  3.68958e-06     -26.8269 
           0     0.853332  9.36905e-05  5.37468e-06     -26.8268 
           0         1.08  7.05623e-05  6.41221e-06     -26.8268 
           0      1.33333  4.54098e-05  6.95373e-06     -26.8267 
           0      1.61333  1.86639e-05  7.21254e-06     -26.8267 
           0         1.92 -3.41743e-06  7.16182e-06     -26.8266 
           0      2.25333 -2.05925e-05  6.48328e-06     -26.8264 
           0      2.61333  -3.4034e-05  7.27835e-06     -26.8263 
           0            3 -2.05939e-05  1.57556e-05     -26.8261 
          20            0  2.52278e-21 -2.69966e-24     -26.1781 
          20     0.013333  5.97617e-06 -4.53716e-09     -26.1781 
          20     0.053333  1.37273e-06 -3.55612e-08     -26.1781 
          20         0.12 -5.65659e-06 -1.92526e-07     -26.1781 
          20     0.213332 -7.60298e-06 -6.39056e-07     -26.1781 
          20     0.333332 -5.83463e-06 -1.52012e-06      -26.178 
          20         0.48 -4.01427e-06 -2.86512e-06      -26.178 
          20     0.653331 -5.16499e-06 -4.59743e-06      -26.178 
          20     0.853332 -8.97656e-06 -6.61283e-06      -26.178 
          20         1.08 -1.24072e-05 -8.77806e-06      -26.178 
          20      1.33333 -1.18873e-05 -1.08779e-05      -26.178 
          20      1.61333 -9.56714e-06 -1.26388e-05     -26.1779 
          20         1.92 -7.36528e-06 -1.37972e-05     -26.1779 
          20      2.25333 -6.47631e-06 -1.45167e-05     -26.1778 
          20      2.61333 -8.92204e-06 -1.47552e-05     -26.1777 
          20            3 -9.88929e-06 -1.31258e-05     -26.1776 
          40            0   1.5891e-21 -1.67278e-24     -25.5731 
          40     0.013333  3.66863e-06 -4.73675e-09     -25.5731 
          40     0.053333 -4.35144e-06 -6.54425e-08     -25.5731 
          40         0.12 -1.10685e-05 -3.94032e-07     -25.5731 
          40     0.213332 -6.69253e-06 -1.30836e-06     -25.5731 
          40     0.333332   4.4123e-06 -2.95335e-06     -25.5731 
          40         0.48  1.45499e-05 -5.15037e-06     -25.5731 
          40     0.653331  2.00538e-05 -7.56607e-06     -25.5731 
          40     0.853332  2.20982e-05 -9.88558e-06     -25.5731 
          40         1.08  2.20953e-05 -1.19018e-05     -25.5731 
          40      1.33333  2.04955e-05 -1.35334e-05     -25.5731 
          40      1.61333  1.79507e-05 -1.46817e-05     -25.5731 
          40         1.92  1.57551e-05 -1.51117e-05      -25.573 
          40      2.25333  1.40311e-05 -1.48865e-05      -25.573 
          40      2.61333  8.38441e-06 -1.48066e-05     -25.5729 
          40            3 -5.74012e-06 -1.60609e-05     -25.5728 
          60            0            0            0     -24.9954 
          60     0.013333 -5.79659e-06  4.66079e-10     -24.9954 
          60     0.053333 -3.86208e-05  -1.0193e-08     -24.9954 
          60         0.12  -7.6629e-05 -2.44252e-07     -24.9954 
          60     0.213332 -9.78095e-05  -1.2333e-06     -24.9954 
          60     0.333332 -9.93972e-05  -3.5112e-06     -24.9954 
          60         0.48 -9.20868e-05 -7.21472e-06     -24.9954 
          60     0.653331 -8.63488e-05 -1.20485e-05     -24.9954 
          60     0.853332 -8.15695e-05 -1.74012e-05     -24.9954 
          60         1.08  -7.0661e-05 -2.25307e-05     -24.9954 
          60      1.33333 -5.24523e-05 -2.69987e-05     -24.9954 
          60      1.61333 -3.06635e-05 -3.05199e-05     -24.9954 
          60         1.92 -7.41458e-06 -3.25221e-05     -24.9953 
          60      2.25333  1.33411e-05 -3.30982e-05     -24.9953 
          60      2.61333  2.75634e-05   -3.227e-05     -24.9953 
          60            3  3.21857e-05 -3.01778e-05     -24.9952 
          80            0            0            0     -24.4348 
          80     0.013333 -2.07243e-06  2.64571e-08     -24.4348 
          80     0.053333  -3.1279e-05   3.7478e-07     -24.4348 
          80         0.12 -7.92488e-05  1.47926e-06     -24.4348 
          80     0.213332 -0.000124031  3.28066e-06     -24.4348 
          80     0.333332 -0.000148745  5.13983e-06     -24.4348 
          80         0.48 -0.000152151  6.47322e-06     -24.4348 
          80     0.653331 -0.000142756   7.2526e-06     -24.4348 
          80     0.853332 -0.000124625   7.8488e-06     -24.4348 
          80         1.08 -9.90044e-05  8.51815e-06     -24.4348 
          80      1.33333 -7.11486e-05  9.10854e-06     -24.4348 
          80      1.61333 -3.89764e-05  9.31496e-06     -24.4348 
          80         1.92 -8.96683e-06  9.22191e-06     -24.4348 
          80      2.25333   1.6326e-05  8.87065e-06     -24.4347 
          80      2.61333  4.28722e-05  8.54293e-06     -24.4347 
          80            3  6.04614e-05  8.67507e-06     -24.4347 
         100            0  5.15638e-21 -4.38833e-25     -23.8852 
         100     0.013333  1.17618e-05   4.0445e-08     -23.8852 
         100     0.053333  1.35733e-05  6.06331e-07     -23.8852 
         100         0.12 -1.04722e-05  2.67494e-06     -23.8852 
         100     0.213332 -5.55115e-05  6.89935e-06     -23.8852 
         100     0.333332 -0.000100648  1.30531e-05     -23.8852 
         100         0.48 -0.000127777  2.04629e-05     -23.8852 
         100     0.653331 -0.000131847  2.87482e-05     -23.8852 
         100     0.853332 -0.000114865  3.77658e-05     -23.8852 
         100         1.08 -8.74361e-05  4.69194e-05     -23.8852 
         100      1.33333 -6.41611e-05  5.51708e-05     -23.8852 
         100      1.61333  -3.5936e-05  6.15578e-05     -23.8852 
         100         1.92 -8.09145e-06  6.53399e-05     -23.8851 
         100      2.25333  1.21896e-05  6.61429e-05     -23.8851 
         100      2.61333  2.64366e-05  6.39279e-05     -23.8851 
         100            3  2.51292e-05  5.91712e-05     -23.8851 
         150            0           -0           -0     -22.5369 
         150     0.013333 -1.16004e-05  -1.3655e-08     -22.5369 
         150     0.053333 -5.30829e-05 -2.47569e-07     -22.5369 
         150         0.12 -8.79772e-05 -1.39034e-06     -22.5369 
         150     0.213332 -8.80091e-05 -4.46979e-06     -22.5369 
         150     0.333332 -5.93641e-05  -1.0111e-05     -22.5369 
         150         0.48 -2.68065e-05 -1.80643e-05     -22.5369 
         150     0.653331 -7.87244e-06 -2.75533e-05     -22.5369 
         150     0.853332 -1.91487e-06 -3.76788e-05     -22.5369 
         150         1.08   2.3683e-06 -4.74821e-05     -22.5369 
         150      1.33333   1.2539e-05 -5.62532e-05     -22.5369 
         150      1.61333  2.12438e-05 -6.34582e-05     -22.5369 
         150         1.92  2.78513e-05 -6.81868e-05     -22.5369 
         150      2.25333  3.19659e-05 -7.02056e-05     -22.5369 
         150      2.61333  3.35427e-05 -6.91429e-05     -22.5369 
         150            3  3.62597e-05 -6.53987e-05     -22.5369 
         200            0           -0           -0     -21.2051 
         200     0.013333 -1.78185e-05 -2.22296e-08     -21.2051 
         200     0.053333 -7.40977e-05 -3.71666e-07     -21.2051 
         200         0.12 -0.000125434 -1.91342e-06     -21.2051 
         200     0.213332 -0.000139251 -5.77518e-06     -21.2051 
         200     0.333332 -0.000120793 -1.25888e-05     -21.2051 
         200         0.48 -9.53929e-05 -2.21497e-05     -21.2051 
         200     0.653331 -8.27344e-05 -3.38243e-05     -21.2051 
         200     0.853332  -8.4519e-05 -4.68303e-05     -21.2051 
         200         1.08 -8.58946e-05 -6.00034e-05     -21.2051 
         200      1.33333 -7.05097e-05 -7.20478e-05     -21.2051 
         200      1.61333 -4.68201e-05 -8.20344e-05     -21.2051 
         200         1.92  -2.0035e-05 -8.89698e-05     -21.2051 
         200      2.25333  8.19262e-06 -9.24626e-05     -21.2051 
         200      2.61333  3.32653e-05 -9.22089e-05     -21.2051 
         200            3  5.01509e-05 -8.84171e-05     -21.2051 
         250            0            0            0     -19.8787 
         250     0.013333 -4.16128e-06  -1.0579e-08     -19.8787 
         250     0.053333 -2.91357e-05 -1.77816e-07     -19.8787 
         250         0.12 -5.40971e-05 -9.11272e-07     -19.8787 
         250     0.213332  -6.4129e-05 -2.70371e-06     -19.8787 
         250     0.333332 -6.38615e-05 -5.73876e-06     -19.8787 
         250         0.48 -6.42924e-05 -9.80553e-06     -19.8787 
         250     0.653331 -7.13404e-05 -1.45767e-05     -19.8787 
         250     0.853332 -8.14101e-05  -1.9663e-05     -19.8787 
         250         1.08 -8.35839e-05 -2.44404e-05     -19.8787 
         250      1.33333 -7.12429e-05 -2.83751e-05     -19.8787 
         250      1.61333 -5.22695e-05 -3.13232e-05     -19.8787 
         250         1.92  -3.2172e-05 -3.31382e-05     -19.8787 
         250      2.25333 -1.12038e-05  -3.3689e-05     -19.8787 
         250      2.61333  1.21305e-05 -3.28885e-05     -19.8787 
         250            3  3.45925e-05 -3.06245e-05     -19.8787 
         300            0           -0           -0     -18.5539 
         300     0.013333  2.12312e-06 -8.77721e-08     -18.5539 
         300     0.053333  1.50487e-05 -1.31327e-06     -18.5539 
         300         0.12  8.60003e-05 -5.87002e-06     -18.5539 
         300     0.213332  0.000214865 -1.53746e-05     -18.5539 
         300     0.333332  0.000343878 -2.94156e-05     -18.5539 
         300         0.48  0.000421526 -4.61745e-05     -18.5539 
         300     0.653331  0.000437668 -6.42702e-05     -18.5539 
         300     0.853332  0.000405215 -8.33713e-05     -18.5539 
         300         1.08  0.000344749 -0.000103023     -18.5539 
         300      1.33333  0.000285103 -0.000121717     -18.5539 
         300      1.61333  0.000222376 -0.000137699     -18.5539 
         300         1.92  0.000156924 -0.000149777     -18.5539 
         300      2.25333  9.38579e-05 -0.000157047     -18.5539 
         300      2.61333  2.53132e-05 -0.000158722     -18.5539 
         300            3 -2.55624e-05 -0.000154753     -18.5539 
         350            0 -2.09752e-20 -1.94876e-27     -17.2299 
         350     0.013333 -5.40468e-05 -3.34904e-08     -17.2299 
         350     0.053333 -0.000198741 -5.96705e-07     -17.2299 
         350         0.12 -0.000341009 -3.28455e-06     -17.2299 
         350     0.213332 -0.000401027 -1.04992e-05     -17.2299 
         350     0.333332 -0.000375307 -2.39161e-05     -17.2299 
         350         0.48  -0.00031804 -4.33842e-05     -17.2299 
         350     0.653331 -0.000281181 -6.75319e-05     -17.2299 
         350     0.853332   -0.0002773  -9.4633e-05     -17.2299 
         350         1.08 -0.000278742 -0.000122407     -17.2299 
         350      1.33333 -0.000247246 -0.000148299     -17.2299 
         350      1.61333 -0.000191211 -0.000170611     -17.2299 
         350         1.92 -0.000128822 -0.000188022     -17.2299 
         350      2.25333 -6.38697e-05 -0.000199719     -17.2299 
         350      2.61333 -1.19387e-06 -0.000204471     -17.2299 
         350            3  4.88464e-05 -0.000201853     -17.2299 
         400            0           -0           -0      -15.906 
         400     0.013333   -2.523e-05  2.68595e-08      -15.906 
         400     0.053333 -0.000112178   3.3415e-07      -15.906 
         400         0.12 -0.000225074  1.05878e-06      -15.906 
         400     0.213332 -0.000311165  1.45495e-06      -15.906 
         400     0.333332 -0.000341067  1.90219e-07      -15.906 
         400         0.48 -0.000326548 -3.49195e-06      -15.906 
         400     0.653331 -0.000298649  -9.1965e-06      -15.906 
         400     0.853332 -0.000271847 -1.57385e-05      -15.906 
         400         1.08 -0.000237209 -2.17598e-05      -15.906 
         400      1.33333  -0.00018743  -2.6591e-05      -15.906 
         400      1.61333 -0.000132892 -3.05666e-05      -15.906 
         400         1.92 -8.13993e-05  -3.3788e-05      -15.906 
         400      2.25333 -3.17738e-05 -3.62051e-05      -15.906 
         400      2.61333   1.8265e-05 -3.74624e-05      -15.906 
         400            3  5.91156e-05 -3.74022e-05      -15.906 
         450            0           -0           -0     -14.5818 
         450     0.013333  4.96713e-05  3.42754e-08     -14.5818 
         450     0.053333  0.000150094  5.64484e-07     -14.5818 
         450         0.12  0.000238481  2.87839e-06     -14.5818 
         450     0.213332  0.000264021  8.72241e-06     -14.5818 
         450     0.333332  0.000223568  1.92831e-05     -14.5818 
         450         0.48  0.000157139  3.45088e-05     -14.5818 
         450     0.653331  0.000105704  5.35159e-05     -14.5818 
         450     0.853332  8.63189e-05  7.53066e-05     -14.5818 
         450         1.08  9.03838e-05   9.8735e-05     -14.5818 
         450      1.33333  9.16222e-05  0.000122154     -14.5818 
         450      1.61333  8.03818e-05   0.00014377     -14.5818 
         450         1.92  6.19478e-05  0.000162191     -14.5818 
         450      2.25333  4.14658e-05  0.000176449     -14.5818 
         450      2.61333  2.38836e-05   0.00018536     -14.5818 
         450            3  5.75377e-06   0.00018799     -14.5818 
         500            0           -0           -0     -13.2577 
         500     0.013333 -4.68836e-05  2.24115e-08     -13.2577 
         500     0.053333 -0.000191948  2.76087e-07     -13.2577 
         500         0.12 -0.000382547  8.29882e-07     -13.2577 
         500     0.213332 -0.000542938  8.17341e-07     -13.2577 
         500     0.333332 -0.000620448 -1.49486e-06     -13.2577 
         500         0.48 -0.000615653 -7.58244e-06     -13.2577 
         500     0.653331 -0.000569238 -1.77195e-05     -13.2577 
         500     0.853332  -0.00051858  -3.1105e-05     -13.2577 
         500         1.08 -0.000473587 -4.65033e-05     -13.2577 
         500      1.33333  -0.00042261 -6.26564e-05     -13.2577 
         500      1.61333 -0.000355233 -7.83637e-05     -13.2577 
         500         1.92  -0.00027395 -9.25382e-05     -13.2577 
         500      2.25333 -0.000184892 -0.000104559     -13.2577 
         500      2.61333 -9.08194e-05 -0.000113533     -13.2577 
         500            3  -1.5745e-06 -0.000118662     -13.2577 
         550            0           -0           -0     -11.9327 
         550     0.013333  6.70638e-05 -9.62092e-08     -11.9327 
         550     0.053333  0.000252734  -1.3611e-06     -11.9327 
         550         0.12    0.0005413 -5.59321e-06     -11.9327 
         550     0.213332  0.000857145 -1.31808e-05     -11.9327 
         550     0.333332   0.00109814 -2.22366e-05     -11.9327 
         550         0.48   0.00121853 -3.01167e-05     -11.9327 
         550     0.653331   0.00124392 -3.55232e-05     -11.9327 
         550     0.853332   0.00121466 -3.91619e-05     -11.9327 
         550         1.08   0.00113861 -4.28902e-05     -11.9327 
         550      1.33333   0.00100971 -4.79642e-05     -11.9327 
         550      1.61333  0.000842094  -5.3861e-05     -11.9327 
         550         1.92  0.000663269 -5.94353e-05     -11.9327 
         550      2.25333  0.000478139  -6.3837e-05     -11.9327 
         550      2.61333  0.000277136 -6.67188e-05     -11.9327 
         550            3  8.90983e-05 -6.79145e-05     -11.9327 
         600            0           -0           -0     -10.6083 
         600     0.013333  2.79785e-05   6.5681e-08     -10.6083 
         600     0.053333  6.45957e-05  9.93296e-07     -10.6083 
         600         0.12  5.82543e-05  4.55058e-06     -10.6083 
         600     0.213332 -1.39324e-05  1.24306e-05     -10.6083 
         600     0.333332 -0.000127235  2.51724e-05     -10.6083 
         600         0.48 -0.000233685   4.2069e-05     -10.6083 
         600     0.653331 -0.000302085  6.20557e-05     -10.6083 
         600     0.853332 -0.000324399  8.45392e-05     -10.6083 
         600         1.08 -0.000303073  0.000109338     -10.6083 
         600      1.33333 -0.000252188  0.000135837     -10.6083 
         600      1.61333 -0.000193157  0.000162361     -10.6083 
         600         1.92 -0.000144124  0.000186846     -10.6083 
         600      2.25333 -0.000101797  0.000207684     -10.6083 
         600      2.61333 -5.33606e-05  0.000223461     -10.6083 
         600            3 -9.84521e-06  0.000232855     -10.6083 
         650            0            0            0     -9.28318 
         650     0.013333  -1.0137e-05 -2.04345e-08     -9.28318 
         650     0.053333  -4.7024e-05 -3.27403e-07     -9.28318 
         650         0.12 -7.90129e-05  -1.6066e-06     -9.28318 
         650     0.213332 -8.35979e-05  -4.6567e-06     -9.28318 
         650     0.333332 -6.84559e-05 -9.80842e-06     -9.28318 
         650         0.48 -5.54813e-05 -1.67015e-05     -9.28318 
         650     0.653331 -5.92345e-05 -2.47083e-05     -9.28318 
         650     0.853332 -7.89136e-05 -3.33546e-05     -9.28318 
         650         1.08 -0.000102419 -4.21646e-05     -9.28318 
         650      1.33333 -0.000112743 -5.03986e-05     -9.28318 
         650      1.61333 -0.000104516  -5.7388e-05     -9.28318 
         650         1.92 -8.75144e-05 -6.29299e-05     -9.28318 
         650      2.25333 -6.91261e-05  -6.6997e-05     -9.28318 
         650      2.61333 -4.98399e-05 -6.93088e-05     -9.28318 
         650            3 -2.91496e-05 -6.95587e-05     -9.28318 
         700            0           -0           -0     -7.95801 
         700     0.013333  1.91882e-05  8.73624e-08     -7.95801 
         700     0.053333  2.33521e-05  1.33249e-06     -7.95801 
         700         0.12 -4.88654e-05    6.152e-06     -7.95801 
         700     0.213332 -0.000212935  1.68164e-05     -7.95801 
         700     0.333332 -0.000412263  3.36936e-05     -7.95801 
         700         0.48  -0.00056529  5.50636e-05     -7.95801 
         700     0.653331 -0.000632833  7.87658e-05     -7.95801 
         700     0.853332 -0.000623562  0.000103665     -7.95801 
         700         1.08 -0.000563874  0.000129353     -7.95801 
         700      1.33333 -0.000486062  0.000154914     -7.95801 
         700      1.61333  -0.00041159  0.000178797     -7.95801 
         700         1.92 -0.000341219  0.000199814     -7.95801 
         700      2.25333 -0.000266589  0.000217123     -7.95801 
         700      2.61333 -0.000181126  0.000229585       -7.958 
         700            3 -9.61368e-05  0.000236105       -7.958 
         750            0           -0           -0     -6.63236 
         750     0.013333 -6.78578e-05 -8.94675e-08     -6.63236 
         750     0.053333 -0.000231956  -1.4255e-06     -6.63236 
         750         0.12 -0.000357596 -6.98948e-06     -6.63236 
         750     0.213332 -0.000343374 -2.04271e-05     -6.63236 
         750     0.333332  -0.00020494  -4.3773e-05     -6.63236 
         750         0.48 -3.98755e-05 -7.62224e-05     -6.63236 
         750     0.653331   6.5398e-05 -0.000115362     -6.63236 
         750     0.853332  8.39647e-05 -0.000159086     -6.63236 
         750         1.08  3.78503e-05 -0.000205722     -6.63236 
         750      1.33333 -1.83425e-05 -0.000252793     -6.63236 
         750      1.61333 -4.06974e-05 -0.000297111     -6.63236 
         750         1.92 -3.30365e-05 -0.000336526     -6.63236 
         750      2.25333  -1.9557e-05 -0.000369834     -6.63236 
         750      2.61333 -1.18226e-05  -0.00039522     -6.63236 
         750            3 -2.34691e-06 -0.000410524     -6.63236 
         800            0            0            0     -5.30636 
         800     0.013333   0.00011621  2.36081e-08     -5.30636 
         800     0.053333  0.000392766  4.80659e-07     -5.30636 
         800         0.12  0.000695368  3.02483e-06     -5.30636 
         800     0.213332   0.00088066  1.08459e-05     -5.30636 
         800     0.333332   0.00089051   2.7164e-05     -5.30636 
         800         0.48  0.000784752  5.30645e-05     -5.30636 
         800     0.653331  0.000667049   8.7122e-05     -5.30636 
         800     0.853332  0.000599991  0.000126772     -5.30636 
         800         1.08  0.000578578  0.000169203     -5.30636 
         800      1.33333  0.000551402  0.000211299     -5.30636 
         800      1.61333  0.000482221  0.000250301     -5.30636 
         800         1.92  0.000386753  0.000284991     -5.30637 
         800      2.25333  0.000288325  0.000314856     -5.30637 
         800      2.61333   0.00018975  0.000338385     -5.30637 
         800            3  8.95443e-05  0.000353619     -5.30638 
         850            0            0            0     -3.98092 
         850     0.013333 -4.84918e-05   9.7684e-08     -3.98092 
         850     0.053333 -0.000223228  1.40233e-06     -3.98092 
         850         0.12 -0.000517575  5.91518e-06     -3.98092 
         850     0.213332 -0.000862386  1.44907e-05     -3.98092 
         850     0.333332  -0.00115337  2.57444e-05     -3.98092 
         850         0.48  -0.00132386  3.71479e-05     -3.98092 
         850     0.653331  -0.00138244   4.7025e-05     -3.98092 
         850     0.853332  -0.00137218  5.55235e-05     -3.98092 
         850         1.08  -0.00131318   6.4221e-05     -3.98092 
         850      1.33333  -0.00119722  7.48198e-05     -3.98092 
         850      1.61333  -0.00103087  8.74731e-05     -3.98092 
         850         1.92 -0.000851539  0.000100546     -3.98092 
         850      2.25333 -0.000672697  0.000112319     -3.98092 
         850      2.61333 -0.000479827  0.000122056     -3.98091 
         850            3 -0.000279739    0.0001292      -3.9809 
         900            0            0            0     -2.65439 
         900     0.013333 -5.28025e-05  2.44579e-08     -2.65439 
         900     0.053333 -0.000219375  3.37268e-07     -2.65439 
         900         0.12  -0.00045987   1.3173e-06     -2.65439 
         900     0.213332 -0.000707202  2.79935e-06     -2.65439 
         900     0.333332 -0.000894855  3.73619e-06     -2.65439 
         900         0.48 -0.000987462  2.58678e-06     -2.65439 
         900     0.653331 -0.000997112 -1.89624e-06     -2.65439 
         900     0.853332 -0.000964309 -1.01762e-05     -2.65439 
         900         1.08 -0.000924299 -2.19351e-05     -2.65439 
         900      1.33333 -0.000882789 -3.61257e-05     -2.65439 
         900      1.61333 -0.000818292 -5.10454e-05     -2.65439 
         900         1.92 -0.000716723 -6.51649e-05     -2.65439 
         900      2.25333 -0.000589536 -7.79425e-05     -2.65439 
         900      2.61333 -0.000447858 -8.91052e-05     -2.65438 
         900            3 -0.000295463  -9.8051e-05     -2.65438 
         950            0            0            0     -1.32781 
         950     0.013333 -0.000148226  6.71485e-08     -1.32781 
         950     0.053333  -0.00057538  8.67793e-07     -1.32781 
         950         0.12  -0.00115609  2.93748e-06     -1.32781 
         950     0.213332  -0.00168982  4.47683e-06     -1.32781 
         950     0.333332  -0.00200318  1.08942e-06     -1.32781 
         950         0.48  -0.00205665 -1.15471e-05     -1.32781 
         950     0.653331  -0.00194444 -3.47724e-05     -1.32781 
         950     0.853332  -0.00178597 -6.66006e-05     -1.32781 
         950         1.08  -0.00163422 -0.000103429     -1.32781 
         950      1.33333  -0.00147567 -0.000141865     -1.32781 
         950      1.61333  -0.00129259  -0.00017986     -1.32781 
         950         1.92  -0.00108758 -0.000216742     -1.32781 
         950      2.25333 -0.000865524 -0.000251628      -1.3278 
         950      2.61333 -0.000623712 -0.000282408     -1.32779 
         950            3  -0.00036831  -0.00030784     -1.32778 
        1000            0            0            0            0 
        1000     0.013333 -8.56004e-05 -9.26146e-06           -0 
        1000     0.053333 -0.000404609 -4.03292e-05           -0 
        1000         0.12 -0.000935471 -9.99743e-05 -1.10301e-16 
        1000     0.213332   -0.0018814 -6.63158e-05 -1.30713e-15 
        1000     0.333332  -0.00191198  0.000318936  -7.2017e-16 
        1000         0.48 -0.000468072  0.000471241           -0 
        1000     0.653331  -0.00112761  0.000642556            0 
        1000     0.853332  0.000252268   0.00114594            0 
        1000         1.08   0.00105951   0.00124737            0 
        1000      1.33333   0.00394202  0.000925222 -7.76141e-16 
        1000      1.61333   0.00157905 -0.000539268           -0 
        1000         1.92   0.00118954 -0.000464095  -1.5147e-15 
        1000      2.25333   0.00162865 -0.000423375 -1.65285e-15 
        1000      2.61333    0.0028005  -0.00126261           -0 
        1000            3  0.000935953  -0.00148866 -1.55581e-15 
