Variables = x, y, u, v, p

Zone, I=416, F=POINT
         -50            0            0            0     -45.0883 
         -50     0.013333 -0.000119025 -6.14342e-08     -45.0883 
         -50     0.053333 -8.47814e-05 -1.67259e-07     -45.0883 
         -50         0.12 -3.99389e-05 -1.64209e-07     -45.0883 
         -50     0.213332 -1.54142e-05  4.99455e-07     -45.0883 
         -50     0.333332 -8.67509e-06  2.37435e-06     -45.0882 
         -50         0.48 -8.58251e-06  5.57581e-06     -45.0881 
         -50     0.653331 -9.65454e-06  9.66394e-06      -45.088 
         -50     0.853332 -1.76408e-05  1.38444e-05     -45.0877 
         -50         1.08 -3.71006e-05  1.73979e-05     -45.0874 
         -50      1.33333 -6.50297e-05  1.99332e-05      -45.087 
         -50      1.61333 -9.86274e-05  2.11068e-05     -45.0864 
         -50         1.92 -0.000127519  2.08522e-05     -45.0855 
         -50      2.25333 -0.000149844  1.87455e-05     -45.0845 
         -50      2.61333 -0.000170593   1.1202e-05     -45.0832 
         -50            3 -0.000179925  8.26608e-07     -45.0816 
         -25            0 -1.09935e-19 -1.50937e-23     -43.2599 
         -25     0.013333 -0.000104184 -2.12927e-08     -43.2599 
         -25     0.053333 -0.000122134 -6.86274e-08     -43.2599 
         -25         0.12 -0.000132709 -3.49314e-07     -43.2599 
         -25     0.213332  -0.00013487 -1.30969e-06     -43.2599 
         -25     0.333332 -0.000126054 -3.32121e-06     -43.2599 
         -25         0.48 -0.000115483 -6.36978e-06     -43.2599 
         -25     0.653331  -0.00011028 -1.01256e-05     -43.2598 
         -25     0.853332  -0.00010897  -1.4073e-05     -43.2597 
         -25         1.08 -0.000106504 -1.77619e-05     -43.2596 
         -25      1.33333  -9.9164e-05 -2.07942e-05     -43.2594 
         -25      1.61333 -8.71599e-05 -2.30685e-05     -43.2592 
         -25         1.92 -7.27128e-05 -2.41318e-05     -43.2588 
         -25      2.25333 -6.42982e-05 -2.49117e-05     -43.2584 
         -25      2.61333 -7.74149e-05 -2.80939e-05     -43.2579 
         -25            3 -9.36181e-05 -3.06314e-05     -43.2573 
           0            0 -8.97796e-20 -7.26248e-24     -41.8235 
           0     0.013333 -8.11597e-05  -1.8222e-08     -41.8235 
           0     0.053333 -8.08973e-05 -1.24774e-07     -41.8235 
           0         0.12 -7.53831e-05 -4.17052e-07     -41.8235 
           0     0.213332 -7.40607e-05  -8.7839e-07     -41.8235 
           0     0.333332 -7.38106e-05 -1.49504e-06     -41.8235 
           0         0.48 -7.35175e-05 -2.40352e-06     -41.8235 
           0     0.653331 -7.55051e-05 -3.83236e-06     -41.8234 
           0     0.853332 -8.15433e-05 -5.88262e-06     -41.8234 
           0         1.08 -8.75114e-05  -8.2839e-06     -41.8233 
           0      1.33333 -9.00486e-05 -1.05841e-05     -41.8233 
           0      1.61333  -9.4306e-05 -1.25266e-05     -41.8231 
           0         1.92 -9.54702e-05 -1.37836e-05      -41.823 
           0      2.25333 -8.63659e-05 -1.41977e-05     -41.8228 
           0      2.61333 -7.93983e-05 -1.53149e-05     -41.8225 
           0            3 -8.30277e-05 -1.85291e-05     -41.8222 
          20            0  -7.9532e-20 -4.34334e-24     -40.8116 
          20     0.013333 -6.76267e-05  9.29729e-09     -40.8116 
          20     0.053333 -5.51821e-05  2.33209e-07     -40.8116 
          20         0.12 -4.75123e-05  1.16016e-06     -40.8116 
          20     0.213332 -5.79196e-05  3.27706e-06     -40.8116 
          20     0.333332 -7.49427e-05  6.67331e-06     -40.8116 
          20         0.48  -8.6071e-05  1.10727e-05     -40.8116 
          20     0.653331 -8.64584e-05  1.61409e-05     -40.8116 
          20     0.853332 -7.94769e-05  2.14573e-05     -40.8115 
          20         1.08 -7.28432e-05   2.6433e-05     -40.8115 
          20      1.33333 -7.07328e-05  3.05173e-05     -40.8115 
          20      1.61333  -6.8647e-05  3.33711e-05     -40.8114 
          20         1.92 -6.86959e-05  3.44735e-05     -40.8113 
          20      2.25333 -7.17059e-05  3.36349e-05     -40.8112 
          20      2.61333 -8.30745e-05   3.0424e-05      -40.811 
          20            3 -9.90921e-05  2.61751e-05     -40.8108 
          40            0 -7.45172e-20  -2.6896e-24     -39.8683 
          40     0.013333 -6.20794e-05  5.71216e-09     -39.8683 
          40     0.053333 -4.41037e-05  1.47983e-07     -39.8683 
          40         0.12 -2.59562e-05  7.62582e-07     -39.8683 
          40     0.213332 -2.31904e-05  2.23807e-06     -39.8683 
          40     0.333332 -2.98972e-05  4.74981e-06     -39.8683 
          40         0.48  -3.6604e-05  8.22906e-06     -39.8683 
          40     0.653331  -3.7407e-05  1.24983e-05     -39.8683 
          40     0.853332 -3.37225e-05  1.71981e-05     -39.8683 
          40         1.08 -3.27657e-05  2.16946e-05     -39.8683 
          40      1.33333 -3.77101e-05  2.54547e-05     -39.8682 
          40      1.61333 -4.40661e-05  2.82033e-05     -39.8682 
          40         1.92 -5.23289e-05  2.92663e-05     -39.8681 
          40      2.25333 -6.19518e-05   2.9021e-05     -39.8681 
          40      2.61333 -7.20832e-05  2.65789e-05      -39.868 
          40            3 -8.68647e-05  2.19372e-05     -39.8679 
          60            0            0            0     -38.9674 
          60     0.013333 -6.55348e-05 -1.92837e-09     -38.9674 
          60     0.053333 -6.06555e-05  7.19468e-09     -38.9674 
          60         0.12 -5.23912e-05  7.26705e-08     -38.9674 
          60     0.213332 -4.99738e-05  2.63592e-07     -38.9674 
          60     0.333332 -5.06061e-05   6.1074e-07     -38.9674 
          60         0.48 -5.20018e-05  1.08716e-06     -38.9674 
          60     0.653331 -5.31319e-05  1.63656e-06     -38.9674 
          60     0.853332 -5.42212e-05  2.16556e-06     -38.9674 
          60         1.08 -5.59281e-05  2.54705e-06     -38.9674 
          60      1.33333 -5.73379e-05  2.73684e-06     -38.9674 
          60      1.61333 -5.71558e-05  2.79784e-06     -38.9674 
          60         1.92 -5.49952e-05  2.65793e-06     -38.9673 
          60      2.25333 -5.54015e-05  2.21795e-06     -38.9673 
          60      2.61333 -6.31718e-05   1.5223e-06     -38.9672 
          60            3 -6.71355e-05   1.9269e-06     -38.9672 
          80            0            0            0     -38.0933 
          80     0.013333 -6.49302e-05  1.13343e-10     -38.0933 
          80     0.053333 -6.28659e-05  2.50147e-08     -38.0933 
          80         0.12 -5.86982e-05  1.40331e-07     -38.0933 
          80     0.213332 -6.04231e-05  4.24502e-07     -38.0933 
          80     0.333332 -6.41157e-05  8.95235e-07     -38.0933 
          80         0.48 -6.70236e-05  1.48519e-06     -38.0933 
          80     0.653331 -6.85427e-05  2.10274e-06     -38.0933 
          80     0.853332 -6.89926e-05   2.6887e-06     -38.0933 
          80         1.08  -6.8479e-05  3.20154e-06     -38.0933 
          80      1.33333 -6.70511e-05  3.59758e-06     -38.0933 
          80      1.61333 -6.46442e-05   3.8535e-06     -38.0933 
          80         1.92 -6.11981e-05  3.92787e-06     -38.0932 
          80      2.25333 -5.48387e-05  4.00088e-06     -38.0932 
          80      2.61333  -4.4055e-05  4.02568e-06     -38.0932 
          80            3 -3.42798e-05  3.83166e-06     -38.0931 
         100            0 -6.94298e-20 -7.04999e-25     -37.2363 
         100     0.013333 -5.82346e-05  -8.2003e-09     -37.2363 
         100     0.053333 -3.95478e-05 -9.57306e-08     -37.2363 
         100         0.12 -1.16678e-05 -3.28311e-07     -37.2363 
         100     0.213332   8.2755e-06 -5.58799e-07     -37.2363 
         100     0.333332  1.59661e-05 -4.54114e-07     -37.2363 
         100         0.48  1.42458e-05  2.33529e-07     -37.2363 
         100     0.653331  9.17876e-06  1.49373e-06     -37.2363 
         100     0.853332  3.34151e-06  3.12053e-06     -37.2363 
         100         1.08 -4.47168e-06   4.8696e-06     -37.2363 
         100      1.33333 -1.51907e-05  6.56857e-06     -37.2363 
         100      1.61333 -2.87044e-05  8.09989e-06     -37.2363 
         100         1.92 -4.33712e-05  9.26988e-06     -37.2362 
         100      2.25333  -5.7568e-05  9.95116e-06     -37.2362 
         100      2.61333 -7.17186e-05  1.01164e-05     -37.2362 
         100            3 -8.38119e-05   9.5757e-06     -37.2362 
         150            0           -0           -0     -35.1341 
         150     0.013333 -5.88099e-05 -9.34727e-09     -35.1341 
         150     0.053333  -4.4199e-05 -1.26078e-07     -35.1341 
         150         0.12  -1.9345e-05 -4.98939e-07     -35.1341 
         150     0.213332  1.23876e-06 -1.10618e-06     -35.1341 
         150     0.333332  1.23354e-05 -1.70081e-06     -35.1341 
         150         0.48  1.37726e-05  -2.0205e-06     -35.1341 
         150     0.653331  9.77443e-06 -1.98865e-06     -35.1341 
         150     0.853332  3.51765e-06 -1.69905e-06     -35.1341 
         150         1.08 -5.00873e-06 -1.30857e-06     -35.1341 
         150      1.33333 -1.61753e-05 -9.23666e-07     -35.1341 
         150      1.61333  -2.9717e-05 -5.29697e-07     -35.1341 
         150         1.92 -4.20998e-05 -1.53208e-07     -35.1341 
         150      2.25333 -5.05081e-05   2.6737e-07     -35.1341 
         150      2.61333 -5.74089e-05  5.09648e-07     -35.1341 
         150            3 -6.68932e-05  1.03452e-07     -35.1341 
         200            0           -0           -0     -33.0574 
         200     0.013333 -4.19129e-05 -2.32784e-09     -33.0574 
         200     0.053333  1.12982e-05  1.72366e-08     -33.0574 
         200         0.12    7.023e-05  3.97544e-07     -33.0574 
         200     0.213332  9.82578e-05  1.98324e-06     -33.0574 
         200     0.333332  9.22204e-05   5.5759e-06     -33.0574 
         200         0.48  7.18067e-05   1.1251e-05     -33.0574 
         200     0.653331  5.57941e-05  1.83837e-05     -33.0574 
         200     0.853332  4.54449e-05  2.60226e-05     -33.0574 
         200         1.08  3.06516e-05  3.32172e-05     -33.0574 
         200      1.33333  7.77533e-06  3.95348e-05     -33.0574 
         200      1.61333 -1.70413e-05  4.48791e-05     -33.0574 
         200         1.92 -4.12967e-05   4.8604e-05     -33.0574 
         200      2.25333 -6.24056e-05  5.05682e-05     -33.0574 
         200      2.61333 -7.99219e-05  5.04541e-05     -33.0574 
         200            3 -9.05123e-05  4.83136e-05     -33.0574 
         250            0            0            0     -30.9894 
         250     0.013333 -4.78629e-05  1.41802e-08     -30.9894 
         250     0.053333 -1.26542e-05  2.36276e-07     -30.9894 
         250         0.12  2.19634e-05  1.19838e-06     -30.9894 
         250     0.213332  3.31153e-05  3.53819e-06     -30.9894 
         250     0.333332  2.70281e-05  7.52572e-06     -30.9894 
         250         0.48  1.89871e-05  1.29694e-05     -30.9894 
         250     0.653331  1.93492e-05  1.95488e-05     -30.9894 
         250     0.853332  2.77528e-05  2.68534e-05     -30.9894 
         250         1.08  3.21575e-05  3.40744e-05     -30.9894 
         250      1.33333  2.10154e-05  4.03377e-05     -30.9894 
         250      1.61333  1.83433e-06  4.53042e-05     -30.9894 
         250         1.92 -1.96208e-05   4.8631e-05     -30.9894 
         250      2.25333 -4.24062e-05  5.02176e-05     -30.9894 
         250      2.61333 -6.43927e-05  4.98701e-05     -30.9894 
         250            3 -7.89387e-05  4.78495e-05     -30.9894 
         300            0           -0           -0     -28.9242 
         300     0.013333 -8.21312e-05  6.20412e-08     -28.9242 
         300     0.053333 -0.000147373  8.87725e-07     -28.9242 
         300         0.12 -0.000258402  3.70698e-06     -28.9242 
         300     0.213332 -0.000389543  8.91763e-06     -28.9242 
         300     0.333332 -0.000489177  1.54919e-05     -28.9242 
         300         0.48 -0.000534715  2.19701e-05     -28.9242 
         300     0.653331 -0.000537221  2.77865e-05     -28.9242 
         300     0.853332 -0.000509765  3.34639e-05     -28.9242 
         300         1.08 -0.000456311  3.96144e-05     -28.9242 
         300      1.33333 -0.000389069  4.58036e-05     -28.9242 
         300      1.61333 -0.000311929  5.09744e-05     -28.9242 
         300         1.92 -0.000231119  5.47253e-05     -28.9242 
         300      2.25333 -0.000153397  5.66437e-05     -28.9242 
         300      2.61333 -7.48738e-05  5.65277e-05     -28.9242 
         300            3 -1.78035e-05  5.43622e-05     -28.9242 
         350            0 -6.35549e-20  -2.7723e-27     -26.8595 
         350     0.013333 -4.61386e-05 -7.18409e-09     -26.8595 
         350     0.053333  5.17866e-07 -8.96755e-08     -26.8595 
         350         0.12    6.629e-05 -2.90203e-07     -26.8595 
         350     0.213332  0.000125442 -4.26518e-07     -26.8595 
         350     0.333332  0.000166283 -1.18892e-07     -26.8595 
         350         0.48  0.000187663  9.88963e-07     -26.8595 
         350     0.653331  0.000196532  3.04628e-06     -26.8595 
         350     0.853332  0.000198708  5.91473e-06     -26.8595 
         350         1.08  0.000191607  9.12813e-06     -26.8595 
         350      1.33333  0.000167816  1.20465e-05     -26.8595 
         350      1.61333  0.000128188  1.42941e-05     -26.8595 
         350         1.92  8.31058e-05  1.57641e-05     -26.8595 
         350      2.25333  3.67037e-05  1.65956e-05     -26.8595 
         350      2.61333 -1.37084e-05  1.66349e-05     -26.8595 
         350            3 -5.81892e-05  1.58939e-05     -26.8595 
         400            0           -0           -0     -24.7954 
         400     0.013333   -5.784e-05  1.54744e-08     -24.7954 
         400     0.053333 -4.87228e-05  2.37538e-07     -24.7954 
         400         0.12 -4.66924e-05  1.11011e-06     -24.7954 
         400     0.213332 -6.55423e-05  3.09271e-06     -24.7954 
         400     0.333332 -9.63233e-05  6.36093e-06     -24.7954 
         400         0.48 -0.000125329  1.07334e-05     -24.7954 
         400     0.653331 -0.000143844  1.58945e-05     -24.7954 
         400     0.853332 -0.000149726  2.16324e-05     -24.7954 
         400         1.08 -0.000144402  2.78226e-05     -24.7954 
         400      1.33333 -0.000132791   3.4214e-05     -24.7954 
         400      1.61333 -0.000118073    4.033e-05     -24.7954 
         400         1.92 -0.000103046   4.5659e-05     -24.7954 
         400      2.25333 -8.75922e-05  4.98419e-05     -24.7954 
         400      2.61333 -6.83464e-05  5.24904e-05     -24.7954 
         400            3 -5.05904e-05  5.33904e-05     -24.7954 
         450            0           -0           -0     -22.7311 
         450     0.013333 -6.95636e-05 -2.90069e-08     -22.7311 
         450     0.053333 -7.69556e-05 -4.44326e-07     -22.7311 
         450         0.12 -6.03119e-05 -2.05785e-06     -22.7311 
         450     0.213332 -1.96255e-05 -5.62668e-06     -22.7311 
         450     0.333332  2.96743e-05 -1.12488e-05     -22.7311 
         450         0.48  6.44531e-05 -1.83343e-05     -22.7311 
         450     0.653331  7.51796e-05 -2.61847e-05     -22.7311 
         450     0.853332  6.63817e-05  -3.4408e-05     -22.7311 
         450         1.08  4.74921e-05 -4.27515e-05     -22.7311 
         450      1.33333  2.83684e-05 -5.08024e-05     -22.7311 
         450      1.61333  1.02708e-05 -5.80359e-05     -22.7311 
         450         1.92 -7.26422e-06 -6.39956e-05     -22.7311 
         450      2.25333 -2.43024e-05 -6.83021e-05     -22.7311 
         450      2.61333 -4.31866e-05 -7.05674e-05     -22.7311 
         450            3 -5.82889e-05  -7.0471e-05     -22.7311 
         500            0           -0           -0     -20.6667 
         500     0.013333 -0.000105501  7.25739e-08     -20.6667 
         500     0.053333 -0.000234092  1.01855e-06     -20.6667 
         500         0.12 -0.000427625  4.11312e-06     -20.6667 
         500     0.213332 -0.000628342  9.38721e-06     -20.6667 
         500     0.333332 -0.000758905   1.5053e-05     -20.6667 
         500         0.48 -0.000795193  1.90097e-05     -20.6667 
         500     0.653331 -0.000768112  2.06442e-05     -20.6667 
         500     0.853332 -0.000711349  2.09902e-05     -20.6667 
         500         1.08 -0.000633848  2.14484e-05     -20.6667 
         500      1.33333 -0.000541316   2.2337e-05     -20.6667 
         500      1.61333 -0.000444093  2.29229e-05     -20.6667 
         500         1.92 -0.000346831  2.28803e-05     -20.6667 
         500      2.25333 -0.000247033  2.21234e-05     -20.6667 
         500      2.61333 -0.000140112  2.07108e-05     -20.6666 
         500            3 -4.38679e-05  1.87608e-05     -20.6666 
         550            0           -0           -0     -18.6012 
         550     0.013333  2.27877e-05 -4.58385e-08     -18.6012 
         550     0.053333  0.000257421 -5.63094e-07     -18.6012 
         550         0.12  0.000564856 -1.71917e-06     -18.6012 
         550     0.213332  0.000822828 -2.02125e-06     -18.6012 
         550     0.333332  0.000954718  1.24491e-06     -18.6012 
         550         0.48  0.000971555  9.95186e-06     -18.6012 
         550     0.653331  0.000938195  2.39048e-05     -18.6012 
         550     0.853332  0.000899739  4.12212e-05     -18.6012 
         550         1.08  0.000846126  5.90901e-05     -18.6012 
         550      1.33333  0.000744277  7.49945e-05     -18.6012 
         550      1.61333  0.000600767  8.82387e-05     -18.6012 
         550         1.92  0.000448045  9.91729e-05     -18.6012 
         550      2.25333  0.000292481  0.000107869     -18.6012 
         550      2.61333  0.000127657  0.000113592     -18.6012 
         550            3 -2.58458e-05  0.000115634     -18.6012 
         600            0           -0           -0     -16.5363 
         600     0.013333 -9.75567e-05  4.75735e-08     -16.5363 
         600     0.053333 -0.000200655  6.74617e-07     -16.5363 
         600         0.12 -0.000356372  2.78449e-06     -16.5363 
         600     0.213332 -0.000527319  6.59463e-06     -16.5363 
         600     0.333332 -0.000655534  1.11448e-05     -16.5363 
         600         0.48 -0.000713622  1.49795e-05     -16.5363 
         600     0.653331 -0.000715237  1.72226e-05     -16.5363 
         600     0.853332 -0.000688147   1.7953e-05     -16.5363 
         600         1.08 -0.000646447  1.78689e-05     -16.5363 
         600      1.33333 -0.000586562  1.78393e-05     -16.5363 
         600      1.61333 -0.000503749  1.83981e-05     -16.5363 
         600         1.92 -0.000410717  1.93653e-05     -16.5363 
         600      2.25333 -0.000315237  2.01864e-05     -16.5363 
         600      2.61333 -0.000213006  2.07113e-05     -16.5363 
         600            3 -0.000115223  2.09352e-05     -16.5363 
         650            0            0            0     -14.4701 
         650     0.013333 -4.90127e-05 -1.38948e-07     -14.4701 
         650     0.053333  3.18542e-05 -2.06592e-06     -14.4701 
         650         0.12  0.000239745 -9.18091e-06     -14.4701 
         650     0.213332  0.000547075 -2.39689e-05     -14.4701 
         650     0.333332  0.000845835 -4.57308e-05     -14.4701 
         650         0.48   0.00103322  -7.1294e-05     -14.4701 
         650     0.653331   0.00108767 -9.79302e-05     -14.4701 
         650     0.853332   0.00104201 -0.000125086     -14.4701 
         650         1.08   0.00093011 -0.000153295     -14.4701 
         650      1.33333  0.000787335 -0.000181921     -14.4701 
         650      1.61333  0.000643313   -0.0002088     -14.4701 
         650         1.92  0.000505051 -0.000232197     -14.4701 
         650      2.25333  0.000361978 -0.000250907     -14.4701 
         650      2.61333  0.000202151 -0.000263694     -14.4702 
         650            3  4.65206e-05 -0.000269325     -14.4702 
         700            0           -0           -0     -12.4046 
         700     0.013333 -2.14999e-05  1.62767e-07     -12.4046 
         700     0.053333  3.71944e-05  2.47195e-06     -12.4046 
         700         0.12 -1.48258e-05  1.13579e-05     -12.4046 
         700     0.213332 -0.000236234   3.0967e-05     -12.4046 
         700     0.333332 -0.000539991  6.21772e-05     -12.4046 
         700         0.48 -0.000791936  0.000102428     -12.4046 
         700     0.653331 -0.000920572  0.000148496     -12.4046 
         700     0.853332 -0.000925562  0.000198892     -12.4046 
         700         1.08  -0.00083192  0.000253332     -12.4046 
         700      1.33333 -0.000688562  0.000310137     -12.4046 
         700      1.61333  -0.00055467  0.000365203     -12.4046 
         700         1.92 -0.000452551  0.000414661     -12.4046 
         700      2.25333 -0.000358572  0.000456175     -12.4046 
         700      2.61333 -0.000248926  0.000487376     -12.4046 
         700            3 -0.000143251  0.000505666     -12.4046 
         750            0           -0           -0     -10.3383 
         750     0.013333 -0.000172546 -3.96022e-08     -10.3383 
         750     0.053333 -0.000443811 -7.01984e-07     -10.3383 
         750         0.12 -0.000734524 -3.90481e-06     -10.3383 
         750     0.213332 -0.000910092 -1.28585e-05     -10.3383 
         750     0.333332 -0.000917626 -3.05621e-05     -10.3383 
         750         0.48 -0.000814033 -5.79992e-05     -10.3383 
         750     0.653331 -0.000695012  -9.3976e-05     -10.3383 
         750     0.853332 -0.000621347 -0.000136403     -10.3383 
         750         1.08 -0.000598271  -0.00018308     -10.3383 
         750      1.33333 -0.000586352 -0.000231306     -10.3383 
         750      1.61333 -0.000542772 -0.000277785     -10.3383 
         750         1.92 -0.000462511 -0.000319905     -10.3383 
         750      2.25333 -0.000367229 -0.000356202     -10.3383 
         750      2.61333 -0.000269395 -0.000384802     -10.3383 
         750            3 -0.000167252 -0.000403413     -10.3382 
         800            0            0            0       -8.271 
         800     0.013333 -9.57384e-06  -1.2904e-07       -8.271 
         800     0.053333  0.000172721 -1.87901e-06       -8.271 
         800         0.12  0.000500403 -8.09523e-06       -8.271 
         800     0.213332  0.000901178 -2.03439e-05       -8.271 
         800     0.333332   0.00124759 -3.71551e-05       -8.271 
         800         0.48   0.00144628 -5.51661e-05       -8.271 
         800     0.653331   0.00149785 -7.19124e-05       -8.271 
         800     0.853332   0.00145335 -8.73266e-05       -8.271 
         800         1.08   0.00134691 -0.000102903       -8.271 
         800      1.33333   0.00119136 -0.000119686       -8.271 
         800      1.61333   0.00100665 -0.000136997       -8.271 
         800         1.92  0.000817987 -0.000153253       -8.271 
         800      2.25333  0.000625517 -0.000167115     -8.27101 
         800      2.61333  0.000414857 -0.000177742     -8.27102 
         800            3  0.000199159 -0.000184376     -8.27103 
         850            0            0            0     -6.20431 
         850     0.013333  4.81024e-05  1.01655e-07     -6.20431 
         850     0.053333  0.000306206  1.63671e-06     -6.20431 
         850         0.12    0.0005353   8.1553e-06     -6.20431 
         850     0.213332  0.000579642  2.43156e-05     -6.20431 
         850     0.333332  0.000432677  5.32615e-05     -6.20431 
         850         0.48  0.000209544  9.47623e-05     -6.20431 
         850     0.653331   3.4513e-05  0.000146144     -6.20431 
         850     0.853332 -3.62049e-05  0.000204595     -6.20431 
         850         1.08 -1.37165e-05  0.000267866     -6.20431 
         850      1.33333  4.29745e-05  0.000333051     -6.20431 
         850      1.61333  7.00025e-05  0.000396149     -6.20431 
         850         1.92  5.34824e-05  0.000453908     -6.20431 
         850      2.25333  2.17933e-05  0.000504397     -6.20431 
         850      2.61333 -5.20987e-06  0.000545281     -6.20431 
         850            3 -3.48235e-05  0.000573526     -6.20431 
         900            0            0            0     -4.13728 
         900     0.013333 -0.000151388  9.49706e-08     -4.13728 
         900     0.053333 -0.000411205  1.33165e-06     -4.13728 
         900         0.12 -0.000799953   5.3877e-06     -4.13728 
         900     0.213332  -0.00121562  1.23743e-05     -4.13728 
         900     0.333332  -0.00152644  1.99958e-05     -4.13728 
         900         0.48  -0.00167276  2.52022e-05     -4.13728 
         900     0.653331  -0.00169026  2.64813e-05     -4.13728 
         900     0.853332   -0.0016453  2.45942e-05     -4.13728 
         900         1.08  -0.00156607  2.17984e-05     -4.13728 
         900      1.33333  -0.00143788  2.04918e-05     -4.13728 
         900      1.61333  -0.00125502  2.16596e-05     -4.13728 
         900         1.92  -0.00105098  2.43116e-05     -4.13728 
         900      2.25333 -0.000846033  2.69922e-05     -4.13727 
         900      2.61333 -0.000629008  2.92913e-05     -4.13727 
         900            3 -0.000402689  3.12267e-05     -4.13725 
         950            0            0            0     -2.06878 
         950     0.013333 -0.000149382 -6.73652e-08     -2.06878 
         950     0.053333 -0.000351815 -1.09284e-06     -2.06878 
         950         0.12 -0.000539189 -5.50361e-06     -2.06878 
         950     0.213332 -0.000603776 -1.66161e-05     -2.06878 
         950     0.333332 -0.000524069 -3.68734e-05     -2.06878 
         950         0.48 -0.000373427 -6.64025e-05     -2.06878 
         950     0.653331 -0.000243659 -0.000103426     -2.06878 
         950     0.853332 -0.000182875 -0.000145836     -2.06878 
         950         1.08 -0.000188703 -0.000191911     -2.06878 
         950      1.33333 -0.000222716  -0.00023967     -2.06878 
         950      1.61333 -0.000239072 -0.000286411     -2.06878 
         950         1.92  -0.00022003 -0.000329888     -2.06878 
         950      2.25333 -0.000184436 -0.000368603     -2.06878 
         950      2.61333 -0.000149623  -0.00040073     -2.06878 
         950            3 -0.000113675 -0.000424601     -2.06877 
        1000            0            0            0            0 
        1000     0.013333 -0.000126393  5.81475e-06           -0 
        1000     0.053333 -0.000273594  2.53916e-05           -0 
        1000         0.12 -0.000343735  7.10393e-05 -1.72397e-16 
        1000     0.213332 -0.000247637  0.000185751 -2.04748e-15 
        1000     0.333332 -0.000347023    0.0005396 -1.13055e-15 
        1000         0.48  0.000912894  0.000759125           -0 
        1000     0.653331  0.000803931  0.000681767            0 
        1000     0.853332  0.000788606   0.00111666            0 
        1000         1.08   0.00177047   0.00142578            0 
        1000      1.33333   0.00546865   0.00111149 -1.19201e-15 
        1000      1.61333   0.00211501 -0.000399685           -0 
        1000         1.92   0.00143956 -0.000127112 -2.32979e-15 
        1000      2.25333   0.00174779  5.98462e-06 -2.51399e-15 
        1000      2.61333   0.00256185 -0.000685408           -0 
        1000            3  0.000675216  -0.00077222 -2.39303e-15 
