Variables = x, y, u, v, p

Zone, I=416, F=POINT
         -50            0            0            0     -25.9317 
         -50     0.013333  2.23663e-05 -1.22769e-08     -25.9317 
         -50     0.053333  3.67915e-05  1.27302e-07     -25.9317 
         -50         0.12   3.9883e-05  6.54156e-07     -25.9317 
         -50     0.213332  3.48575e-05  1.81062e-06     -25.9317 
         -50     0.333332  2.77758e-05  3.57856e-06     -25.9316 
         -50         0.48  2.36151e-05  5.71443e-06     -25.9316 
         -50     0.653331  2.24988e-05   7.9356e-06     -25.9315 
         -50     0.853332  2.18061e-05  9.92059e-06     -25.9314 
         -50         1.08   2.0739e-05  1.14602e-05     -25.9312 
         -50      1.33333  1.82942e-05  1.23788e-05     -25.9309 
         -50      1.61333   1.2227e-05  1.25408e-05     -25.9306 
         -50         1.92  1.00724e-05  1.31554e-05     -25.9301 
         -50      2.25333  1.76777e-05  1.49673e-05     -25.9295 
         -50      2.61333  3.70703e-05  2.03654e-05     -25.9287 
         -50            3  4.40304e-05  2.12048e-05     -25.9278 
         -25            0  1.24544e-21 -8.63421e-24     -24.8772 
         -25     0.013333  1.48028e-05  7.84407e-09     -24.8772 
         -25     0.053333  1.90304e-05  2.33698e-07     -24.8772 
         -25         0.12  8.83146e-06  1.05061e-06     -24.8772 
         -25     0.213332 -1.12763e-05  2.73315e-06     -24.8771 
         -25     0.333332 -3.22544e-05  5.24942e-06     -24.8771 
         -25         0.48 -4.57967e-05  8.43281e-06     -24.8771 
         -25     0.653331 -4.70083e-05  1.22045e-05     -24.8771 
         -25     0.853332 -3.58792e-05  1.64113e-05      -24.877 
         -25         1.08 -1.93662e-05  2.06302e-05      -24.877 
         -25      1.33333   -4.222e-06  2.43213e-05     -24.8769 
         -25      1.61333  1.27001e-05  2.68881e-05     -24.8767 
         -25         1.92   2.6349e-05  2.81156e-05     -24.8765 
         -25      2.25333  3.29133e-05  2.75679e-05     -24.8763 
         -25      2.61333   3.5296e-05  2.62472e-05      -24.876 
         -25            3   3.2228e-05  2.30112e-05     -24.8756 
           0            0 -2.23436e-22   -4.148e-24     -24.0495 
           0     0.013333  9.29063e-06  2.01018e-10     -24.0495 
           0     0.053333  7.95892e-06  4.94942e-08     -24.0495 
           0         0.12  2.23769e-06  1.68084e-07     -24.0495 
           0     0.213332  4.54184e-07  2.66135e-07     -24.0495 
           0     0.333332    5.296e-06  1.82266e-07     -24.0495 
           0         0.48  1.38213e-05 -1.69478e-07     -24.0495 
           0     0.653331  2.14284e-05 -7.50364e-07     -24.0495 
           0     0.853332  2.59369e-05 -1.45196e-06     -24.0495 
           0         1.08  2.82741e-05 -2.13903e-06     -24.0494 
           0      1.33333  3.03716e-05 -2.73161e-06     -24.0494 
           0      1.61333  3.22029e-05 -3.24484e-06     -24.0493 
           0         1.92  3.00355e-05 -3.73874e-06     -24.0492 
           0      2.25333  2.93341e-05 -3.91841e-06     -24.0491 
           0      2.61333  2.55894e-05 -5.91284e-06      -24.049 
           0            3  1.20083e-05 -8.92389e-06     -24.0488 
          20            0 -9.68726e-22 -2.47965e-24     -23.4667 
          20     0.013333  6.11655e-06   1.2577e-08     -23.4667 
          20     0.053333 -4.82432e-06  2.08469e-07     -23.4667 
          20         0.12 -2.95003e-05   8.4947e-07     -23.4667 
          20     0.213332 -5.65891e-05  1.96717e-06     -23.4667 
          20     0.333332 -7.59295e-05  3.27874e-06     -23.4667 
          20         0.48 -8.46932e-05   4.4894e-06     -23.4667 
          20     0.653331 -8.43493e-05    5.573e-06     -23.4667 
          20     0.853332  -7.5181e-05  6.68938e-06     -23.4667 
          20         1.08 -5.92919e-05  7.88027e-06     -23.4667 
          20      1.33333 -4.15027e-05  8.94439e-06     -23.4666 
          20      1.61333 -1.84948e-05  9.66208e-06     -23.4666 
          20         1.92  7.73109e-06  1.02677e-05     -23.4665 
          20      2.25333  3.00095e-05  1.01099e-05     -23.4665 
          20      2.61333  4.13637e-05  9.89933e-06     -23.4664 
          20            3  4.72923e-05  1.12806e-05     -23.4663 
          40            0  1.72353e-21 -1.53549e-24     -22.9235 
          40     0.013333  1.24927e-05  1.61931e-08     -22.9235 
          40     0.053333  1.80001e-05  2.62937e-07     -22.9235 
          40         0.12  9.64907e-06  1.17475e-06     -22.9235 
          40     0.213332 -1.01487e-05  3.07115e-06     -22.9235 
          40     0.333332 -3.18709e-05  5.89935e-06     -22.9235 
          40         0.48 -4.70227e-05  9.38973e-06     -22.9235 
          40     0.653331 -5.20098e-05  1.33646e-05     -22.9235 
          40     0.853332  -4.6609e-05  1.77054e-05     -22.9235 
          40         1.08 -3.57637e-05  2.20612e-05     -22.9235 
          40      1.33333 -2.68236e-05  2.58698e-05     -22.9235 
          40      1.61333 -1.59037e-05  2.87886e-05     -22.9235 
          40         1.92 -3.17822e-06  3.02262e-05     -22.9234 
          40      2.25333  1.03218e-05  3.05861e-05     -22.9234 
          40      2.61333  2.35203e-05  2.93535e-05     -22.9233 
          40            3  2.97602e-05  2.74058e-05     -22.9233 
          60            0            0            0     -22.4048 
          60     0.013333  1.73756e-05  5.45862e-09     -22.4048 
          60     0.053333  3.85611e-05  1.09297e-07     -22.4048 
          60         0.12  5.40204e-05  5.79973e-07     -22.4048 
          60     0.213332  5.83655e-05  1.78159e-06     -22.4048 
          60     0.333332  5.42804e-05  3.91258e-06     -22.4048 
          60         0.48  4.92841e-05  6.88219e-06     -22.4048 
          60     0.653331  4.75399e-05  1.04349e-05     -22.4048 
          60     0.853332  4.72858e-05  1.42296e-05     -22.4048 
          60         1.08  4.39464e-05  1.78225e-05     -22.4048 
          60      1.33333  3.57969e-05  2.08553e-05     -22.4048 
          60      1.61333   2.5462e-05  2.30388e-05     -22.4047 
          60         1.92  1.19924e-05  2.40825e-05     -22.4047 
          60      2.25333 -2.84664e-06  2.38568e-05     -22.4047 
          60      2.61333 -1.58158e-05  2.28858e-05     -22.4047 
          60            3 -1.79652e-05  2.23198e-05     -22.4046 
          80            0            0            0     -21.9015 
          80     0.013333  2.04557e-05   -9.274e-09     -21.9015 
          80     0.053333  5.30797e-05 -1.02771e-07     -21.9015 
          80         0.12  8.77681e-05 -2.81896e-07     -21.9015 
          80     0.213332  0.000110537  -2.0548e-07     -21.9015 
          80     0.333332  0.000114292  6.53282e-07     -21.9015 
          80         0.48  0.000105658  2.57263e-06     -21.9015 
          80     0.653331  9.48158e-05  5.40852e-06     -21.9015 
          80     0.853332  8.45993e-05  8.72974e-06     -21.9015 
          80         1.08   7.1888e-05  1.20468e-05     -21.9015 
          80      1.33333  5.57076e-05  1.50797e-05     -21.9015 
          80      1.61333  3.69426e-05  1.76489e-05     -21.9015 
          80         1.92   1.7329e-05  1.93293e-05     -21.9015 
          80      2.25333 -4.54646e-07  2.01149e-05     -21.9015 
          80      2.61333 -1.47934e-05  1.99106e-05     -21.9014 
          80            3  -2.4601e-05   1.8192e-05     -21.9014 
         100            0   1.1636e-21 -4.03076e-25     -21.4081 
         100     0.013333  1.14527e-05 -2.75788e-08     -21.4081 
         100     0.053333  2.67384e-05 -3.92398e-07     -21.4081 
         100         0.12  5.45929e-05 -1.66049e-06     -21.4081 
         100     0.213332  9.08553e-05 -4.08852e-06     -21.4081 
         100     0.333332  0.000120976 -7.38622e-06     -21.4081 
         100         0.48  0.000136497 -1.11183e-05     -21.4081 
         100     0.653331   0.00013671 -1.51707e-05     -21.4081 
         100     0.853332  0.000122337 -1.96666e-05     -21.4081 
         100         1.08   9.8623e-05 -2.44571e-05     -21.4081 
         100      1.33333   7.6427e-05 -2.89341e-05     -21.4081 
         100      1.61333  5.17582e-05 -3.24924e-05     -21.4081 
         100         1.92   2.8745e-05 -3.47174e-05     -21.4081 
         100      2.25333  1.07278e-05 -3.54934e-05     -21.4081 
         100      2.61333 -7.03976e-06 -3.47786e-05     -21.4081 
         100            3 -1.56446e-05 -3.28719e-05     -21.4081 
         150            0           -0           -0     -20.1981 
         150     0.013333  3.15482e-06  -2.4198e-08     -20.1981 
         150     0.053333 -1.02846e-06 -3.74958e-07     -20.1981 
         150         0.12   9.8758e-06 -1.77208e-06     -20.1981 
         150     0.213332  4.55894e-05 -4.93495e-06     -20.1981 
         150     0.333332  9.19781e-05 -1.00065e-05     -20.1981 
         150         0.48  0.000128719  -1.6483e-05     -20.1981 
         150     0.653331  0.000146399 -2.37324e-05     -20.1981 
         150     0.853332  0.000145669  -3.1365e-05     -20.1981 
         150         1.08  0.000131265 -3.90712e-05     -20.1981 
         150      1.33333  0.000111356 -4.63615e-05     -20.1981 
         150      1.61333  8.36514e-05 -5.24946e-05     -20.1981 
         150         1.92  5.48009e-05 -5.67182e-05     -20.1981 
         150      2.25333  3.08683e-05 -5.86575e-05     -20.1981 
         150      2.61333  8.94878e-06 -5.82182e-05     -20.1981 
         150            3 -2.04054e-06 -5.59254e-05     -20.1981 
         200            0           -0           -0     -19.0029 
         200     0.013333 -1.07024e-05 -2.79936e-08     -19.0029 
         200     0.053333 -5.04689e-05 -4.42478e-07     -19.0029 
         200         0.12 -8.32473e-05 -2.12867e-06     -19.0029 
         200     0.213332 -8.64718e-05 -6.02874e-06     -19.0029 
         200     0.333332 -6.86304e-05 -1.24698e-05     -19.0029 
         200         0.48 -5.12691e-05 -2.11118e-05     -19.0029 
         200     0.653331 -4.79877e-05 -3.14664e-05     -19.0029 
         200     0.853332 -5.82662e-05 -4.30136e-05     -19.0029 
         200         1.08 -6.75408e-05  -5.4752e-05     -19.0029 
         200      1.33333 -5.98198e-05 -6.54133e-05     -19.0029 
         200      1.61333 -4.52178e-05 -7.41028e-05     -19.0029 
         200         1.92 -2.96894e-05 -8.00316e-05     -19.0029 
         200      2.25333 -1.39931e-05 -8.28598e-05     -19.0029 
         200      2.61333 -7.07708e-07 -8.23051e-05     -19.0029 
         200            3  1.32293e-05 -7.81869e-05     -19.0029 
         250            0            0            0     -17.8128 
         250     0.013333  3.16118e-06 -8.53241e-09     -17.8128 
         250     0.053333 -5.90749e-06 -1.35234e-07     -17.8128 
         250         0.12  -1.4108e-05  -6.5672e-07     -17.8128 
         250     0.213332 -1.19301e-05 -1.89015e-06     -17.8128 
         250     0.333332 -1.56541e-06  -3.9792e-06     -17.8128 
         250         0.48   9.2089e-06 -6.82106e-06     -17.8128 
         250     0.653331  1.50143e-05 -1.02084e-05     -17.8128 
         250     0.853332  1.51771e-05  -1.3965e-05     -17.8128 
         250         1.08  1.23458e-05 -1.78981e-05     -17.8128 
         250      1.33333  1.13226e-05 -2.17051e-05     -17.8128 
         250      1.61333  1.19303e-05 -2.50092e-05     -17.8128 
         250         1.92  1.29722e-05 -2.75098e-05     -17.8128 
         250      2.25333  1.31291e-05 -2.90689e-05     -17.8128 
         250      2.61333  1.02565e-05 -2.95265e-05     -17.8128 
         250            3  6.74241e-06 -2.88262e-05     -17.8128 
         300            0           -0           -0     -16.6245 
         300     0.013333 -3.57205e-06 -2.49354e-09     -16.6245 
         300     0.053333 -3.08192e-05  -6.1223e-08     -16.6245 
         300         0.12 -6.17477e-05 -4.26994e-07     -16.6245 
         300     0.213332 -7.66672e-05 -1.58093e-06     -16.6245 
         300     0.333332 -7.22464e-05  -3.9326e-06     -16.6245 
         300         0.48 -5.93985e-05 -7.50695e-06     -16.6245 
         300     0.653331 -4.96679e-05 -1.19977e-05     -16.6245 
         300     0.853332 -4.54668e-05 -1.69544e-05     -16.6245 
         300         1.08 -4.08805e-05 -2.18463e-05     -16.6245 
         300      1.33333 -3.06169e-05 -2.62646e-05     -16.6245 
         300      1.61333 -1.79697e-05 -3.00547e-05     -16.6245 
         300         1.92 -4.59049e-06 -3.29454e-05     -16.6245 
         300      2.25333  9.55468e-06 -3.47712e-05     -16.6245 
         300      2.61333  2.29248e-05 -3.53621e-05     -16.6245 
         300            3   3.1132e-05 -3.47284e-05     -16.6245 
         350            0  3.81961e-21 -3.13111e-27     -15.4368 
         350     0.013333  1.75219e-05  5.19929e-09     -15.4368 
         350     0.053333  4.09387e-05   9.1027e-08     -15.4368 
         350         0.12   5.8662e-05  5.01759e-07     -15.4368 
         350     0.213332  6.08441e-05  1.64249e-06     -15.4368 
         350     0.333332  4.66036e-05  3.87011e-06     -15.4368 
         350         0.48   2.5466e-05  7.23164e-06     -15.4368 
         350     0.653331   7.6861e-06  1.14604e-05     -15.4368 
         350     0.853332 -2.65133e-06  1.62237e-05     -15.4368 
         350         1.08  -5.8882e-06  2.13132e-05     -15.4368 
         350      1.33333 -4.77129e-06   2.6561e-05     -15.4368 
         350      1.61333 -1.93655e-06  3.16124e-05     -15.4368 
         350         1.92 -2.66291e-07  3.59432e-05     -15.4368 
         350      2.25333  4.71092e-07  3.92973e-05     -15.4368 
         350      2.61333  3.68751e-06  4.13396e-05     -15.4368 
         350            3  9.46012e-06   4.2033e-05     -15.4368 
         400            0           -0           -0     -14.2494 
         400     0.013333 -2.57139e-06 -4.60366e-08     -14.2494 
         400     0.053333 -1.50801e-05 -6.99672e-07     -14.2494 
         400         0.12  1.98518e-07 -3.21139e-06     -14.2494 
         400     0.213332   5.8811e-05  -8.7251e-06     -14.2494 
         400     0.333332  0.000137709 -1.74376e-05     -14.2494 
         400         0.48  0.000202848 -2.86288e-05     -14.2494 
         400     0.653331  0.000236708 -4.14847e-05     -14.2494 
         400     0.853332  0.000237856 -5.56463e-05     -14.2494 
         400         1.08  0.000213319 -7.08221e-05     -14.2494 
         400      1.33333  0.000180852 -8.60797e-05     -14.2494 
         400      1.61333  0.000147756 -0.000100064     -14.2494 
         400         1.92  0.000115154 -0.000111747     -14.2494 
         400      2.25333  8.23798e-05 -0.000120386     -14.2494 
         400      2.61333  4.36375e-05 -0.000125194     -14.2494 
         400            3  1.09156e-05  -0.00012569     -14.2494 
         450            0           -0           -0     -13.0622 
         450     0.013333  4.20814e-05  4.07979e-08     -13.0622 
         450     0.053333    0.0001174  6.61871e-07     -13.0622 
         450         0.12  0.000166243  3.31626e-06     -13.0622 
         450     0.213332  0.000146471  9.87607e-06     -13.0622 
         450     0.333332  6.93417e-05  2.14369e-05     -13.0622 
         450         0.48 -1.56762e-05  3.75654e-05     -13.0622 
         450     0.653331 -6.89703e-05  5.68634e-05     -13.0622 
         450     0.853332 -8.38446e-05  7.79422e-05     -13.0622 
         450         1.08 -7.59702e-05  9.96699e-05     -13.0622 
         450      1.33333 -6.47022e-05  0.000121027     -13.0622 
         450      1.61333 -5.18199e-05   0.00014094     -13.0622 
         450         1.92 -3.96039e-05  0.000158115     -13.0622 
         450      2.25333 -2.84554e-05  0.000171415     -13.0622 
         450      2.61333 -1.23758e-05  0.000179655     -13.0622 
         450            3 -1.03463e-07   0.00018197     -13.0622 
         500            0           -0           -0     -11.8748 
         500     0.013333 -3.05501e-06 -1.00269e-07     -11.8748 
         500     0.053333 -1.68261e-06 -1.49712e-06     -11.8748 
         500         0.12  6.52638e-05 -6.69773e-06     -11.8748 
         500     0.213332  0.000208566 -1.76672e-05     -11.8748 
         500     0.333332  0.000370895 -3.42724e-05     -11.8748 
         500         0.48  0.000488715 -5.47952e-05     -11.8748 
         500     0.653331  0.000539515 -7.78211e-05     -11.8748 
         500     0.853332  0.000527163 -0.000103203     -11.8748 
         500         1.08  0.000461924 -0.000131043     -11.8748 
         500      1.33333   0.00037575  -0.00015988     -11.8748 
         500      1.61333  0.000296259 -0.000186874     -11.8748 
         500         1.92  0.000226945 -0.000209995     -11.8748 
         500      2.25333   0.00015949 -0.000228019     -11.8748 
         500      2.61333  8.30324e-05 -0.000239525     -11.8748 
         500            3  1.68931e-05 -0.000243421     -11.8748 
         550            0           -0           -0     -10.6876 
         550     0.013333  6.30294e-06 -1.78725e-08     -10.6876 
         550     0.053333  1.15478e-05 -2.94706e-07     -10.6876 
         550         0.12  3.73897e-05 -1.48824e-06     -10.6876 
         550     0.213332  9.39296e-05 -4.37968e-06     -10.6876 
         550     0.333332  0.000162242  -9.1758e-06     -10.6876 
         550         0.48  0.000211398 -1.51936e-05     -10.6876 
         550     0.653331  0.000226614  -2.1407e-05     -10.6876 
         550     0.853332  0.000215919 -2.70417e-05     -10.6876 
         550         1.08  0.000198691 -3.14861e-05     -10.6876 
         550      1.33333  0.000189862 -3.42248e-05     -10.6876 
         550      1.61333  0.000181633 -3.54203e-05     -10.6876 
         550         1.92  0.000161554 -3.56759e-05     -10.6876 
         550      2.25333  0.000132705 -3.51512e-05     -10.6876 
         550      2.61333   9.9866e-05  -3.3737e-05     -10.6876 
         550            3  6.72448e-05 -3.13709e-05     -10.6876 
         600            0           -0           -0     -9.50042 
         600     0.013333  3.86882e-05   6.2291e-08     -9.50042 
         600     0.053333  0.000100949  9.57512e-07     -9.50042 
         600         0.12  0.000124937  4.47918e-06     -9.50042 
         600     0.213332   7.6026e-05  1.24861e-05     -9.50042 
         600     0.333332 -2.48639e-05  2.57107e-05     -9.50042 
         600         0.48 -0.000127079  4.35111e-05     -9.50042 
         600     0.653331 -0.000193867  6.47786e-05     -9.50042 
         600     0.853332 -0.000213415  8.88428e-05     -9.50042 
         600         1.08 -0.000189574  0.000115303     -9.50042 
         600      1.33333 -0.000144829  0.000143018     -9.50042 
         600      1.61333 -0.000104898  0.000169844     -9.50042 
         600         1.92 -7.78532e-05  0.000193879     -9.50042 
         600      2.25333 -5.48271e-05  0.000213903     -9.50041 
         600      2.61333 -2.60176e-05  0.000228577     -9.50041 
         600            3 -8.65308e-07  0.000236617     -9.50041 
         650            0            0            0     -8.31318 
         650     0.013333 -2.65157e-05  2.06587e-08     -8.31318 
         650     0.053333 -0.000121587  2.75553e-07     -8.31318 
         650         0.12 -0.000256573  1.00692e-06     -8.31318 
         650     0.213332  -0.00038404  1.89395e-06     -8.31318 
         650     0.333332 -0.000463588   1.9495e-06     -8.31318 
         650         0.48 -0.000486429  1.60771e-07     -8.31318 
         650     0.653331 -0.000472882 -3.81085e-06     -8.31318 
         650     0.853332 -0.000446482 -9.56044e-06     -8.31318 
         650         1.08 -0.000416047  -1.6355e-05     -8.31318 
         650      1.33333    -0.000378 -2.35117e-05     -8.31318 
         650      1.61333 -0.000327526 -3.04785e-05     -8.31318 
         650         1.92 -0.000266226 -3.68026e-05     -8.31317 
         650      2.25333 -0.000198158    -4.23e-05     -8.31317 
         650      2.61333 -0.000123767 -4.66711e-05     -8.31317 
         650            3 -4.85983e-05 -4.95639e-05     -8.31316 
         700            0           -0           -0     -7.12556 
         700     0.013333  1.44993e-05 -5.72031e-08     -7.12556 
         700     0.053333  5.06561e-05 -8.45065e-07     -7.12556 
         700         0.12  0.000134218 -3.72831e-06     -7.12556 
         700     0.213332   0.00026069  -9.6899e-06     -7.12556 
         700     0.333332  0.000388439 -1.85034e-05     -7.12556 
         700         0.48  0.000477151 -2.90384e-05     -7.12556 
         700     0.653331  0.000516601  -4.0318e-05     -7.12556 
         700     0.853332  0.000516054  -5.2201e-05     -7.12556 
         700         1.08  0.000481897 -6.51273e-05     -7.12556 
         700      1.33333  0.000421175 -7.91444e-05     -7.12556 
         700      1.61333  0.000350698 -9.32587e-05     -7.12556 
         700         1.92  0.000284433 -0.000106217     -7.12556 
         700      2.25333  0.000218761 -0.000117211     -7.12556 
         700      2.61333  0.000145651 -0.000125601     -7.12557 
         700            3  7.42371e-05 -0.000130749     -7.12557 
         750            0           -0           -0     -5.93816 
         750     0.013333  5.79619e-05 -1.52693e-08     -5.93816 
         750     0.053333  0.000194681 -1.84018e-07     -5.93816 
         750         0.12  0.000367427 -5.10394e-07     -5.93816 
         750     0.213332  0.000514319 -2.49592e-07     -5.93816 
         750     0.333332  0.000586168  2.07142e-06     -5.93816 
         750         0.48  0.000579821  7.74504e-06     -5.93816 
         750     0.653331  0.000530133   1.7004e-05     -5.93816 
         750     0.853332  0.000473113  2.90902e-05     -5.93816 
         750         1.08  0.000424121  4.30019e-05     -5.93816 
         750      1.33333  0.000381995  5.79823e-05     -5.93816 
         750      1.61333  0.000338011  7.32579e-05     -5.93816 
         750         1.92  0.000283285   8.7839e-05     -5.93817 
         750      2.25333   0.00021898  0.000100981     -5.93817 
         750      2.61333  0.000149344     0.000112     -5.93817 
         750            3  7.74751e-05  0.000120099     -5.93818 
         800            0            0            0     -4.75121 
         800     0.013333 -2.42675e-05  1.29219e-07     -4.75121 
         800     0.053333 -0.000146522  1.89428e-06     -4.75121 
         800         0.12 -0.000395938  8.23639e-06     -4.75121 
         800     0.213332 -0.000723925  2.09071e-05     -4.75121 
         800     0.333332  -0.00101318   3.8596e-05     -4.75121 
         800         0.48  -0.00117381  5.80778e-05     -4.75121 
         800     0.653331  -0.00120317  7.71741e-05     -4.75121 
         800     0.853332  -0.00114258  9.62206e-05     -4.75121 
         800         1.08  -0.00101937  0.000116737     -4.75121 
         800      1.33333 -0.000859108  0.000138832     -4.75121 
         800      1.61333 -0.000702094  0.000160417     -4.75121 
         800         1.92 -0.000565838  0.000179495     -4.75121 
         800      2.25333 -0.000432419  0.000195208      -4.7512 
         800      2.61333 -0.000285001  0.000206895     -4.75119 
         800            3 -0.000136497  0.000213637     -4.75118 
         850            0            0            0     -3.56308 
         850     0.013333  1.69486e-05 -1.89056e-07     -3.56308 
         850     0.053333   0.00010155 -2.81983e-06     -3.56308 
         850         0.12  0.000347147 -1.25902e-05     -3.56308 
         850     0.213332  0.000741403 -3.30465e-05     -3.56308 
         850     0.333332   0.00113677 -6.33777e-05     -3.56308 
         850         0.48   0.00138283 -9.92598e-05     -3.56308 
         850     0.653331    0.0014418 -0.000136987     -3.56308 
         850     0.853332    0.0013567 -0.000176163     -3.56308 
         850         1.08   0.00117173 -0.000218204     -3.56308 
         850      1.33333  0.000941012 -0.000262439     -3.56308 
         850      1.61333   0.00074178 -0.000304769     -3.56308 
         850         1.92   0.00059832 -0.000341608     -3.56308 
         850      2.25333  0.000466542 -0.000371807     -3.56309 
         850      2.61333  0.000314982 -0.000394464      -3.5631 
         850            3   0.00016012 -0.000407743     -3.56311 
         900            0            0            0     -2.37597 
         900     0.013333  0.000122371  2.07378e-07     -2.37597 
         900     0.053333  0.000353873  3.23204e-06     -2.37597 
         900         0.12  0.000453335  1.54016e-05     -2.37597 
         900     0.213332  0.000268355   4.3723e-05     -2.37597 
         900     0.333332 -0.000128374  9.12455e-05     -2.37597 
         900         0.48 -0.000523448  0.000155309     -2.37597 
         900     0.653331 -0.000754047  0.000230764     -2.37597 
         900     0.853332   -0.0007818  0.000314127     -2.37597 
         900         1.08 -0.000647544   0.00040366     -2.37597 
         900      1.33333 -0.000450994  0.000495843     -2.37597 
         900      1.61333 -0.000310693  0.000584136     -2.37597 
         900         1.92 -0.000252389  0.000663417     -2.37597 
         900      2.25333 -0.000212305  0.000731707     -2.37597 
         900      2.61333 -0.000151744  0.000786506     -2.37597 
         900            3 -8.89179e-05  0.000823787     -2.37596 
         950            0            0            0      -1.1886 
         950     0.013333 -0.000176618  1.67225e-09      -1.1886 
         950     0.053333 -0.000656144 -1.81709e-07      -1.1886 
         950         0.12   -0.0012353 -2.21717e-06      -1.1886 
         950     0.213332  -0.00166772  -1.0448e-05      -1.1886 
         950     0.333332  -0.00181989 -3.01295e-05      -1.1886 
         950         0.48  -0.00174703 -6.38349e-05      -1.1886 
         950     0.653331   -0.0016067 -0.000110107      -1.1886 
         950     0.853332  -0.00151689 -0.000165164      -1.1886 
         950         1.08  -0.00148658 -0.000224403      -1.1886 
         950      1.33333  -0.00143069 -0.000282392      -1.1886 
         950      1.61333  -0.00127296 -0.000334228      -1.1886 
         950         1.92  -0.00104457 -0.000378908      -1.1886 
         950      2.25333 -0.000811203 -0.000417398     -1.18859 
         950      2.61333 -0.000577957 -0.000448331     -1.18858 
         950            3 -0.000335179 -0.000469943     -1.18857 
        1000            0            0            0            0 
        1000     0.013333 -0.000103573  8.77116e-06           -0 
        1000     0.053333 -0.000370837  3.82394e-05           -0 
        1000         0.12 -0.000536824  0.000107313 -9.92024e-17 
        1000     0.213332 -0.000452442  0.000293767 -1.17695e-15 
        1000     0.333332 -0.000600291  0.000888207 -6.49442e-16 
        1000         0.48   0.00153572   0.00124576           -0 
        1000     0.653331   0.00139061   0.00110747            0 
        1000     0.853332   0.00137325   0.00178164            0 
        1000         1.08   0.00292144    0.0022593            0 
        1000      1.33333   0.00881567   0.00174496 -7.83226e-16 
        1000      1.61333   0.00344316 -0.000717278           -0 
        1000         1.92   0.00236028 -0.000304004 -1.41748e-15 
        1000      2.25333   0.00285364 -9.90996e-05 -1.57117e-15 
        1000      2.61333   0.00417452  -0.00120257           -0 
        1000            3   0.00119109  -0.00135488 -1.41463e-15 
