Variables = x, y, u, v, p

Zone, I=416, F=POINT
         -50            0            0            0     -66.6162 
         -50     0.013333 -0.000151838 -7.43381e-08     -66.6162 
         -50     0.053333 -0.000130961 -4.13026e-08     -66.6162 
         -50         0.12 -0.000116203  3.76613e-07     -66.6162 
         -50     0.213332 -0.000117418  1.59164e-06     -66.6161 
         -50     0.333332 -0.000126185  3.75303e-06      -66.616 
         -50         0.48  -0.00013302  6.71072e-06     -66.6159 
         -50     0.653331  -0.00013465    1.012e-05     -66.6157 
         -50     0.853332 -0.000134021  1.35635e-05     -66.6154 
         -50         1.08  -0.00013504  1.65554e-05     -66.6149 
         -50      1.33333 -0.000139351  1.86669e-05     -66.6142 
         -50      1.61333  -0.00014412  1.95244e-05     -66.6133 
         -50         1.92 -0.000141486  1.99444e-05     -66.6121 
         -50      2.25333 -0.000132158  1.91234e-05     -66.6105 
         -50      2.61333  -0.00012655  1.81317e-05     -66.6086 
         -50            3 -0.000128274  1.32596e-05     -66.6062 
         -25            0 -1.20973e-19 -2.01183e-23     -63.9226 
         -25     0.013333  -0.00011808 -3.38222e-08     -63.9226 
         -25     0.053333 -0.000118707 -1.05764e-07     -63.9226 
         -25         0.12 -0.000117016 -3.60829e-07     -63.9226 
         -25     0.213332 -0.000110926 -9.91652e-07     -63.9226 
         -25     0.333332 -9.93432e-05 -2.10773e-06     -63.9226 
         -25         0.48 -8.68327e-05 -3.64776e-06     -63.9225 
         -25     0.653331  -7.7993e-05 -5.47237e-06     -63.9225 
         -25     0.853332 -7.46959e-05   -7.415e-06     -63.9223 
         -25         1.08 -7.60373e-05  -9.2213e-06     -63.9221 
         -25      1.33333 -8.02683e-05 -1.07612e-05     -63.9219 
         -25      1.61333 -8.57511e-05  -1.1743e-05     -63.9215 
         -25         1.92 -9.12591e-05 -1.24301e-05      -63.921 
         -25      2.25333 -9.84489e-05 -1.25743e-05     -63.9204 
         -25      2.61333 -0.000103267 -1.11911e-05     -63.9197 
         -25            3  -9.7147e-05 -3.11199e-06     -63.9187 
           0            0 -1.00333e-19 -9.68303e-24     -61.8072 
           0     0.013333 -9.61933e-05 -2.55461e-08     -61.8072 
           0     0.053333 -8.93892e-05 -1.73256e-07     -61.8072 
           0         0.12 -8.11641e-05 -6.20146e-07     -61.8072 
           0     0.213332 -7.76213e-05 -1.37209e-06     -61.8072 
           0     0.333332 -8.03886e-05 -2.26768e-06     -61.8072 
           0         0.48 -8.81276e-05 -3.17859e-06     -61.8072 
           0     0.653331 -9.75868e-05 -4.12678e-06     -61.8071 
           0     0.853332 -0.000105694 -5.16727e-06     -61.8071 
           0         1.08 -0.000109134 -6.17222e-06      -61.807 
           0      1.33333 -0.000107843 -6.96349e-06     -61.8068 
           0      1.61333 -0.000107862 -7.56373e-06     -61.8067 
           0         1.92 -0.000109218 -7.75414e-06     -61.8065 
           0      2.25333 -0.000108721 -7.61389e-06     -61.8062 
           0      2.61333 -0.000102251 -5.07478e-06     -61.8058 
           0            3 -8.78537e-05  5.61346e-07     -61.8053 
          20            0 -9.23986e-20 -5.79299e-24     -60.3173 
          20     0.013333 -8.90046e-05 -2.17057e-08     -60.3173 
          20     0.053333 -8.24684e-05 -2.07291e-07     -60.3173 
          20         0.12 -6.76226e-05  -8.8061e-07     -60.3173 
          20     0.213332 -4.68211e-05 -2.28395e-06     -60.3173 
          20     0.333332 -2.57806e-05 -4.37526e-06     -60.3173 
          20         0.48 -1.14497e-05 -6.91636e-06     -60.3173 
          20     0.653331 -7.25154e-06 -9.73424e-06     -60.3173 
          20     0.853332 -1.37357e-05 -1.27632e-05     -60.3172 
          20         1.08 -2.72854e-05 -1.58451e-05     -60.3172 
          20      1.33333 -4.08482e-05 -1.85979e-05     -60.3171 
          20      1.61333 -5.57135e-05  -2.0644e-05      -60.317 
          20         1.92 -6.78483e-05 -2.17385e-05     -60.3169 
          20      2.25333 -7.78099e-05 -2.19179e-05     -60.3167 
          20      2.61333 -9.07766e-05 -2.18204e-05     -60.3165 
          20            3 -0.000102412 -2.34651e-05     -60.3162 
          40            0 -9.00543e-20 -3.58748e-24     -58.9287 
          40     0.013333 -9.12958e-05   -1.571e-08     -58.9287 
          40     0.053333 -0.000104076 -1.74901e-07     -58.9287 
          40         0.12 -0.000113892 -8.26882e-07     -58.9287 
          40     0.213332  -0.00011524 -2.35415e-06     -58.9287 
          40     0.333332 -0.000110002 -4.89516e-06     -58.9287 
          40         0.48 -0.000105847 -8.32156e-06     -58.9287 
          40     0.653331 -0.000107083 -1.23986e-05     -58.9287 
          40     0.853332 -0.000111006 -1.67404e-05     -58.9287 
          40         1.08 -0.000111251 -2.07942e-05     -58.9287 
          40      1.33333 -0.000105536 -2.41828e-05     -58.9286 
          40      1.61333 -9.72405e-05 -2.66116e-05     -58.9285 
          40         1.92 -8.69488e-05 -2.77294e-05     -58.9285 
          40      2.25333 -7.80079e-05 -2.76082e-05     -58.9284 
          40      2.61333 -7.38361e-05 -2.68282e-05     -58.9282 
          40            3   -7.684e-05 -2.56815e-05      -58.928 
          60            0            0            0     -57.6027 
          60     0.013333 -7.97983e-05 -1.72042e-08     -57.6027 
          60     0.053333 -7.06487e-05 -2.06585e-07     -57.6027 
          60         0.12 -5.45754e-05 -8.63393e-07     -57.6027 
          60     0.213332 -3.79293e-05 -2.09135e-06     -57.6027 
          60     0.333332 -2.75185e-05 -3.64703e-06     -57.6027 
          60         0.48 -2.60115e-05 -5.20933e-06     -57.6027 
          60     0.653331 -3.09801e-05 -6.66235e-06     -57.6026 
          60     0.853332 -3.91908e-05 -7.97305e-06     -57.6026 
          60         1.08 -4.78467e-05 -8.97317e-06     -57.6026 
          60      1.33333 -5.64394e-05 -9.53158e-06     -57.6026 
          60      1.61333 -6.67235e-05 -9.61249e-06     -57.6025 
          60         1.92 -7.48482e-05 -9.17819e-06     -57.6025 
          60      2.25333 -7.88283e-05  -8.2727e-06     -57.6024 
          60      2.61333 -8.44922e-05 -7.33575e-06     -57.6023 
          60            3 -9.00813e-05 -5.06207e-06     -57.6022 
          80            0            0            0     -56.3161 
          80     0.013333 -8.11832e-05 -2.33005e-08     -56.3161 
          80     0.053333 -7.83594e-05 -3.17269e-07     -56.3161 
          80         0.12 -6.37527e-05 -1.39332e-06     -56.3161 
          80     0.213332  -3.8721e-05 -3.61073e-06     -56.3161 
          80     0.333332 -1.21378e-05 -6.88864e-06     -56.3161 
          80         0.48  6.57156e-06 -1.09034e-05     -56.3161 
          80     0.653331  1.31747e-05 -1.54663e-05      -56.316 
          80     0.853332  6.80519e-06 -2.05126e-05      -56.316 
          80         1.08 -7.80853e-06 -2.56929e-05      -56.316 
          80      1.33333 -2.28298e-05 -3.03772e-05      -56.316 
          80      1.61333 -4.32107e-05 -3.39828e-05      -56.316 
          80         1.92 -6.37415e-05 -3.60901e-05     -56.3159 
          80      2.25333 -7.67757e-05 -3.63991e-05     -56.3159 
          80      2.61333 -8.27922e-05 -3.50094e-05     -56.3158 
          80            3 -8.18619e-05 -3.26487e-05     -56.3158 
         100            0 -8.47274e-20 -9.31995e-25     -55.0547 
         100     0.013333 -8.83366e-05  2.80188e-10     -55.0547 
         100     0.053333 -0.000112533   3.7998e-09     -55.0547 
         100         0.12 -0.000141335 -1.01292e-07     -55.0547 
         100     0.213332 -0.000162187 -6.49806e-07     -55.0547 
         100     0.333332 -0.000168321  -2.0308e-06     -55.0547 
         100         0.48 -0.000165103 -4.39756e-06     -55.0547 
         100     0.653331  -0.00016007  -7.5993e-06     -55.0547 
         100     0.853332 -0.000154583 -1.12833e-05     -55.0547 
         100         1.08 -0.000144961 -1.49742e-05     -55.0547 
         100      1.33333 -0.000129702 -1.82825e-05     -55.0547 
         100      1.61333 -0.000112714 -2.09841e-05     -55.0547 
         100         1.92 -9.77177e-05 -2.26981e-05     -55.0546 
         100      2.25333 -8.62824e-05 -2.33779e-05     -55.0546 
         100      2.61333  -7.6068e-05 -2.29013e-05     -55.0546 
         100            3 -6.64485e-05 -2.07054e-05     -55.0545 
         150            0           -0           -0     -51.9601 
         150     0.013333 -0.000103487  4.08642e-09     -51.9601 
         150     0.053333 -0.000169502  7.86163e-09     -51.9601 
         150         0.12 -0.000243268 -3.37271e-07     -51.9601 
         150     0.213332 -0.000289599 -1.98793e-06     -51.9601 
         150     0.333332 -0.000297193  -5.9228e-06     -51.9601 
         150         0.48 -0.000284723 -1.23522e-05     -51.9601 
         150     0.653331 -0.000272596 -2.06663e-05     -51.9601 
         150     0.853332 -0.000261818 -2.97785e-05     -51.9601 
         150         1.08 -0.000240297 -3.84792e-05     -51.9601 
         150      1.33333 -0.000203752 -4.60947e-05     -51.9601 
         150      1.61333 -0.000159507 -5.23393e-05     -51.9601 
         150         1.92 -0.000114506   -5.643e-05     -51.9601 
         150      2.25333 -7.56857e-05 -5.82182e-05     -51.9601 
         150      2.61333 -4.56247e-05 -5.77637e-05     -51.9601 
         150            3 -3.60492e-05  -5.5364e-05     -51.9601 
         200            0           -0           -0     -48.9019 
         200     0.013333  -0.00010241 -2.62992e-08     -48.9019 
         200     0.053333 -0.000159012 -4.39697e-07     -48.9019 
         200         0.12 -0.000204054 -2.26637e-06     -48.9019 
         200     0.213332 -0.000207193  -6.8323e-06     -48.9019 
         200     0.333332 -0.000174629 -1.48319e-05     -48.9019 
         200         0.48 -0.000137491  -2.5926e-05     -48.9019 
         200     0.653331  -0.00011879 -3.92778e-05     -48.9019 
         200     0.853332 -0.000119621 -5.39261e-05     -48.9019 
         200         1.08 -0.000123106  -6.8562e-05     -48.9019 
         200      1.33333 -0.000112468 -8.18649e-05     -48.9019 
         200      1.61333 -9.75611e-05 -9.29325e-05     -48.9019 
         200         1.92 -8.15356e-05 -0.000100612     -48.9019 
         200      2.25333 -6.44103e-05 -0.000104491     -48.9019 
         200      2.61333 -4.96132e-05 -0.000104087     -48.9019 
         200            3 -3.63906e-05 -9.96986e-05     -48.9019 
         250            0            0            0     -45.8547 
         250     0.013333 -6.97423e-05 -1.29248e-08     -45.8547 
         250     0.053333 -4.89098e-05  -1.7594e-07     -45.8547 
         250         0.12 -2.17334e-05  -6.6562e-07     -45.8547 
         250     0.213332 -2.20139e-06  -1.3444e-06     -45.8547 
         250     0.333332  9.64652e-07 -1.74519e-06     -45.8547 
         250         0.48 -9.84419e-06 -1.52981e-06     -45.8547 
         250     0.653331 -2.60223e-05 -8.13397e-07     -45.8547 
         250     0.853332 -4.27079e-05  6.19494e-08     -45.8547 
         250         1.08  -5.6963e-05  1.01236e-06     -45.8547 
         250      1.33333 -6.49045e-05  2.29206e-06     -45.8547 
         250      1.61333 -6.91874e-05  3.94807e-06     -45.8547 
         250         1.92 -7.29198e-05  5.71571e-06     -45.8547 
         250      2.25333 -7.56609e-05   7.3958e-06     -45.8547 
         250      2.61333 -7.62127e-05  8.93326e-06     -45.8547 
         250            3 -7.40167e-05  1.01582e-05     -45.8547 
         300            0           -0           -0     -42.8096 
         300     0.013333  -4.5924e-05 -3.24603e-08     -42.8096 
         300     0.053333  4.05169e-05 -4.22387e-07     -42.8096 
         300         0.12   0.00015333 -1.48129e-06     -42.8096 
         300     0.213332  0.000245614 -2.65073e-06     -42.8096 
         300     0.333332  0.000287236 -2.65989e-06     -42.8096 
         300         0.48  0.000284962 -6.38568e-07     -42.8096 
         300     0.653331  0.000264613  3.20291e-06     -42.8096 
         300     0.853332  0.000238096  7.80453e-06     -42.8096 
         300         1.08  0.000198793  1.19716e-05     -42.8096 
         300      1.33333  0.000146211  1.53784e-05     -42.8096 
         300      1.61333  8.82139e-05  1.84372e-05     -42.8097 
         300         1.92  2.99239e-05   2.0958e-05     -42.8097 
         300      2.25333 -2.61379e-05  2.28964e-05     -42.8097 
         300      2.61333 -8.10118e-05  2.40052e-05     -42.8097 
         300            3 -0.000119424  2.42646e-05     -42.8097 
         350            0 -9.25992e-20   8.0152e-27     -39.7647 
         350     0.013333 -0.000111519  -1.3235e-08     -39.7647 
         350     0.053333 -0.000195398 -2.50013e-07     -39.7647 
         350         0.12 -0.000281095 -1.47041e-06     -39.7647 
         350     0.213332  -0.00032217 -5.00837e-06     -39.7647 
         350     0.333332 -0.000306495 -1.20625e-05     -39.7647 
         350         0.48   -0.0002618 -2.28665e-05     -39.7647 
         350     0.653331 -0.000221858  -3.6701e-05     -39.7647 
         350     0.853332  -0.00020003 -5.25094e-05     -39.7647 
         350         1.08  -0.00018973 -6.92476e-05     -39.7647 
         350      1.33333 -0.000176124 -8.58728e-05     -39.7647 
         350      1.61333 -0.000156211 -0.000101197     -39.7647 
         350         1.92 -0.000131235 -0.000113931     -39.7647 
         350      2.25333 -0.000102827 -0.000123301     -39.7647 
         350      2.61333 -7.46423e-05 -0.000128404     -39.7647 
         350            3 -4.94722e-05 -0.000128841     -39.7647 
         400            0           -0           -0     -36.7188 
         400     0.013333 -7.52444e-05   7.1698e-08     -36.7188 
         400     0.053333  -8.9473e-05    1.052e-06     -36.7188 
         400         0.12 -0.000151127  4.58143e-06     -36.7188 
         400     0.213332 -0.000253027  1.16817e-05     -36.7188 
         400     0.333332 -0.000349284  2.18471e-05     -36.7188 
         400         0.48  -0.00040541  3.37775e-05     -36.7188 
         400     0.653331 -0.000417916  4.67817e-05     -36.7188 
         400     0.853332 -0.000393275   6.1145e-05     -36.7188 
         400         1.08 -0.000338563  7.70875e-05     -36.7188 
         400      1.33333 -0.000277397  9.34736e-05     -36.7188 
         400      1.61333 -0.000223529  0.000108328     -36.7188 
         400         1.92 -0.000176364  0.000120492     -36.7188 
         400      2.25333 -0.000132649  0.000129237     -36.7188 
         400      2.61333 -8.42159e-05  0.000133823     -36.7188 
         400            3 -4.48889e-05  0.000133818     -36.7188 
         450            0           -0           -0     -33.6711 
         450     0.013333 -3.32927e-05  8.66794e-09     -33.6711 
         450     0.053333  7.53501e-05  1.93471e-07     -33.6711 
         450         0.12  0.000188244   1.2943e-06     -33.6711 
         450     0.213332  0.000245189  4.77056e-06     -33.6711 
         450     0.333332  0.000231203  1.20364e-05     -33.6711 
         450         0.48  0.000177638   2.3455e-05     -33.6711 
         450     0.653331  0.000126265   3.8281e-05     -33.6711 
         450     0.853332  9.68136e-05   5.5334e-05     -33.6711 
         450         1.08  8.22086e-05   7.3321e-05     -33.6711 
         450      1.33333  6.19241e-05  9.08585e-05     -33.6711 
         450      1.61333  3.15065e-05  0.000106791     -33.6711 
         450         1.92  -2.4909e-06  0.000120266     -33.6711 
         450      2.25333 -3.82629e-05  0.000130671     -33.6711 
         450      2.61333 -7.47782e-05  0.000137077     -33.6711 
         450            3 -0.000109433  0.000138828     -33.6711 
         500            0           -0           -0     -30.6214 
         500     0.013333 -0.000142294 -5.39865e-08     -30.6214 
         500     0.053333 -0.000292185 -9.03138e-07     -30.6214 
         500         0.12 -0.000423692 -4.67715e-06     -30.6214 
         500     0.213332 -0.000452566 -1.43178e-05     -30.6214 
         500     0.333332 -0.000379618 -3.17323e-05     -30.6214 
         500         0.48 -0.000276926 -5.65158e-05     -30.6214 
         500     0.653331 -0.000211256 -8.67401e-05     -30.6214 
         500     0.853332 -0.000199591  -0.00012032     -30.6214 
         500         1.08 -0.000214086 -0.000155092     -30.6214 
         500      1.33333  -0.00021133 -0.000188639     -30.6214 
         500      1.61333 -0.000186701 -0.000219011     -30.6214 
         500         1.92 -0.000154567 -0.000244795     -30.6214 
         500      2.25333 -0.000120787 -0.000264765     -30.6214 
         500      2.61333 -9.07924e-05 -0.000277192     -30.6214 
         500            3 -6.21919e-05 -0.000280751     -30.6214 
         550            0           -0           -0     -27.5692 
         550     0.013333 -6.24962e-05  1.02845e-07     -27.5692 
         550     0.053333 -5.36913e-05  1.53698e-06     -27.5692 
         550         0.12 -0.000116301  6.88856e-06     -27.5692 
         550     0.213332  -0.00026163  1.82077e-05     -27.5692 
         550     0.333332 -0.000427696  3.53797e-05     -27.5692 
         550         0.48 -0.000546703  5.66049e-05     -27.5692 
         550     0.653331 -0.000595349  8.03522e-05     -27.5692 
         550     0.853332 -0.000579357  0.000106445     -27.5692 
         550         1.08 -0.000509215  0.000135115     -27.5692 
         550      1.33333 -0.000416437  0.000165012     -27.5692 
         550      1.61333   -0.0003349  0.000193122     -27.5692 
         550         1.92 -0.000268927  0.000217244     -27.5692 
         550      2.25333 -0.000205578  0.000236232     -27.5692 
         550      2.61333 -0.000134023  0.000248753     -27.5692 
         550            3 -7.13853e-05  0.000253608     -27.5692 
         600            0           -0           -0     -24.5147 
         600     0.013333 -0.000103539 -5.80037e-09     -24.5147 
         600     0.053333 -0.000169959 -1.05451e-07     -24.5147 
         600         0.12 -0.000247958 -6.18088e-07     -24.5147 
         600     0.213332 -0.000302669 -2.20544e-06     -24.5147 
         600     0.333332 -0.000311445 -5.74406e-06     -24.5147 
         600         0.48 -0.000280026  -1.1868e-05     -24.5147 
         600     0.653331 -0.000231914 -2.05855e-05     -24.5147 
         600     0.853332 -0.000188231 -3.14602e-05     -24.5147 
         600         1.08 -0.000160815  -4.4148e-05     -24.5147 
         600      1.33333 -0.000151976 -5.84332e-05     -24.5147 
         600      1.61333 -0.000149931 -7.34852e-05     -24.5147 
         600         1.92 -0.000137925   -8.785e-05     -24.5147 
         600      2.25333 -0.000117364 -0.000100477     -24.5147 
         600      2.61333 -9.64175e-05 -0.000110632     -24.5147 
         600            3 -7.50562e-05 -0.000117501     -24.5147 
         650            0            0            0     -21.4578 
         650     0.013333 -6.32227e-06 -9.66036e-08     -21.4578 
         650     0.053333  0.000207368 -1.36011e-06     -21.4578 
         650         0.12   0.00052978 -5.52099e-06     -21.4578 
         650     0.213332  0.000862504 -1.26867e-05     -21.4578 
         650     0.333332   0.00109157  -2.0447e-05     -21.4578 
         650         0.48   0.00117243 -2.57123e-05     -21.4578 
         650     0.653331   0.00114614 -2.72114e-05     -21.4578 
         650     0.853332   0.00107033 -2.60614e-05     -21.4578 
         650         1.08  0.000964484 -2.44133e-05     -21.4578 
         650      1.33333  0.000828384 -2.35173e-05     -21.4578 
         650      1.61333  0.000675876 -2.29173e-05     -21.4578 
         650         1.92  0.000522967 -2.18583e-05     -21.4578 
         650      2.25333  0.000365822  -2.0093e-05     -21.4578 
         650      2.61333  0.000195292 -1.78116e-05     -21.4578 
         650            3  2.88011e-05 -1.51952e-05     -21.4578 
         700            0           -0           -0        -18.4 
         700     0.013333 -0.000105095  1.99134e-07        -18.4 
         700     0.053333 -0.000239332  2.95067e-06        -18.4 
         700         0.12 -0.000559649  1.30658e-05        -18.4 
         700     0.213332  -0.00103157   3.4029e-05        -18.4 
         700     0.333332  -0.00149161  6.48762e-05        -18.4 
         700         0.48  -0.00178833  0.000101154        -18.4 
         700     0.653331   -0.0018895  0.000138868        -18.4 
         700     0.853332  -0.00184443  0.000177043        -18.4 
         700         1.08  -0.00169924  0.000216714        -18.4 
         700      1.33333  -0.00148957   0.00025795        -18.4 
         700      1.61333  -0.00125629  0.000298285        -18.4 
         700         1.92  -0.00102973  0.000334611        -18.4 
         700      2.25333 -0.000799846   0.00036467     -18.3999 
         700      2.61333 -0.000543555  0.000386595     -18.3999 
         700            3 -0.000288838   0.00039857     -18.3999 
         750            0           -0           -0     -15.3389 
         750     0.013333 -0.000239423 -1.61444e-07     -15.3389 
         750     0.053333 -0.000607782 -2.59015e-06     -15.3389 
         750         0.12 -0.000917755 -1.28368e-05     -15.3389 
         750     0.213332 -0.000954031 -3.80436e-05     -15.3389 
         750     0.333332 -0.000712294 -8.28511e-05     -15.3389 
         750         0.48 -0.000368505 -0.000146703     -15.3389 
         750     0.653331 -0.000104609 -0.000225478     -15.3389 
         750     0.853332  1.67339e-06 -0.000314963     -15.3389 
         750         1.08 -2.88312e-05 -0.000411695     -15.3389 
         750      1.33333  -0.00010682 -0.000511089     -15.3389 
         750      1.61333 -0.000147666 -0.000607006     -15.3389 
         750         1.92 -0.000136132 -0.000694341     -15.3389 
         750      2.25333 -0.000106711 -0.000769654     -15.3389 
         750      2.61333 -8.66249e-05  -0.00082872     -15.3389 
         750            3 -6.19988e-05 -0.000866815     -15.3389 
         800            0            0            0     -12.2756 
         800     0.013333  6.10764e-05 -9.35836e-08     -12.2756 
         800     0.053333  0.000453762 -1.25566e-06     -12.2756 
         800         0.12   0.00100239  -4.6803e-06     -12.2756 
         800     0.213332    0.0015358 -9.35745e-06     -12.2756 
         800     0.333332   0.00189948 -1.17893e-05     -12.2756 
         800         0.48   0.00205338 -8.46023e-06     -12.2756 
         800     0.653331   0.00206825  1.78933e-06     -12.2755 
         800     0.853332   0.00203034  1.74714e-05     -12.2755 
         800         1.08   0.00196073  3.52762e-05     -12.2755 
         800      1.33333   0.00181771  5.12909e-05     -12.2755 
         800      1.61333   0.00157985  6.31868e-05     -12.2756 
         800         1.92   0.00129597  7.15436e-05     -12.2756 
         800      2.25333   0.00100151  7.78795e-05     -12.2756 
         800      2.61333  0.000686557  8.22168e-05     -12.2756 
         800            3  0.000361546  8.39209e-05     -12.2756 
         850            0            0            0     -9.21108 
         850     0.013333 -1.50618e-05  1.98953e-08     -9.21108 
         850     0.053333  0.000146613  3.28611e-07     -9.21108 
         850         0.12  0.000337022  1.71148e-06     -9.21108 
         850     0.213332  0.000482229  5.42453e-06     -9.21108 
         850     0.333332  0.000543797  1.28178e-05     -9.21108 
         850         0.48   0.00052843  2.48128e-05     -9.21108 
         850     0.653331  0.000472698  4.16315e-05     -9.21108 
         850     0.853332  0.000416126  6.29825e-05     -9.21108 
         850         1.08  0.000383732  8.83882e-05     -9.21108 
         850      1.33333  0.000375935   0.00011701     -9.21108 
         850      1.61333  0.000366483  0.000147019     -9.21108 
         850         1.92  0.000326815  0.000175981     -9.21108 
         850      2.25333  0.000261402  0.000202188     -9.21108 
         850      2.61333  0.000187251  0.000224477     -9.21109 
         850            3  0.000106713  0.000241445     -9.21109 
         900            0            0            0     -6.14347 
         900     0.013333  9.10279e-06  5.52677e-08     -6.14347 
         900     0.053333  0.000218122  9.19306e-07     -6.14347 
         900         0.12  0.000419068  4.78092e-06     -6.14347 
         900     0.213332  0.000491849  1.48849e-05     -6.14347 
         900     0.333332  0.000412543  3.38777e-05     -6.14347 
         900         0.48  0.000254958  6.21508e-05     -6.14347 
         900     0.653331  0.000116193  9.79766e-05     -6.14347 
         900     0.853332  4.73824e-05  0.000138992     -6.14347 
         900         1.08  4.12391e-05  0.000183002     -6.14347 
         900      1.33333  5.39503e-05  0.000227735     -6.14347 
         900      1.61333  4.96358e-05  0.000271006     -6.14347 
         900         1.92  2.73664e-05  0.000311363     -6.14347 
         900      2.25333 -1.79619e-08  0.000347602     -6.14347 
         900      2.61333 -2.53553e-05  0.000377898     -6.14348 
         900            3 -5.15017e-05  0.000400094     -6.14348 
         950            0            0            0     -3.07318 
         950     0.013333 -0.000139581  6.55485e-08     -3.07318 
         950     0.053333 -0.000319132  8.96934e-07     -3.07318 
         950         0.12 -0.000584355  3.47097e-06     -3.07318 
         950     0.213332  -0.00085232  7.41662e-06     -3.07318 
         950     0.333332  -0.00103229  1.07051e-05     -3.07318 
         950         0.48  -0.00109853  1.12868e-05     -3.07318 
         950     0.653331  -0.00109365  8.80255e-06     -3.07318 
         950     0.853332  -0.00106631  4.76077e-06     -3.07318 
         950         1.08  -0.00101945  1.67448e-06     -3.07318 
         950      1.33333 -0.000924115  1.76583e-06     -3.07318 
         950      1.61333  -0.00078305  5.27034e-06     -3.07318 
         950         1.92 -0.000641275  1.01714e-05     -3.07318 
         950      2.25333 -0.000514434  1.48761e-05     -3.07318 
         950      2.61333 -0.000383751   1.9359e-05     -3.07317 
         950            3 -0.000247586  2.33392e-05     -3.07316 
        1000            0            0            0            0 
        1000     0.013333 -0.000140666  7.38966e-06           -0 
        1000     0.053333 -0.000277561  3.21324e-05           -0 
        1000         0.12 -0.000310212  8.73188e-05 -2.55282e-16 
        1000     0.213332  -9.9934e-05  0.000203689  -3.0329e-15 
        1000     0.333332 -0.000174431  0.000527748 -1.67517e-15 
        1000         0.48   0.00100069  0.000730781           -0 
        1000     0.653331   0.00114157  0.000574635            0 
        1000     0.853332   0.00076565  0.000846158            0 
        1000         1.08   0.00152066   0.00110342            0 
        1000      1.33333   0.00451676  0.000834987 -1.70666e-15 
        1000      1.61333   0.00165378 -0.000426935           -0 
        1000         1.92   0.00107034 -0.000205861 -3.39998e-15 
        1000      2.25333   0.00128723 -9.30636e-05 -3.63876e-15 
        1000      2.61333   0.00187177 -0.000592545           -0 
        1000            3   0.00046306 -0.000651157 -3.51821e-15 
