Variables = x, y, u, v, p

Zone, I=416, F=POINT
         -50            0            0            0      23.8497 
         -50     0.013333  0.000122095  3.18368e-08      23.8497 
         -50     0.053333   8.9872e-05  4.35246e-08      23.8497 
         -50         0.12  6.62407e-05 -5.07954e-08      23.8497 
         -50     0.213332  5.15572e-05 -3.60273e-07      23.8496 
         -50     0.333332  4.21154e-05 -1.04458e-06      23.8496 
         -50         0.48  3.57587e-05 -2.27471e-06      23.8496 
         -50     0.653331  3.03413e-05 -4.13747e-06      23.8495 
         -50     0.853332  2.65039e-05 -6.50419e-06      23.8494 
         -50         1.08  3.01061e-05 -8.86278e-06      23.8492 
         -50      1.33333  4.39553e-05 -1.06002e-05       23.849 
         -50      1.61333  6.42693e-05 -1.19472e-05      23.8487 
         -50         1.92   8.0026e-05 -1.17242e-05      23.8482 
         -50      2.25333  8.39122e-05 -1.32091e-05      23.8477 
         -50      2.61333  8.54612e-05 -9.67842e-06       23.847 
         -50            3  9.89366e-05  2.90781e-06      23.8462 
         -25            0  1.21965e-19  9.83826e-24      22.8784 
         -25     0.013333  8.98792e-05  2.81774e-09      22.8784 
         -25     0.053333  7.17735e-05 -1.34343e-07      22.8784 
         -25         0.12  6.91619e-05  -7.2442e-07      22.8784 
         -25     0.213332   8.0729e-05 -2.02403e-06      22.8784 
         -25     0.333332  9.59752e-05 -4.01593e-06      22.8784 
         -25         0.48  0.000107258 -6.49645e-06      22.8784 
         -25     0.653331  0.000111492 -9.28984e-06      22.8784 
         -25     0.853332  0.000109188 -1.22063e-05      22.8783 
         -25         1.08  0.000103771 -1.48771e-05      22.8782 
         -25      1.33333  9.63073e-05 -1.70341e-05      22.8781 
         -25      1.61333    8.266e-05 -1.84599e-05       22.878 
         -25         1.92   6.4459e-05 -1.88965e-05      22.8779 
         -25      2.25333  4.71341e-05 -1.89522e-05      22.8776 
         -25      2.61333  3.05057e-05 -1.88651e-05      22.8774 
         -25            3  2.63483e-05  -1.6676e-05       22.877 
           0            0  1.03522e-19   4.7319e-24      22.1146 
           0     0.013333  7.83504e-05  5.68014e-09      22.1146 
           0     0.053333  6.78966e-05  1.07664e-08      22.1146 
           0         0.12  6.41668e-05  4.06331e-08      22.1146 
           0     0.213332  6.44506e-05  1.44973e-07      22.1146 
           0     0.333332  6.66734e-05   2.8938e-07      22.1146 
           0         0.48  7.04232e-05  3.26355e-07      22.1146 
           0     0.653331  7.30598e-05  8.11414e-08      22.1146 
           0     0.853332  7.20019e-05 -5.61829e-07      22.1146 
           0         1.08  6.92287e-05 -1.52149e-06      22.1145 
           0      1.33333  6.89327e-05   -2.554e-06      22.1145 
           0      1.61333  6.86824e-05 -3.42947e-06      22.1144 
           0         1.92  6.66208e-05 -4.36846e-06      22.1143 
           0      2.25333  6.47456e-05 -4.71053e-06      22.1142 
           0      2.61333  6.25592e-05 -5.49742e-06      22.1141 
           0            3  6.00841e-05 -5.77461e-06       22.114 
          20            0  9.60267e-20  2.82768e-24      21.5762 
          20     0.013333  7.39254e-05   2.7555e-08      21.5762 
          20     0.053333  6.29685e-05  3.70598e-07      21.5762 
          20         0.12  4.26237e-05  1.66263e-06      21.5762 
          20     0.213332  1.06773e-05  4.39444e-06      21.5762 
          20     0.333332 -2.13325e-05  8.45071e-06      21.5762 
          20         0.48 -4.09955e-05  1.33077e-05      21.5762 
          20     0.653331 -4.50525e-05  1.85443e-05      21.5762 
          20     0.853332 -3.60994e-05  2.38828e-05      21.5762 
          20         1.08 -1.99931e-05  2.88923e-05      21.5761 
          20      1.33333 -2.38845e-06  3.31092e-05      21.5761 
          20      1.61333  2.13339e-05  3.60157e-05      21.5761 
          20         1.92  4.61741e-05   3.7161e-05       21.576 
          20      2.25333  6.81352e-05  3.68024e-05       21.576 
          20      2.61333  8.71984e-05  3.49622e-05      21.5759 
          20            3  9.41833e-05  3.19276e-05      21.5758 
          40            0  9.45615e-20  1.75155e-24      21.0741 
          40     0.013333  7.95889e-05  3.11959e-08      21.0741 
          40     0.053333  9.24453e-05  4.54999e-07      21.0741 
          40         0.12   9.6515e-05  2.12413e-06      21.0741 
          40     0.213332  7.90128e-05  5.84982e-06      21.0741 
          40     0.333332  4.99913e-05  1.17829e-05      21.0741 
          40         0.48   2.7822e-05  1.95079e-05      21.0741 
          40     0.653331  2.20144e-05  2.85371e-05      21.0741 
          40     0.853332  2.95047e-05  3.82559e-05      21.0741 
          40         1.08  3.78099e-05  4.75848e-05      21.0741 
          40      1.33333  3.95347e-05  5.55365e-05      21.0741 
          40      1.61333  4.48255e-05  6.12873e-05       21.074 
          40         1.92  4.97962e-05  6.40181e-05       21.074 
          40      2.25333   5.0444e-05  6.36312e-05       21.074 
          40      2.61333  5.34001e-05  6.08198e-05      21.0739 
          40            3  5.82491e-05  5.59728e-05      21.0739 
          60            0            0            0      20.5945 
          60     0.013333  7.55525e-05  1.03156e-08      20.5945 
          60     0.053333  9.03678e-05  1.51296e-07      20.5945 
          60         0.12  0.000109864  7.60171e-07      20.5945 
          60     0.213332  0.000121299  2.25042e-06      20.5945 
          60     0.333332  0.000123134    4.833e-06      20.5945 
          60         0.48  0.000122545  8.45783e-06      20.5945 
          60     0.653331  0.000124624  1.29288e-05      20.5944 
          60     0.853332  0.000126583   1.7812e-05      20.5944 
          60         1.08  0.000120089  2.23601e-05      20.5944 
          60      1.33333  0.000103783  2.60478e-05      20.5944 
          60      1.61333  8.51395e-05  2.86875e-05      20.5944 
          60         1.92  6.77576e-05  2.98865e-05      20.5944 
          60      2.25333  5.51359e-05  2.97357e-05      20.5944 
          60      2.61333  4.77747e-05  2.84869e-05      20.5943 
          60            3  4.63531e-05  2.63715e-05      20.5943 
          80            0            0            0      20.1289 
          80     0.013333   6.3755e-05 -1.10913e-10      20.1289 
          80     0.053333  5.52462e-05 -1.41148e-08      20.1289 
          80         0.12  5.34267e-05 -7.22245e-08      20.1289 
          80     0.213332  5.57301e-05 -2.02852e-07      20.1289 
          80     0.333332  5.81372e-05 -4.03807e-07      20.1289 
          80         0.48   5.9164e-05 -6.30325e-07      20.1289 
          80     0.653331   5.9034e-05 -8.23796e-07      20.1289 
          80     0.853332  5.83239e-05 -9.71169e-07      20.1289 
          80         1.08  5.64621e-05 -1.14582e-06      20.1289 
          80      1.33333  5.33751e-05 -1.42468e-06      20.1289 
          80      1.61333  4.92972e-05 -1.68861e-06      20.1289 
          80         1.92  4.47296e-05 -1.99732e-06      20.1289 
          80      2.25333  4.31632e-05 -2.00659e-06      20.1289 
          80      2.61333  4.71623e-05 -1.82125e-06      20.1289 
          80            3  5.34835e-05 -1.28771e-06      20.1288 
         100            0  8.19624e-20  4.64315e-25      19.6725 
         100     0.013333  6.00929e-05 -6.42659e-09      19.6725 
         100     0.053333   4.6947e-05 -1.12101e-07      19.6725 
         100         0.12  4.45029e-05 -5.49826e-07      19.6725 
         100     0.213332  5.24074e-05 -1.55031e-06      19.6725 
         100     0.333332  6.23407e-05  -3.1206e-06      19.6725 
         100         0.48  6.75943e-05 -5.03829e-06      19.6725 
         100     0.653331  6.71717e-05 -7.04867e-06      19.6725 
         100     0.853332  6.40972e-05 -8.95177e-06      19.6725 
         100         1.08  6.11761e-05 -1.05997e-05      19.6725 
         100      1.33333  5.88241e-05 -1.19394e-05      19.6725 
         100      1.61333  5.51022e-05 -1.28906e-05      19.6725 
         100         1.92  5.06046e-05 -1.33068e-05      19.6725 
         100      2.25333  4.58161e-05 -1.32026e-05      19.6725 
         100      2.61333  4.25507e-05 -1.24955e-05      19.6725 
         100            3  3.91459e-05 -1.22003e-05      19.6725 
         150            0           -0           -0      18.5533 
         150     0.013333  7.15439e-05 -3.73245e-08      18.5533 
         150     0.053333  9.77633e-05 -5.30155e-07      18.5533 
         150         0.12  0.000154924 -2.17477e-06      18.5533 
         150     0.213332  0.000221979 -5.12472e-06      18.5533 
         150     0.333332  0.000271001 -8.74286e-06      18.5533 
         150         0.48  0.000292914 -1.22702e-05      18.5533 
         150     0.653331   0.00029355 -1.55327e-05      18.5533 
         150     0.853332  0.000276198 -1.89303e-05      18.5533 
         150         1.08  0.000242101 -2.27666e-05      18.5533 
         150      1.33333   0.00020135 -2.66248e-05      18.5533 
         150      1.61333  0.000152516 -2.97545e-05      18.5533 
         150         1.92  0.000102986 -3.18872e-05      18.5533 
         150      2.25333  6.09619e-05 -3.27232e-05      18.5533 
         150      2.61333  2.24825e-05 -3.23122e-05      18.5533 
         150            3  1.60076e-06 -3.10155e-05      18.5533 
         200            0           -0           -0      17.4484 
         200     0.013333  6.24802e-05 -2.61881e-08      17.4484 
         200     0.053333  6.41224e-05 -3.79774e-07      17.4484 
         200         0.12  8.73491e-05 -1.61856e-06      17.4484 
         200     0.213332  0.000123948 -4.02403e-06      17.4484 
         200     0.333332   0.00015568 -7.34187e-06      17.4484 
         200         0.48  0.000172755 -1.11141e-05      17.4484 
         200     0.653331  0.000175565 -1.51453e-05      17.4484 
         200     0.853332  0.000165932 -1.95641e-05      17.4484 
         200         1.08  0.000146247 -2.44203e-05      17.4484 
         200      1.33333  0.000124948 -2.92732e-05      17.4484 
         200      1.61333  0.000101459 -3.34281e-05      17.4484 
         200         1.92  7.79704e-05 -3.64638e-05      17.4484 
         200      2.25333  5.73377e-05 -3.81801e-05      17.4484 
         200      2.61333  3.44385e-05 -3.84216e-05      17.4483 
         200            3  1.59974e-05 -3.74055e-05      17.4483 
         250            0            0            0       16.349 
         250     0.013333  6.63029e-05 -1.92064e-08       16.349 
         250     0.053333  7.52916e-05 -2.65141e-07       16.349 
         250         0.12  9.88843e-05 -1.03429e-06       16.349 
         250     0.213332  0.000121617 -2.24067e-06       16.349 
         250     0.333332  0.000128168 -3.38113e-06       16.349 
         250         0.48  0.000118972 -4.09128e-06       16.349 
         250     0.653331  0.000102394 -4.53348e-06       16.349 
         250     0.853332  8.28894e-05 -5.11817e-06       16.349 
         250         1.08  6.39932e-05 -5.93719e-06       16.349 
         250      1.33333  5.20253e-05 -6.63639e-06       16.349 
         250      1.61333  4.48059e-05 -6.94865e-06       16.349 
         250         1.92  3.91771e-05 -6.95852e-06       16.349 
         250      2.25333  3.44269e-05 -6.67271e-06       16.349 
         250      2.61333  2.80239e-05 -6.16132e-06       16.349 
         250            3   2.2318e-05 -5.36249e-06       16.349 
         300            0           -0           -0      15.2525 
         300     0.013333    9.598e-05  -8.6625e-08      15.2525 
         300     0.053333   0.00019932 -1.21548e-06      15.2525 
         300         0.12  0.000374472 -4.91405e-06      15.2525 
         300     0.213332  0.000560216 -1.13036e-05      15.2525 
         300     0.333332  0.000684226 -1.85618e-05      15.2525 
         300         0.48  0.000727114  -2.4682e-05      15.2525 
         300     0.653331  0.000715018 -2.92859e-05      15.2525 
         300     0.853332  0.000667951 -3.35749e-05      15.2525 
         300         1.08  0.000588008 -3.87705e-05      15.2525 
         300      1.33333  0.000489692 -4.44926e-05      15.2525 
         300      1.61333  0.000380527 -4.93341e-05      15.2525 
         300         1.92  0.000268565 -5.28598e-05      15.2524 
         300      2.25333  0.000161101 -5.47079e-05      15.2524 
         300      2.61333  5.16306e-05 -5.45973e-05      15.2524 
         300            3 -2.94078e-05 -5.28115e-05      15.2524 
         350            0  6.74584e-20  8.85479e-27       14.157 
         350     0.013333  2.93056e-05 -8.93846e-08       14.157 
         350     0.053333 -3.43855e-05 -1.36907e-06       14.157 
         350         0.12 -3.99297e-05 -6.33728e-06       14.157 
         350     0.213332  4.19799e-05 -1.73308e-05       14.157 
         350     0.333332  0.000165452   -3.478e-05       14.157 
         350         0.48  0.000264835 -5.72684e-05       14.157 
         350     0.653331  0.000307429  -8.3211e-05       14.157 
         350     0.853332  0.000293104 -0.000111799       14.157 
         350         1.08  0.000242635 -0.000142038       14.157 
         350      1.33333  0.000196382 -0.000171614       14.157 
         350      1.61333   0.00015979 -0.000197761       14.157 
         350         1.92  0.000126893 -0.000218555       14.157 
         350      2.25333  9.68962e-05 -0.000232728       14.157 
         350      2.61333  6.11352e-05 -0.000238858       14.157 
         350            3  3.71306e-05 -0.000236294       14.157 
         400            0           -0           -0      13.0623 
         400     0.013333  5.15757e-05   3.8051e-08      13.0623 
         400     0.053333  9.20653e-06  5.46547e-07      13.0623 
         400         0.12 -5.81608e-05  2.31683e-06      13.0623 
         400     0.213332   -0.0001397  5.76036e-06      13.0623 
         400     0.333332 -0.000212432  1.05581e-05      13.0623 
         400         0.48 -0.000260295   1.6048e-05      13.0623 
         400     0.653331  -0.00028298   2.1832e-05      13.0623 
         400     0.853332 -0.000284038    2.804e-05      13.0623 
         400         1.08 -0.000261128   3.5136e-05      13.0623 
         400      1.33333 -0.000215966  4.32314e-05      13.0623 
         400      1.61333 -0.000158242  5.15578e-05      13.0623 
         400         1.92  -0.00010093   5.9158e-05      13.0624 
         400      2.25333 -4.58232e-05  6.52962e-05      13.0624 
         400      2.61333  1.34815e-05  6.95012e-05      13.0624 
         400            3  6.20902e-05  7.14473e-05      13.0624 
         450            0           -0           -0      11.9689 
         450     0.013333  8.34271e-05 -6.07883e-09      11.9689 
         450     0.053333  0.000132852 -4.36963e-08      11.9689 
         450         0.12  0.000193487    1.183e-07      11.9689 
         450     0.213332  0.000227875  1.29244e-06      11.9689 
         450     0.333332  0.000220019  4.45193e-06      11.9689 
         450         0.48  0.000187588  9.88047e-06      11.9689 
         450     0.653331  0.000156441  1.69396e-05      11.9689 
         450     0.853332   0.00013477  2.45498e-05      11.9689 
         450         1.08  0.000114444  3.17558e-05      11.9689 
         450      1.33333  9.07752e-05  3.82078e-05      11.9689 
         450      1.61333  7.03081e-05  4.40277e-05      11.9689 
         450         1.92  5.41738e-05  4.89921e-05      11.9689 
         450      2.25333  4.02186e-05  5.28185e-05      11.9689 
         450      2.61333  2.82974e-05  5.50717e-05      11.9689 
         450            3  1.89614e-05  5.54821e-05      11.9689 
         500            0           -0           -0      10.8763 
         500     0.013333  3.90281e-05 -5.93569e-08      10.8763 
         500     0.053333 -8.62167e-06 -9.03472e-07      10.8763 
         500         0.12 -1.73786e-05 -4.15228e-06      10.8763 
         500     0.213332  3.29061e-05  -1.1293e-05      10.8763 
         500     0.333332  0.000113247 -2.26027e-05      10.8763 
         500         0.48  0.000181076 -3.72335e-05      10.8763 
         500     0.653331  0.000213468 -5.43061e-05      10.8763 
         500     0.853332   0.00020641   -7.355e-05      10.8763 
         500         1.08  0.000168119   -9.464e-05      10.8763 
         500      1.33333  0.000126365 -0.000116122      10.8763 
         500      1.61333  9.94824e-05 -0.000135892      10.8763 
         500         1.92  8.28073e-05 -0.000152656      10.8763 
         500      2.25333  6.85328e-05 -0.000165678      10.8763 
         500      2.61333  5.07613e-05 -0.000173911      10.8763 
         500            3  3.79685e-05  -0.00017656      10.8763 
         550            0           -0           -0      9.78472 
         550     0.013333  6.07961e-05 -1.79121e-08      9.78472 
         550     0.053333  5.91205e-05 -2.78797e-07      9.78472 
         550         0.12  8.15184e-05 -1.31051e-06      9.78472 
         550     0.213332  0.000126005 -3.59899e-06      9.78472 
         550     0.333332  0.000172381 -7.11129e-06      9.78472 
         550         0.48  0.000200135 -1.12703e-05      9.78472 
         550     0.653331   0.00020321  -1.5473e-05      9.78472 
         550     0.853332  0.000188458 -1.94244e-05      9.78472 
         550         1.08  0.000168198 -2.28663e-05      9.78472 
         550      1.33333  0.000154209  -2.5376e-05      9.78472 
         550      1.61333  0.000144061 -2.68693e-05      9.78472 
         550         1.92  0.000128992 -2.76399e-05      9.78472 
         550      2.25333  0.000109391 -2.78486e-05      9.78472 
         550      2.61333  8.71938e-05 -2.73059e-05      9.78472 
         550            3  6.55478e-05 -2.60428e-05      9.78471 
         600            0           -0           -0      8.69384 
         600     0.013333  3.53398e-05  5.29766e-08      8.69384 
         600     0.053333 -5.33551e-05  7.51403e-07      8.69384 
         600         0.12 -0.000185329  3.09372e-06      8.69384 
         600     0.213332  -0.00032402  7.28192e-06      8.69384 
         600     0.333332  -0.00042063  1.22332e-05      8.69384 
         600         0.48 -0.000454886  1.65298e-05      8.69384 
         600     0.653331 -0.000443887  1.96905e-05      8.69384 
         600     0.853332 -0.000409331   2.2395e-05      8.69384 
         600         1.08 -0.000356172  2.56645e-05      8.69384 
         600      1.33333 -0.000288243  2.97338e-05      8.69384 
         600      1.61333 -0.000219049  3.37856e-05      8.69384 
         600         1.92 -0.000155924  3.71154e-05      8.69385 
         600      2.25333 -9.33034e-05   3.9474e-05      8.69385 
         600      2.61333 -2.53019e-05   4.0789e-05      8.69385 
         600            3  3.84185e-05  4.09245e-05      8.69386 
         650            0            0            0      7.60443 
         650     0.013333  0.000124944 -7.39045e-08      7.60443 
         650     0.053333  0.000304553 -1.02268e-06      7.60443 
         650         0.12  0.000576404 -4.02748e-06      7.60443 
         650     0.213332  0.000848599  -8.8248e-06      7.60443 
         650     0.333332   0.00102344 -1.31995e-05      7.60443 
         650         0.48   0.00107266 -1.46662e-05      7.60443 
         650     0.653331   0.00103924 -1.24177e-05      7.60443 
         650     0.853332  0.000973759 -7.61097e-06      7.60443 
         650         1.08  0.000889031 -2.27788e-06      7.60443 
         650      1.33333  0.000777734  2.19308e-06      7.60443 
         650      1.61333  0.000648763  5.91424e-06      7.60443 
         650         1.92  0.000519172  9.51087e-06      7.60443 
         650      2.25333  0.000387431  1.32023e-05      7.60442 
         650      2.61333  0.000245738  1.66646e-05      7.60441 
         650            3  0.000108563   1.9588e-05       7.6044 
         700            0           -0           -0      6.51487 
         700     0.013333  4.72775e-05  1.36019e-07      6.51487 
         700     0.053333 -3.89248e-05  2.01919e-06      6.51487 
         700         0.12 -0.000242656  8.97373e-06      6.51487 
         700     0.213332 -0.000551035  2.35164e-05      6.51487 
         700     0.333332  -0.00086419  4.52427e-05      6.51487 
         700         0.48  -0.00108014  7.13637e-05      6.51487 
         700     0.653331  -0.00117031   9.9236e-05      6.51487 
         700     0.853332  -0.00116043    0.0001281      6.51487 
         700         1.08  -0.00107629  0.000158574      6.51487 
         700      1.33333 -0.000938895  0.000190722      6.51487 
         700      1.61333 -0.000777709  0.000222768      6.51487 
         700         1.92 -0.000620838  0.000252218      6.51487 
         700      2.25333 -0.000464276  0.000277126      6.51488 
         700      2.61333 -0.000290217  0.000295938      6.51489 
         700            3 -0.000118016  0.000307163       6.5149 
         750            0           -0           -0      5.42697 
         750     0.013333 -4.08398e-05 -9.14217e-08      5.42697 
         750     0.053333 -0.000283353 -1.48126e-06      5.42697 
         750         0.12 -0.000489622 -7.43014e-06      5.42697 
         750     0.213332 -0.000526957 -2.22638e-05      5.42697 
         750     0.333332 -0.000393408 -4.88906e-05      5.42697 
         750         0.48 -0.000196628 -8.70193e-05      5.42697 
         750     0.653331 -4.83972e-05 -0.000134052      5.42697 
         750     0.853332  5.80598e-06 -0.000187217      5.42696 
         750         1.08  -1.5848e-05 -0.000244168      5.42696 
         750      1.33333 -5.56159e-05 -0.000302013      5.42696 
         750      1.61333 -6.67561e-05 -0.000357256      5.42697 
         750         1.92 -4.73385e-05 -0.000407187      5.42697 
         750      2.25333 -1.87112e-05 -0.000449972      5.42697 
         750      2.61333  5.45229e-06 -0.000483177      5.42697 
         750            3  3.24061e-05   -0.0005041      5.42697 
         800            0            0            0      4.34018 
         800     0.013333   0.00019018 -6.41579e-08      4.34018 
         800     0.053333  0.000538992 -8.21649e-07      4.34018 
         800         0.12   0.00101442 -2.75248e-06      4.34018 
         800     0.213332   0.00144631 -4.22427e-06      4.34018 
         800     0.333332   0.00169514 -1.55927e-06      4.34018 
         800         0.48     0.001745   8.4535e-06      4.34018 
         800     0.653331   0.00168213  2.63948e-05      4.34018 
         800     0.853332    0.0015953  5.03123e-05      4.34018 
         800         1.08   0.00150664  7.69528e-05      4.34018 
         800      1.33333   0.00138232  0.000102964      4.34018 
         800      1.61333   0.00120208  0.000126297      4.34018 
         800         1.92  0.000993603  0.000146781      4.34017 
         800      2.25333  0.000777135  0.000164733      4.34017 
         800      2.61333  0.000547006  0.000179334      4.34016 
         800            3  0.000311452  0.000189334      4.34014 
         850            0            0            0      3.25304 
         850     0.013333   9.2344e-05   1.5786e-07      3.25304 
         850     0.053333  0.000115329  2.39785e-06      3.25304 
         850         0.12  2.02747e-05  1.10344e-05      3.25304 
         850     0.213332 -0.000242162  3.01784e-05      3.25304 
         850     0.333332 -0.000586104  6.08076e-05      3.25304 
         850         0.48 -0.000870253  0.000100371      3.25304 
         850     0.653331  -0.00101559  0.000145346      3.25304 
         850     0.853332  -0.00102548  0.000193789      3.25304 
         850         1.08 -0.000934757    0.0002453      3.25304 
         850      1.33333 -0.000788364  0.000298985      3.25304 
         850      1.61333 -0.000636689   0.00035214      3.25304 
         850         1.92 -0.000510192  0.000401514      3.25304 
         850      2.25333 -0.000395146  0.000444611      3.25304 
         850      2.61333 -0.000266307  0.000479305      3.25305 
         850            3 -0.000134079  0.000503054      3.25306 
         900            0            0            0      2.16747 
         900     0.013333 -0.000122034  -1.1129e-08      2.16747 
         900     0.053333 -0.000601262 -3.65279e-07      2.16747 
         900         0.12  -0.00115304   -3.008e-06      2.16747 
         900     0.213332  -0.00153382 -1.25257e-05      2.16747 
         900     0.333332  -0.00162072 -3.43418e-05      2.16747 
         900         0.48  -0.00148164 -7.11097e-05      2.16747 
         900     0.653331  -0.00128326 -0.000121249      2.16747 
         900     0.853332  -0.00114455 -0.000180643      2.16747 
         900         1.08   -0.0010737 -0.000244535      2.16747 
         900      1.33333  -0.00100028 -0.000308177      2.16747 
         900      1.61333 -0.000870227 -0.000367849      2.16747 
         900         1.92 -0.000702247 -0.000422031      2.16747 
         900      2.25333 -0.000528596 -0.000470035      2.16748 
         900      2.61333 -0.000352279 -0.000509709      2.16749 
         900            3 -0.000169691  -0.00053809       2.1675 
         950            0            0            0      1.08413 
         950     0.013333  8.95093e-05 -2.37431e-07      1.08413 
         950     0.053333   0.00023406  -3.5308e-06      1.08413 
         950         0.12  0.000615105 -1.57434e-05      1.08413 
         950     0.213332   0.00120878 -4.14585e-05      1.08413 
         950     0.333332   0.00182742 -8.02034e-05      1.08413 
         950         0.48   0.00227112 -0.000127094      1.08413 
         950     0.653331   0.00247126 -0.000177165      1.08413 
         950     0.853332    0.0024727 -0.000228795      1.08413 
         950         1.08   0.00232912 -0.000283361      1.08413 
         950      1.33333    0.0020741  -0.00034199      1.08413 
         950      1.61333   0.00176465 -0.000402471      1.08413 
         950         1.92   0.00147158 -0.000460227      1.08412 
         950      2.25333   0.00119495 -0.000511484      1.08412 
         950      2.61333   0.00089474 -0.000553696      1.08411 
         950            3  0.000577204 -0.000584638      1.08409 
        1000            0            0            0            0 
        1000     0.013333  2.83412e-05  1.41828e-05           -0 
        1000     0.053333  7.26783e-06  6.19698e-05           -0 
        1000         0.12  0.000224278  0.000166663  9.04203e-17 
        1000     0.213332  0.000932264  0.000321502  1.07358e-15 
        1000     0.333332  0.000777437  0.000633735  5.92265e-16 
        1000         0.48    0.0018222   0.00088617           -0 
        1000     0.653331    0.0019062  0.000711372            0 
        1000     0.853332   0.00122284   0.00117799            0 
        1000         1.08   0.00238238   0.00163342            0 
        1000      1.33333    0.0067193   0.00132813  4.65126e-16 
        1000      1.61333   0.00273016 -0.000212273           -0 
        1000         1.92   0.00188071  0.000206602  1.09923e-15 
        1000      2.25333    0.0021386  0.000402976   1.1145e-15 
        1000      2.61333   0.00278762 -0.000255252           -0 
        1000            3  0.000724855 -0.000254928    1.203e-15 
