Variables = x, y, u, v, p

Zone, I=2080, F=POINT
         -50            0            0            0   0.00975409 
         -50      0.00048 -6.96677e-06  2.10953e-11   0.00975409 
         -50     0.001922 -2.46559e-05 -1.99403e-10   0.00975409 
         -50     0.004326 -4.49479e-05 -1.35285e-09   0.00975409 
         -50      0.00769 -5.89154e-05 -4.13157e-09   0.00975409 
         -50     0.012017 -6.14004e-05 -8.79302e-09   0.00975409 
         -50     0.017304 -5.35898e-05 -1.49169e-08   0.00975409 
         -50     0.023553 -4.20217e-05 -2.15539e-08    0.0097541 
         -50     0.030763 -3.40451e-05 -2.76944e-08   0.00975411 
         -50     0.038936 -3.22558e-05 -3.28018e-08   0.00975411 
         -50     0.048069 -3.22908e-05  -3.6911e-08   0.00975412 
         -50     0.058163 -2.78467e-05 -3.99291e-08   0.00975413 
         -50     0.069219 -2.11625e-05  -4.0402e-08   0.00975413 
         -50     0.081236 -2.26767e-05  -3.5726e-08   0.00975414 
         -50     0.094215 -1.80699e-05 -2.61794e-08   0.00975415 
         -50     0.108155 -1.58265e-05 -9.47854e-09   0.00975416 
         -50     0.123056 -1.33984e-05  1.55488e-08   0.00975416 
         -50     0.138918 -1.09982e-05  5.04994e-08   0.00975417 
         -50     0.155744 -8.73699e-06  9.67395e-08   0.00975418 
         -50     0.173529 -6.63256e-06  1.55339e-07   0.00975418 
         -50     0.192276 -4.64527e-06  2.27128e-07   0.00975419 
         -50     0.211984 -2.73563e-06  3.12706e-07   0.00975419 
         -50     0.232655  -9.0765e-07  4.12484e-07    0.0097542 
         -50     0.254285  8.14938e-07  5.26534e-07    0.0097542 
         -50     0.276877  2.52076e-06  6.54663e-07    0.0097542 
         -50     0.300431   4.2131e-06  7.96086e-07   0.00975419 
         -50     0.324946  5.89976e-06    9.501e-07   0.00975419 
         -50     0.350424  7.59686e-06  1.11616e-06   0.00975418 
         -50     0.376861  9.31094e-06  1.29332e-06   0.00975417 
         -50      0.40426   1.1039e-05  1.48033e-06   0.00975415 
         -50     0.432621  1.27676e-05  1.67559e-06   0.00975413 
         -50     0.461945  1.44742e-05   1.8772e-06   0.00975411 
         -50     0.492228  1.61275e-05  2.08297e-06   0.00975408 
         -50     0.523472    1.769e-05  2.29049e-06   0.00975405 
         -50     0.555678   1.9119e-05  2.49714e-06   0.00975401 
         -50     0.588845  2.03668e-05  2.70002e-06   0.00975396 
         -50     0.622976  2.13804e-05  2.89481e-06   0.00975391 
         -50     0.658066  2.21263e-05  3.07683e-06   0.00975385 
         -50     0.694117   2.2566e-05  3.26262e-06   0.00975377 
         -50      0.73113  2.26738e-05  3.43796e-06   0.00975369 
         -50     0.769107  2.24446e-05  3.59574e-06    0.0097536 
         -50     0.808042  2.18912e-05  3.73476e-06    0.0097535 
         -50     0.847939  2.10409e-05  3.85821e-06   0.00975339 
         -50     0.888797  1.99314e-05  3.97169e-06   0.00975327 
         -50      0.93062  1.86054e-05  4.08111e-06   0.00975313 
         -50       0.9734  1.71056e-05  4.19068e-06   0.00975298 
         -50      1.01714  1.54686e-05  4.30134e-06   0.00975282 
         -50      1.06185  1.37217e-05  4.40999e-06   0.00975263 
         -50      1.10751  1.18797e-05  4.51011e-06   0.00975244 
         -50      1.15414  9.94574e-06  4.59445e-06   0.00975222 
         -50      1.20173  7.91755e-06  4.66059e-06   0.00975199 
         -50      1.25028  5.79785e-06  4.72038e-06   0.00975174 
         -50      1.29979  3.61531e-06  4.81441e-06   0.00975147 
         -50      1.35026  1.33186e-06  4.86963e-06   0.00975119 
         -50       1.4017 -1.21252e-06  4.83339e-06   0.00975087 
         -50      1.45409 -3.91274e-06  4.89104e-06   0.00975054 
         -50      1.50745 -6.80192e-06  4.97647e-06   0.00975018 
         -50      1.56176 -9.91805e-06  5.03746e-06   0.00974981 
         -50      1.61705 -1.32955e-05   5.0372e-06   0.00974941 
         -50      1.67329 -1.69544e-05  4.95551e-06   0.00974899 
         -50      1.73049 -2.08925e-05  4.78967e-06   0.00974854 
         -50      1.78865 -2.50754e-05  4.55476e-06   0.00974807 
         -50      1.84778 -2.94288e-05  4.28331e-06   0.00974758 
         -50      1.90786 -3.38308e-05  4.02448e-06   0.00974706 
         -50      1.96891 -3.81115e-05  3.84203e-06   0.00974651 
         -50      2.03092 -4.20513e-05  3.81164e-06   0.00974594 
         -50      2.09389 -4.53884e-05  4.01693e-06   0.00974535 
         -50      2.15782 -4.78297e-05  4.54415e-06   0.00974473 
         -50      2.22272 -4.90743e-05  5.47552e-06   0.00974408 
         -50      2.28857 -4.88438e-05  6.88063e-06   0.00974341 
         -50      2.35539  -4.6927e-05  8.80631e-06   0.00974272 
         -50      2.42317  -4.3239e-05  1.12641e-05     0.009742 
         -50      2.49191 -3.79002e-05  1.42147e-05   0.00974126 
         -50      2.56161 -3.13338e-05  1.75512e-05   0.00974049 
         -50      2.63226 -2.43892e-05  2.10781e-05   0.00973969 
         -50      2.70389 -1.84944e-05  2.44879e-05   0.00973885 
         -50      2.77648 -1.52423e-05  2.73303e-05   0.00973796 
         -50      2.85002 -1.30944e-05  2.94946e-05   0.00973704 
         -50      2.92453 -1.18881e-05  3.11084e-05   0.00973612 
         -50            3 -1.15595e-05   3.2222e-05   0.00973518 
         -25            0 -5.58582e-20  1.71425e-25    0.0075399 
         -25      0.00048 -5.23389e-06  1.03542e-12    0.0075399 
         -25     0.001922 -1.85903e-05 -1.75371e-10    0.0075399 
         -25     0.004326 -3.41363e-05 -1.00578e-09    0.0075399 
         -25      0.00769 -4.53431e-05 -3.10495e-09    0.0075399 
         -25     0.012017 -4.84286e-05 -7.05718e-09    0.0075399 
         -25     0.017304 -4.42326e-05 -1.33139e-08    0.0075399 
         -25     0.023553 -3.74962e-05 -2.22476e-08    0.0075399 
         -25     0.030763 -3.35467e-05 -3.43138e-08    0.0075399 
         -25     0.038936 -3.42412e-05 -5.02404e-08   0.00753991 
         -25     0.048069 -3.63578e-05 -7.10205e-08   0.00753991 
         -25     0.058163 -3.52614e-05 -9.76126e-08   0.00753991 
         -25     0.069219 -3.25556e-05 -1.30409e-07   0.00753991 
         -25     0.081236 -3.58304e-05 -1.69267e-07   0.00753992 
         -25     0.094215 -3.46141e-05  -2.1505e-07   0.00753992 
         -25     0.108155 -3.50884e-05 -2.67536e-07   0.00753992 
         -25     0.123056 -3.53857e-05  -3.2668e-07   0.00753993 
         -25     0.138918 -3.56635e-05 -3.92112e-07   0.00753993 
         -25     0.155744 -3.60106e-05 -4.63417e-07   0.00753993 
         -25     0.173529 -3.64517e-05 -5.40075e-07   0.00753994 
         -25     0.192276 -3.69738e-05 -6.21499e-07   0.00753994 
         -25     0.211984 -3.75652e-05 -7.06963e-07   0.00753994 
         -25     0.232655 -3.82466e-05 -7.95699e-07   0.00753995 
         -25     0.254285 -3.90505e-05 -8.87099e-07   0.00753995 
         -25     0.276877 -3.99242e-05 -9.80786e-07   0.00753995 
         -25     0.300431 -4.08739e-05 -1.07517e-06   0.00753995 
         -25     0.324946 -4.18954e-05 -1.17074e-06   0.00753996 
         -25     0.350424 -4.29734e-05 -1.26759e-06   0.00753996 
         -25     0.376861 -4.40932e-05 -1.36527e-06   0.00753996 
         -25      0.40426 -4.52408e-05 -1.46314e-06   0.00753996 
         -25     0.432621 -4.64029e-05 -1.56069e-06   0.00753995 
         -25     0.461945 -4.75668e-05 -1.65788e-06   0.00753995 
         -25     0.492228 -4.87194e-05 -1.75523e-06   0.00753995 
         -25     0.523472 -4.98482e-05 -1.85376e-06   0.00753994 
         -25     0.555678 -5.09413e-05  -1.9541e-06   0.00753994 
         -25     0.588845 -5.19888e-05 -2.05477e-06   0.00753993 
         -25     0.622976 -5.29838e-05 -2.15084e-06   0.00753992 
         -25     0.658066  -5.3894e-05 -2.26356e-06   0.00753991 
         -25     0.694117 -5.47385e-05 -2.36805e-06   0.00753989 
         -25      0.73113 -5.54942e-05 -2.46701e-06   0.00753987 
         -25     0.769107  -5.6141e-05 -2.56216e-06   0.00753986 
         -25     0.808042 -5.66626e-05 -2.65423e-06   0.00753983 
         -25     0.847939 -5.70469e-05 -2.74307e-06   0.00753981 
         -25     0.888797 -5.72859e-05 -2.82777e-06   0.00753978 
         -25      0.93062 -5.73757e-05 -2.90685e-06   0.00753974 
         -25       0.9734 -5.73166e-05 -2.97856e-06   0.00753971 
         -25      1.01714 -5.71126e-05  -3.0412e-06   0.00753966 
         -25      1.06185 -5.67713e-05 -3.09344e-06   0.00753962 
         -25      1.10751 -5.63033e-05  -3.1347e-06   0.00753957 
         -25      1.15414 -5.57224e-05 -3.16555e-06   0.00753952 
         -25      1.20173 -5.50452e-05 -3.18799e-06   0.00753946 
         -25      1.25028  -5.4291e-05  -3.2057e-06   0.00753939 
         -25      1.29979 -5.34825e-05  -3.2241e-06   0.00753932 
         -25      1.35026 -5.26217e-05 -3.21759e-06   0.00753923 
         -25       1.4017 -5.16075e-05 -3.18215e-06   0.00753913 
         -25      1.45409  -5.0494e-05 -3.16693e-06   0.00753904 
         -25      1.50745 -4.93381e-05 -3.16286e-06   0.00753896 
         -25      1.56176 -4.81781e-05 -3.16183e-06   0.00753888 
         -25      1.61705 -4.70376e-05 -3.15736e-06   0.00753879 
         -25      1.67329 -4.59303e-05 -3.14512e-06   0.00753869 
         -25      1.73049 -4.48643e-05 -3.12357e-06   0.00753858 
         -25      1.78865 -4.38481e-05  -3.0943e-06   0.00753845 
         -25      1.84778 -4.28952e-05 -3.06243e-06   0.00753831 
         -25      1.90786 -4.20296e-05 -3.03666e-06   0.00753815 
         -25      1.96891 -4.12885e-05 -3.02909e-06   0.00753799 
         -25      2.03092 -4.07254e-05 -3.05471e-06   0.00753782 
         -25      2.09389 -4.04096e-05 -3.13039e-06   0.00753764 
         -25      2.15782  -4.0424e-05 -3.27337e-06   0.00753747 
         -25      2.22272 -4.08578e-05 -3.49903e-06    0.0075373 
         -25      2.28857  -4.1795e-05 -3.81784e-06   0.00753714 
         -25      2.35539  -4.3297e-05 -4.23139e-06   0.00753699 
         -25      2.42317 -4.53776e-05 -4.72728e-06   0.00753683 
         -25      2.49191  -4.7968e-05 -5.27248e-06   0.00753666 
         -25      2.56161 -5.08733e-05 -5.80554e-06   0.00753647 
         -25      2.63226 -5.37145e-05 -6.22662e-06   0.00753622 
         -25      2.70389  -5.5857e-05 -6.38573e-06   0.00753588 
         -25      2.77648 -5.71153e-05   -6.334e-06   0.00753556 
         -25      2.85002 -5.69079e-05 -5.42401e-06   0.00753547 
         -25      2.92453 -5.59057e-05 -4.09368e-06   0.00753527 
         -25            3  -5.4563e-05   -2.533e-06   0.00753502 
           0            0 -4.84318e-20  8.14593e-26   0.00608511 
           0      0.00048 -4.54393e-06  9.26377e-12   0.00608511 
           0     0.001922 -1.62084e-05   5.6158e-11   0.00608511 
           0     0.004326 -3.00142e-05  2.19065e-10   0.00608511 
           0      0.00769 -4.04802e-05  6.84508e-10   0.00608511 
           0     0.012017 -4.44276e-05  1.78839e-09   0.00608511 
           0     0.017304 -4.25492e-05  4.00244e-09   0.00608511 
           0     0.023553 -3.88058e-05  7.84641e-09   0.00608511 
           0     0.030763 -3.76417e-05   1.3727e-08   0.00608511 
           0     0.038936 -4.05817e-05  2.17738e-08   0.00608511 
           0     0.048069 -4.48789e-05  3.17505e-08   0.00608511 
           0     0.058163 -4.65936e-05  4.31427e-08   0.00608512 
           0     0.069219  -4.7012e-05  5.53475e-08   0.00608512 
           0     0.081236 -5.24351e-05  6.76084e-08   0.00608512 
           0     0.094215 -5.40047e-05  7.82572e-08   0.00608512 
           0     0.108155 -5.68357e-05  8.57863e-08   0.00608512 
           0     0.123056 -5.92892e-05  8.81548e-08   0.00608512 
           0     0.138918 -6.14322e-05  8.31828e-08   0.00608512 
           0     0.155744 -6.32835e-05  6.85164e-08   0.00608512 
           0     0.173529 -6.48194e-05  4.17153e-08   0.00608512 
           0     0.192276 -6.59998e-05   3.2481e-10   0.00608512 
           0     0.211984 -6.68017e-05  -5.8019e-08   0.00608512 
           0     0.232655 -6.72457e-05 -1.35506e-07   0.00608512 
           0     0.254285 -6.73784e-05 -2.34014e-07   0.00608512 
           0     0.276877 -6.71898e-05 -3.55125e-07   0.00608511 
           0     0.300431  -6.6732e-05 -5.00441e-07   0.00608511 
           0     0.324946 -6.60592e-05 -6.70671e-07    0.0060851 
           0     0.350424 -6.52224e-05 -8.66275e-07    0.0060851 
           0     0.376861 -6.42765e-05 -1.08749e-06    0.0060851 
           0      0.40426 -6.32769e-05 -1.33436e-06   0.00608509 
           0     0.432621 -6.22772e-05 -1.60661e-06   0.00608509 
           0     0.461945 -6.13258e-05 -1.90356e-06   0.00608508 
           0     0.492228 -6.04639e-05 -2.22413e-06   0.00608507 
           0     0.523472 -5.97228e-05 -2.56695e-06   0.00608507 
           0     0.555678 -5.91235e-05 -2.93056e-06   0.00608506 
           0     0.588845  -5.8678e-05 -3.31377e-06   0.00608506 
           0     0.622976 -5.83919e-05 -3.71617e-06   0.00608505 
           0     0.658066 -5.82541e-05 -4.13248e-06   0.00608505 
           0     0.694117 -5.82518e-05 -4.56418e-06   0.00608504 
           0      0.73113 -5.83595e-05 -5.00862e-06   0.00608504 
           0     0.769107  -5.8547e-05 -5.46334e-06   0.00608504 
           0     0.808042 -5.87811e-05 -5.92589e-06   0.00608504 
           0     0.847939 -5.90266e-05 -6.39409e-06   0.00608505 
           0     0.888797  -5.9248e-05 -6.86581e-06   0.00608505 
           0      0.93062 -5.94117e-05 -7.33909e-06   0.00608506 
           0       0.9734 -5.94868e-05 -7.81192e-06   0.00608507 
           0      1.01714 -5.94476e-05 -8.28251e-06   0.00608509 
           0      1.06185 -5.92739e-05 -8.74899e-06    0.0060851 
           0      1.10751 -5.89518e-05 -9.20968e-06   0.00608513 
           0      1.15414 -5.84732e-05 -9.66299e-06   0.00608515 
           0      1.20173 -5.78335e-05 -1.01075e-05   0.00608518 
           0      1.25028 -5.70281e-05 -1.05424e-05   0.00608522 
           0      1.29979  -5.6046e-05 -1.09676e-05   0.00608526 
           0      1.35026 -5.49468e-05 -1.13731e-05    0.0060853 
           0       1.4017  -5.3867e-05 -1.17687e-05   0.00608535 
           0      1.45409 -5.27475e-05 -1.21639e-05   0.00608541 
           0      1.50745 -5.16165e-05 -1.25447e-05   0.00608547 
           0      1.56176 -5.04918e-05 -1.29016e-05   0.00608553 
           0      1.61705 -4.93809e-05 -1.32292e-05    0.0060856 
           0      1.67329 -4.82825e-05 -1.35252e-05   0.00608567 
           0      1.73049 -4.71875e-05 -1.37897e-05   0.00608575 
           0      1.78865 -4.60807e-05 -1.40245e-05   0.00608584 
           0      1.84778 -4.49426e-05 -1.42321e-05   0.00608593 
           0      1.90786 -4.37522e-05 -1.44146e-05   0.00608602 
           0      1.96891 -4.24888e-05 -1.45732e-05   0.00608611 
           0      2.03092 -4.11349e-05 -1.47077e-05   0.00608621 
           0      2.09389 -3.96783e-05  -1.4816e-05   0.00608631 
           0      2.15782 -3.81154e-05 -1.48942e-05   0.00608642 
           0      2.22272 -3.64524e-05 -1.49379e-05   0.00608652 
           0      2.28857 -3.47082e-05 -1.49432e-05   0.00608662 
           0      2.35539 -3.29146e-05 -1.49094e-05   0.00608673 
           0      2.42317 -3.11172e-05 -1.48425e-05   0.00608683 
           0      2.49191 -2.93754e-05 -1.47605e-05   0.00608693 
           0      2.56161 -2.77588e-05    -1.47e-05   0.00608703 
           0      2.63226 -2.63447e-05 -1.47252e-05   0.00608712 
           0      2.70389 -2.52114e-05 -1.49388e-05   0.00608722 
           0      2.77648 -2.43118e-05 -1.51674e-05   0.00608732 
           0      2.85002 -2.35574e-05 -1.52397e-05   0.00608742 
           0      2.92453  -2.3057e-05  -1.5533e-05    0.0060875 
           0            3 -2.27216e-05 -1.58857e-05   0.00608758 
          20            0 -4.46102e-20  4.83272e-26   0.00513013 
          20      0.00048 -4.18605e-06  1.48367e-11   0.00513013 
          20     0.001922 -1.49396e-05  1.81974e-10   0.00513013 
          20     0.004326 -2.76938e-05  8.73804e-10   0.00513013 
          20      0.00769 -3.74234e-05  2.71623e-09   0.00513013 
          20     0.012017  -4.1219e-05  6.57798e-09   0.00513013 
          20     0.017304 -3.97265e-05  1.35068e-08   0.00513013 
          20     0.023553 -3.65922e-05  2.46276e-08   0.00513013 
          20     0.030763 -3.59056e-05  4.09792e-08   0.00513013 
          20     0.038936 -3.90745e-05  6.33676e-08   0.00513014 
          20     0.048069 -4.35821e-05  9.22464e-08   0.00513014 
          20     0.058163 -4.58147e-05   1.2775e-07   0.00513014 
          20     0.069219 -4.69539e-05  1.69775e-07   0.00513014 
          20     0.081236 -5.27828e-05  2.17926e-07   0.00513014 
          20     0.094215 -5.51647e-05  2.71079e-07   0.00513014 
          20     0.108155 -5.87919e-05  3.28042e-07   0.00513014 
          20     0.123056  -6.2154e-05  3.87166e-07   0.00513014 
          20     0.138918  -6.5307e-05  4.46632e-07   0.00513014 
          20     0.155744 -6.82621e-05  5.04499e-07   0.00513014 
          20     0.173529 -7.09899e-05  5.58759e-07   0.00513013 
          20     0.192276 -7.34464e-05  6.07491e-07   0.00513013 
          20     0.211984 -7.56018e-05  6.48911e-07   0.00513013 
          20     0.232655 -7.74657e-05  6.81492e-07   0.00513012 
          20     0.254285 -7.90692e-05  7.04059e-07   0.00513012 
          20     0.276877 -8.03903e-05  7.15861e-07   0.00513011 
          20     0.300431 -8.14613e-05   7.1613e-07   0.00513011 
          20     0.324946 -8.23137e-05  7.05084e-07    0.0051301 
          20     0.350424 -8.29732e-05  6.83234e-07   0.00513009 
          20     0.376861 -8.34655e-05   6.5129e-07   0.00513009 
          20      0.40426 -8.38143e-05  6.10236e-07   0.00513008 
          20     0.432621 -8.40391e-05  5.61423e-07   0.00513007 
          20     0.461945 -8.41524e-05  5.06626e-07   0.00513006 
          20     0.492228 -8.41589e-05  4.48059e-07   0.00513005 
          20     0.523472 -8.40546e-05  3.88247e-07   0.00513004 
          20     0.555678 -8.38273e-05  3.29748e-07   0.00513003 
          20     0.588845 -8.34595e-05  2.74592e-07   0.00513003 
          20     0.622976 -8.29338e-05  2.23632e-07   0.00513002 
          20     0.658066 -8.22287e-05  1.84599e-07   0.00513002 
          20     0.694117 -8.13277e-05  1.56252e-07   0.00513002 
          20      0.73113 -8.02152e-05  1.39346e-07   0.00513002 
          20     0.769107 -7.88891e-05  1.34788e-07   0.00513002 
          20     0.808042 -7.73609e-05  1.43443e-07   0.00513003 
          20     0.847939  -7.5654e-05  1.65919e-07   0.00513004 
          20     0.888797 -7.38027e-05  2.02347e-07   0.00513005 
          20      0.93062 -7.18498e-05  2.52193e-07   0.00513007 
          20       0.9734 -6.98436e-05  3.14088e-07    0.0051301 
          20      1.01714  -6.7834e-05  3.85815e-07   0.00513013 
          20      1.06185 -6.58684e-05   4.6438e-07   0.00513017 
          20      1.10751 -6.39873e-05  5.46349e-07   0.00513022 
          20      1.15414 -6.22194e-05  6.28456e-07   0.00513028 
          20      1.20173 -6.05775e-05  7.08588e-07   0.00513034 
          20      1.25028 -5.90543e-05  7.87326e-07   0.00513042 
          20      1.29979 -5.76195e-05   8.7008e-07    0.0051305 
          20      1.35026 -5.62689e-05  9.42546e-07   0.00513059 
          20       1.4017 -5.47393e-05  9.98553e-07    0.0051307 
          20      1.45409 -5.29503e-05   1.0706e-06   0.00513081 
          20      1.50745 -5.10163e-05  1.14855e-06   0.00513094 
          20      1.56176 -4.90213e-05  1.22606e-06   0.00513108 
          20      1.61705 -4.70209e-05  1.30007e-06   0.00513122 
          20      1.67329 -4.50465e-05  1.37016e-06   0.00513138 
          20      1.73049 -4.31079e-05  1.43785e-06   0.00513155 
          20      1.78865 -4.11988e-05  1.50576e-06   0.00513173 
          20      1.84778 -3.93025e-05  1.57676e-06   0.00513192 
          20      1.90786 -3.73977e-05   1.6531e-06   0.00513212 
          20      1.96891 -3.54643e-05  1.73562e-06   0.00513233 
          20      2.03092   -3.349e-05  1.82308e-06   0.00513254 
          20      2.09389 -3.14752e-05  1.91171e-06   0.00513277 
          20      2.15782 -2.94386e-05  1.99501e-06   0.00513299 
          20      2.22272 -2.74187e-05  2.06409e-06   0.00513323 
          20      2.28857 -2.54756e-05  2.10849e-06   0.00513347 
          20      2.35539 -2.36883e-05  2.11769e-06   0.00513371 
          20      2.42317  -2.2148e-05  2.08356e-06   0.00513396 
          20      2.49191 -2.09482e-05  2.00389e-06   0.00513421 
          20      2.56161 -2.01659e-05   1.8872e-06   0.00513445 
          20      2.63226 -1.98376e-05  1.75912e-06    0.0051347 
          20      2.70389 -1.99254e-05  1.67063e-06   0.00513495 
          20      2.77648 -2.04342e-05  1.54043e-06   0.00513521 
          20      2.85002 -2.10588e-05  1.45748e-06   0.00513549 
          20      2.92453 -2.14794e-05  1.48662e-06   0.00513571 
          20            3 -2.16217e-05   1.6913e-06   0.00513593 
          40            0 -4.11027e-20  2.99525e-26   0.00429723 
          40      0.00048 -3.85271e-06 -4.77532e-12   0.00429723 
          40     0.001922 -1.37007e-05 -1.10349e-10   0.00429723 
          40     0.004326 -2.52166e-05 -5.81509e-10   0.00429723 
          40      0.00769 -3.36348e-05 -1.83305e-09   0.00429723 
          40     0.012017 -3.61869e-05 -4.40881e-09   0.00429723 
          40     0.017304  -3.3467e-05 -8.96721e-09   0.00429723 
          40     0.023553 -2.89072e-05 -1.62995e-08   0.00429723 
          40     0.030763 -2.63634e-05 -2.73529e-08   0.00429723 
          40     0.038936 -2.71611e-05 -4.32616e-08   0.00429723 
          40     0.048069 -2.89248e-05 -6.53145e-08   0.00429723 
          40     0.058163 -2.82512e-05 -9.48865e-08   0.00429723 
          40     0.069219 -2.62836e-05 -1.33301e-07   0.00429723 
          40     0.081236 -2.85286e-05 -1.81778e-07   0.00429723 
          40     0.094215 -2.73369e-05 -2.41663e-07   0.00429723 
          40     0.108155 -2.72021e-05 -3.13992e-07   0.00429723 
          40     0.123056 -2.67558e-05 -3.99655e-07   0.00429723 
          40     0.138918 -2.61142e-05 -4.99268e-07   0.00429723 
          40     0.155744 -2.53505e-05 -6.13207e-07   0.00429723 
          40     0.173529 -2.44981e-05  -7.4151e-07   0.00429722 
          40     0.192276 -2.35684e-05 -8.83974e-07   0.00429722 
          40     0.211984 -2.25793e-05 -1.04009e-06   0.00429722 
          40     0.232655 -2.15752e-05 -1.20913e-06   0.00429722 
          40     0.254285 -2.06115e-05 -1.39018e-06   0.00429722 
          40     0.276877 -1.96811e-05 -1.58238e-06   0.00429722 
          40     0.300431 -1.88203e-05 -1.78443e-06   0.00429722 
          40     0.324946 -1.80548e-05 -1.99529e-06   0.00429722 
          40     0.350424  -1.7399e-05 -2.21404e-06   0.00429722 
          40     0.376861 -1.68647e-05 -2.43969e-06   0.00429721 
          40      0.40426 -1.64601e-05 -2.67131e-06   0.00429721 
          40     0.432621 -1.61896e-05   -2.908e-06   0.00429721 
          40     0.461945 -1.60529e-05 -3.14897e-06   0.00429721 
          40     0.492228 -1.60455e-05 -3.39348e-06   0.00429721 
          40     0.523472  -1.6158e-05 -3.64083e-06    0.0042972 
          40     0.555678 -1.63772e-05 -3.89022e-06    0.0042972 
          40     0.588845  -1.6687e-05 -4.14047e-06    0.0042972 
          40     0.622976  -1.7069e-05 -4.38973e-06    0.0042972 
          40     0.658066 -1.74965e-05 -4.63751e-06   0.00429719 
          40     0.694117  -1.7952e-05 -4.88118e-06   0.00429719 
          40      0.73113 -1.84038e-05 -5.11992e-06   0.00429719 
          40     0.769107 -1.88255e-05 -5.35244e-06   0.00429719 
          40     0.808042 -1.91973e-05 -5.57705e-06   0.00429718 
          40     0.847939 -1.95068e-05 -5.79202e-06   0.00429718 
          40     0.888797 -1.97495e-05 -5.99565e-06   0.00429718 
          40      0.93062 -1.99294e-05 -6.18663e-06   0.00429718 
          40       0.9734 -2.00581e-05 -6.36412e-06   0.00429717 
          40      1.01714 -2.01544e-05 -6.52804e-06   0.00429717 
          40      1.06185 -2.02423e-05 -6.67907e-06   0.00429717 
          40      1.10751 -2.03485e-05  -6.8186e-06   0.00429717 
          40      1.15414 -2.04983e-05 -6.94839e-06   0.00429717 
          40      1.20173 -2.07111e-05 -7.07001e-06   0.00429716 
          40      1.25028 -2.09935e-05 -7.18384e-06   0.00429716 
          40      1.29979  -2.1331e-05 -7.28758e-06   0.00429716 
          40      1.35026 -2.17244e-05 -7.37411e-06   0.00429716 
          40       1.4017 -2.22878e-05  -7.4618e-06   0.00429716 
          40      1.45409 -2.29593e-05 -7.54865e-06   0.00429716 
          40      1.50745 -2.36977e-05 -7.62314e-06   0.00429717 
          40      1.56176 -2.44764e-05 -7.67871e-06   0.00429717 
          40      1.61705 -2.52819e-05 -7.71308e-06   0.00429717 
          40      1.67329 -2.61117e-05 -7.72747e-06   0.00429718 
          40      1.73049 -2.69726e-05 -7.72558e-06   0.00429718 
          40      1.78865 -2.78775e-05 -7.71254e-06   0.00429719 
          40      1.84778 -2.88424e-05 -7.69379e-06   0.00429719 
          40      1.90786 -2.98829e-05 -7.67399e-06    0.0042972 
          40      1.96891 -3.10115e-05 -7.65597e-06    0.0042972 
          40      2.03092 -3.22336e-05 -7.63993e-06    0.0042972 
          40      2.09389 -3.35449e-05 -7.62293e-06   0.00429721 
          40      2.15782 -3.49285e-05 -7.59873e-06   0.00429721 
          40      2.22272 -3.63538e-05 -7.55832e-06   0.00429722 
          40      2.28857 -3.77759e-05 -7.49112e-06   0.00429722 
          40      2.35539 -3.91364e-05 -7.38722e-06   0.00429723 
          40      2.42317  -4.0367e-05 -7.24078e-06   0.00429723 
          40      2.49191  -4.1395e-05 -7.05494e-06   0.00429723 
          40      2.56161 -4.21525e-05 -6.84837e-06   0.00429723 
          40      2.63226 -4.25888e-05 -6.66413e-06   0.00429723 
          40      2.70389 -4.26883e-05 -6.58079e-06   0.00429721 
          40      2.77648 -4.23747e-05 -6.48637e-06    0.0042972 
          40      2.85002 -4.19779e-05 -6.28015e-06    0.0042972 
          40      2.92453 -4.17215e-05 -6.26423e-06   0.00429721 
          40            3 -4.14718e-05   -6.333e-06   0.00429722 
          60            0            0            0   0.00352856 
          60      0.00048 -3.57418e-06 -2.37433e-11   0.00352856 
          60     0.001922 -1.26443e-05 -4.01052e-10   0.00352856 
          60     0.004326 -2.30289e-05 -2.03427e-09   0.00352856 
          60      0.00769 -3.01205e-05 -6.37258e-09   0.00352856 
          60     0.012017 -3.12324e-05 -1.53536e-08   0.00352855 
          60     0.017304 -2.69213e-05 -3.13091e-08   0.00352855 
          60     0.023553 -2.04804e-05 -5.69059e-08   0.00352855 
          60     0.030763 -1.56176e-05 -9.50418e-08   0.00352855 
          60     0.038936 -1.36068e-05 -1.48773e-07   0.00352855 
          60     0.048069 -1.21653e-05 -2.21138e-07   0.00352855 
          60     0.058163 -8.02856e-06 -3.15037e-07   0.00352855 
          60     0.069219 -2.32785e-06 -4.33023e-07   0.00352855 
          60     0.081236 -4.13131e-07 -5.77149e-07   0.00352855 
          60     0.094215  5.03906e-06 -7.49064e-07   0.00352855 
          60     0.108155  9.63409e-06 -9.49649e-07   0.00352855 
          60     0.123056  1.46233e-05 -1.17912e-06   0.00352855 
          60     0.138918  1.98221e-05 -1.43694e-06   0.00352855 
          60     0.155744  2.50881e-05 -1.72192e-06   0.00352855 
          60     0.173529   3.0318e-05 -2.03208e-06   0.00352855 
          60     0.192276  3.54378e-05   -2.365e-06   0.00352855 
          60     0.211984  4.03754e-05 -2.71773e-06   0.00352855 
          60     0.232655  4.50441e-05 -3.08708e-06   0.00352855 
          60     0.254285  4.93578e-05 -3.46962e-06   0.00352855 
          60     0.276877  5.33047e-05 -3.86208e-06   0.00352856 
          60     0.300431  5.68414e-05 -4.26109e-06   0.00352856 
          60     0.324946   5.9947e-05 -4.66382e-06   0.00352857 
          60     0.350424  6.26203e-05 -5.06787e-06   0.00352857 
          60     0.376861  6.48681e-05  -5.4711e-06   0.00352858 
          60      0.40426  6.67052e-05 -5.87194e-06   0.00352858 
          60     0.432621  6.81514e-05 -6.26927e-06   0.00352859 
          60     0.461945  6.92298e-05 -6.66254e-06   0.00352859 
          60     0.492228  6.99642e-05 -7.05164e-06    0.0035286 
          60     0.523472  7.03773e-05 -7.43693e-06   0.00352861 
          60     0.555678  7.04884e-05 -7.81896e-06   0.00352861 
          60     0.588845  7.03122e-05 -8.19811e-06   0.00352862 
          60     0.622976  6.98608e-05 -8.57427e-06   0.00352862 
          60     0.658066  6.91512e-05 -8.94938e-06   0.00352862 
          60     0.694117  6.81891e-05 -9.32313e-06   0.00352862 
          60      0.73113  6.69866e-05 -9.69505e-06   0.00352862 
          60     0.769107  6.55588e-05 -1.00645e-05   0.00352861 
          60     0.808042  6.39237e-05 -1.04306e-05   0.00352861 
          60     0.847939  6.21003e-05 -1.07922e-05   0.00352859 
          60     0.888797   6.0109e-05 -1.11481e-05   0.00352858 
          60      0.93062  5.79698e-05 -1.14968e-05   0.00352856 
          60       0.9734  5.57022e-05 -1.18365e-05   0.00352853 
          60      1.01714  5.33233e-05 -1.21656e-05    0.0035285 
          60      1.06185  5.08476e-05 -1.24822e-05   0.00352846 
          60      1.10751   4.8286e-05 -1.27849e-05   0.00352842 
          60      1.15414  4.56453e-05 -1.30721e-05   0.00352837 
          60      1.20173  4.29287e-05  -1.3343e-05   0.00352831 
          60      1.25028  4.01357e-05 -1.35971e-05   0.00352824 
          60      1.29979  3.72633e-05 -1.38352e-05   0.00352816 