Variables = x, y, u, v, p

Zone, I=416, F=POINT
         -50            0            0            0     -30.1051 
         -50     0.013333 -0.000206039 -7.04769e-08     -30.1051 
         -50     0.053333 -0.000202028 -3.99179e-07     -30.1051 
         -50         0.12  -0.00018538 -1.24621e-06     -30.1051 
         -50     0.213332 -0.000174986 -2.58743e-06     -30.1051 
         -50     0.333332 -0.000173674  -4.1338e-06      -30.105 
         -50         0.48 -0.000179662 -5.71437e-06      -30.105 
         -50     0.653331 -0.000189289 -7.38423e-06     -30.1049 
         -50     0.853332 -0.000198382 -9.08159e-06     -30.1047 
         -50         1.08 -0.000203224 -1.06218e-05     -30.1045 
         -50      1.33333 -0.000204021 -1.18559e-05     -30.1042 
         -50      1.61333  -0.00020118 -1.26771e-05     -30.1038 
         -50         1.92 -0.000198826 -1.39345e-05     -30.1032 
         -50      2.25333 -0.000200227 -1.42429e-05     -30.1026 
         -50      2.61333 -0.000191411 -1.04451e-05     -30.1017 
         -50            3 -0.000187167 -9.81578e-06     -30.1006 
         -25            0 -1.51003e-19 -9.63122e-24     -28.8872 
         -25     0.013333 -0.000151019  -2.3104e-09     -28.8872 
         -25     0.053333 -0.000155838  1.97922e-07     -28.8872 
         -25         0.12 -0.000162592  9.48013e-07     -28.8872 
         -25     0.213332 -0.000176749  2.35611e-06     -28.8872 
         -25     0.333332 -0.000189289  4.25371e-06     -28.8871 
         -25         0.48 -0.000195694  6.54369e-06     -28.8871 
         -25     0.653331 -0.000193091  9.35819e-06     -28.8871 
         -25     0.853332 -0.000181024  1.27002e-05      -28.887 
         -25         1.08 -0.000166822  1.60347e-05     -28.8869 
         -25      1.33333 -0.000156463  1.86619e-05     -28.8868 
         -25      1.61333 -0.000145444  2.03095e-05     -28.8867 
         -25         1.92 -0.000135315   2.0574e-05     -28.8864 
         -25      2.25333 -0.000132363  1.91561e-05     -28.8862 
         -25      2.61333 -0.000136651  1.62036e-05     -28.8858 
         -25            3 -0.000141798  1.19906e-05     -28.8854 
           0            0  -1.2407e-19 -4.63032e-24     -27.9307 
           0     0.013333  -0.00011972 -9.61513e-09     -27.9307 
           0     0.053333 -0.000103575  -4.3495e-09     -27.9307 
           0         0.12 -8.17624e-05  1.76241e-07     -27.9307 
           0     0.213332 -6.99684e-05  8.42375e-07     -27.9307 
           0     0.333332 -6.58426e-05  2.22414e-06     -27.9307 
           0         0.48 -6.29509e-05  4.30301e-06     -27.9307 
           0     0.653331  -5.8946e-05  6.83089e-06     -27.9307 
           0     0.853332 -5.85121e-05  9.35956e-06     -27.9306 
           0         1.08  -6.5642e-05  1.14886e-05     -27.9306 
           0      1.33333 -7.79238e-05  1.31172e-05     -27.9305 
           0      1.61333 -9.30012e-05  1.41608e-05     -27.9305 
           0         1.92 -0.000105972  1.45304e-05     -27.9304 
           0      2.25333 -0.000112013  1.44265e-05     -27.9302 
           0      2.61333 -0.000110689  1.43279e-05     -27.9301 
           0            3  -0.00010897  1.30408e-05     -27.9299 
          20            0 -1.14283e-19 -2.76947e-24     -27.2571 
          20     0.013333 -0.000110759 -1.48776e-08     -27.2571 
          20     0.053333  -9.5924e-05 -1.39005e-07     -27.2571 
          20         0.12 -7.06882e-05 -4.92236e-07     -27.2571 
          20     0.213332 -5.12699e-05 -9.81788e-07     -27.2571 
          20     0.333332 -4.29969e-05 -1.26166e-06     -27.2571 
          20         0.48 -4.34608e-05 -9.84164e-07     -27.2571 
          20     0.653331 -4.61467e-05 -4.66918e-08     -27.2571 
          20     0.853332 -4.91083e-05  1.36266e-06      -27.257 
          20         1.08 -5.60006e-05  2.90536e-06      -27.257 
          20      1.33333 -6.80092e-05  4.31859e-06      -27.257 
          20      1.61333 -8.29997e-05  5.63451e-06     -27.2569 
          20         1.92  -9.7673e-05  6.45244e-06     -27.2569 
          20      2.25333 -0.000114424  6.64625e-06     -27.2568 
          20      2.61333 -0.000131139  6.30976e-06     -27.2567 
          20            3  -0.00013962   3.5801e-06     -27.2566 
          40            0 -1.12499e-19  -1.7141e-24     -26.6292 
          40     0.013333 -0.000115866 -2.78844e-08     -26.6292 
          40     0.053333 -0.000125671 -3.79657e-07     -26.6292 
          40         0.12 -0.000117894  -1.7089e-06     -26.6292 
          40     0.213332 -9.50472e-05 -4.57601e-06     -26.6292 
          40     0.333332 -6.75985e-05 -9.01223e-06     -26.6292 
          40         0.48 -4.89495e-05 -1.46444e-05     -26.6292 
          40     0.653331 -4.50972e-05 -2.11277e-05     -26.6292 
          40     0.853332 -5.43105e-05 -2.81642e-05     -26.6292 
          40         1.08 -6.77672e-05  -3.5151e-05     -26.6292 
          40      1.33333 -7.69064e-05 -4.13432e-05     -26.6292 
          40      1.61333 -8.92584e-05 -4.59465e-05     -26.6291 
          40         1.92 -9.94444e-05 -4.83314e-05     -26.6291 
          40      2.25333 -0.000104972 -4.84577e-05      -26.629 
          40      2.61333  -0.00010989 -4.62962e-05      -26.629 
          40            3 -0.000104946 -4.12798e-05     -26.6289 
          60            0            0            0     -26.0296 
          60     0.013333 -0.000120204 -9.80015e-09     -26.0296 
          60     0.053333 -0.000154735 -1.46977e-07     -26.0296 
          60         0.12 -0.000183369 -8.13819e-07     -26.0296 
          60     0.213332 -0.000195791 -2.62641e-06     -26.0296 
          60     0.333332 -0.000191419 -5.99995e-06     -26.0296 
          60         0.48 -0.000182626 -1.08868e-05     -26.0296 
          60     0.653331  -0.00017889 -1.69105e-05     -26.0296 
          60     0.853332  -0.00017821  -2.3455e-05     -26.0296 
          60         1.08 -0.000171409 -2.96894e-05     -26.0296 
          60      1.33333 -0.000155025 -3.49947e-05     -26.0296 
          60      1.61333 -0.000135695  -3.9004e-05     -26.0296 
          60         1.92 -0.000118464  -4.1113e-05     -26.0295 
          60      2.25333 -0.000106938 -4.14103e-05     -26.0295 
          60      2.61333 -9.84349e-05 -3.97223e-05     -26.0295 
          60            3 -9.15741e-05 -3.61809e-05     -26.0294 
          80            0            0            0     -25.4478 
          80     0.013333 -0.000116349  1.72603e-08     -25.4478 
          80     0.053333 -0.000153967  2.43985e-07     -25.4478 
          80         0.12 -0.000200639  8.95751e-07     -25.4478 
          80     0.213332 -0.000242515  1.73461e-06     -25.4478 
          80     0.333332 -0.000263906    2.121e-06     -25.4478 
          80         0.48 -0.000267125   1.5904e-06     -25.4478 
          80     0.653331  -0.00026183  2.17878e-07     -25.4478 
          80     0.853332 -0.000250345 -1.51959e-06     -25.4478 
          80         1.08 -0.000229536 -3.12465e-06     -25.4478 
          80      1.33333 -0.000200846 -4.50692e-06     -25.4478 
          80      1.61333 -0.000164413 -5.68487e-06     -25.4478 
          80         1.92 -0.000127879 -6.53904e-06     -25.4478 
          80      2.25333 -9.54793e-05 -6.93404e-06     -25.4478 
          80      2.61333 -6.46734e-05 -6.94966e-06     -25.4477 
          80            3 -5.03125e-05 -7.24344e-06     -25.4477 
         100            0 -1.00818e-19 -4.46181e-25     -24.8774 
         100     0.013333 -0.000100025  3.39929e-08     -24.8774 
         100     0.053333 -0.000105226  5.13192e-07     -24.8774 
         100         0.12 -0.000127353  2.25543e-06     -24.8774 
         100     0.213332 -0.000169591  5.78336e-06     -24.8774 
         100     0.333332  -0.00021132  1.08743e-05     -24.8774 
         100         0.48 -0.000237247  1.69399e-05     -24.8774 
         100     0.653331 -0.000243836  2.36614e-05     -24.8774 
         100     0.853332 -0.000232432  3.09793e-05     -24.8774 
         100         1.08 -0.000210379  3.84933e-05     -24.8774 
         100      1.33333 -0.000189159  4.53653e-05     -24.8774 
         100      1.61333 -0.000160457  5.07518e-05     -24.8774 
         100         1.92 -0.000128423  5.40561e-05     -24.8774 
         100      2.25333 -0.000101136  5.48981e-05     -24.8773 
         100      2.61333 -7.83121e-05  5.33031e-05     -24.8773 
         100            3 -6.99899e-05  4.92978e-05     -24.8773 
         150            0           -0           -0      -23.478 
         150     0.013333 -0.000112201  9.39145e-09      -23.478 
         150     0.053333 -0.000145541  1.10584e-07      -23.478 
         150         0.12  -0.00017997   2.7957e-07      -23.478 
         150     0.213332 -0.000201667  8.26867e-08      -23.478 
         150     0.333332 -0.000201098 -1.08851e-06      -23.478 
         150         0.48 -0.000187036 -3.46005e-06      -23.478 
         150     0.653331 -0.000172093 -6.72343e-06      -23.478 
         150     0.853332 -0.000159897 -1.03253e-05      -23.478 
         150         1.08 -0.000148371 -1.38212e-05      -23.478 
         150      1.33333 -0.000137126 -1.70683e-05      -23.478 
         150      1.61333 -0.000125668 -1.99601e-05     -23.4779 
         150         1.92 -0.000113153 -2.20828e-05     -23.4779 
         150      2.25333 -9.98754e-05 -2.32766e-05     -23.4779 
         150      2.61333 -8.44501e-05 -2.34169e-05     -23.4779 
         150            3 -7.28585e-05 -2.29836e-05     -23.4779 
         200            0           -0           -0     -22.0951 
         200     0.013333 -0.000127174 -2.05462e-08     -22.0951 
         200     0.053333 -0.000192483 -3.58628e-07     -22.0951 
         200         0.12 -0.000245435 -1.93026e-06     -22.0951 
         200     0.213332 -0.000257664  -6.0228e-06     -22.0951 
         200     0.333332 -0.000231869 -1.34043e-05     -22.0951 
         200         0.48 -0.000197542 -2.38455e-05     -22.0951 
         200     0.653331  -0.00017851 -3.65555e-05     -22.0951 
         200     0.853332 -0.000176557 -5.05155e-05     -22.0951 
         200         1.08 -0.000174887 -6.43375e-05     -22.0951 
         200      1.33333 -0.000159267 -7.67924e-05     -22.0951 
         200      1.61333 -0.000141195 -8.71465e-05     -22.0951 
         200         1.92 -0.000125279  -9.4383e-05     -22.0951 
         200      2.25333 -0.000112267 -9.81048e-05     -22.0951 
         200      2.61333 -0.000103276 -9.79021e-05     -22.0951 
         200            3 -9.70319e-05 -9.39832e-05     -22.0951 
         250            0            0            0     -20.7172 
         250     0.013333 -7.93844e-05 -3.24299e-09     -20.7172 
         250     0.053333 -3.13494e-05 -2.16181e-09     -20.7172 
         250         0.12  2.21371e-05  2.95111e-07     -20.7172 
         250     0.213332  4.47324e-05  1.71994e-06     -20.7172 
         250     0.333332  3.03039e-05  5.17047e-06     -20.7172 
         250         0.48  -1.4511e-06  1.08238e-05     -20.7172 
         250     0.653331 -2.89174e-05  1.80325e-05     -20.7172 
         250     0.853332 -4.72651e-05  2.58458e-05     -20.7172 
         250         1.08 -6.19761e-05  3.35502e-05     -20.7172 
         250      1.33333 -7.53968e-05  4.09351e-05     -20.7172 
         250      1.61333 -8.61524e-05  4.77927e-05     -20.7172 
         250         1.92 -9.76654e-05  5.33078e-05     -20.7172 
         250      2.25333 -0.000109867  5.71258e-05     -20.7172 
         250      2.61333 -0.000119591  5.87906e-05     -20.7172 
         250            3 -0.000124566  5.83864e-05     -20.7172 
         300            0           -0           -0     -19.3405 
         300     0.013333 -6.40372e-05   -3.542e-08     -19.3405 
         300     0.053333  3.19254e-05 -4.53253e-07     -19.3405 
         300         0.12  0.000162004 -1.54256e-06     -19.3405 
         300     0.213332  0.000269163 -2.61611e-06     -19.3405 
         300     0.333332  0.000321897 -2.29475e-06     -19.3405 
         300         0.48  0.000329763  2.43284e-07     -19.3405 
         300     0.653331  0.000319816  4.61888e-06     -19.3405 
         300     0.853332  0.000300764  9.54476e-06     -19.3405 
         300         1.08  0.000260484  1.35456e-05     -19.3405 
         300      1.33333  0.000197183  1.61547e-05     -19.3405 
         300      1.61333  0.000123507  1.79944e-05     -19.3405 
         300         1.92  4.88251e-05  1.90856e-05     -19.3405 
         300      2.25333 -2.38057e-05  1.95417e-05     -19.3405 
         300      2.61333 -9.75845e-05  1.92094e-05     -19.3405 
         300            3  -0.00015297  1.80876e-05     -19.3405 
         350            0 -1.00725e-19   3.0897e-27      -17.964 
         350     0.013333 -0.000102883 -2.20233e-08      -17.964 
         350     0.053333 -0.000107814 -3.24938e-07      -17.964 
         350         0.12 -9.48383e-05 -1.43933e-06      -17.964 
         350     0.213332 -6.52688e-05 -3.80378e-06      -17.964 
         350     0.333332 -2.61461e-05 -7.51317e-06      -17.964 
         350         0.48  1.08158e-05 -1.23776e-05      -17.964 
         350     0.653331  3.76976e-05 -1.81791e-05      -17.964 
         350     0.853332  4.91402e-05 -2.49262e-05      -17.964 
         350         1.08   4.0794e-05 -3.27682e-05      -17.964 
         350      1.33333  1.93718e-05 -4.13482e-05      -17.964 
         350      1.61333 -4.88507e-06 -4.96254e-05      -17.964 
         350         1.92 -2.71845e-05 -5.67095e-05      -17.964 
         350      2.25333 -4.83888e-05 -6.21387e-05      -17.964 
         350      2.61333 -7.34728e-05  -6.5432e-05      -17.964 
         350            3 -9.60091e-05 -6.64814e-05      -17.964 
         400            0           -0           -0     -16.5872 
         400     0.013333 -6.41782e-05  7.66744e-08     -16.5872 
         400     0.053333  6.09292e-07  1.20252e-06     -16.5872 
         400         0.12  2.05834e-05  5.74604e-06     -16.5872 
         400     0.213332 -5.13856e-05  1.62274e-05     -16.5872 
         400     0.333332 -0.000175985  3.34479e-05     -16.5872 
         400         0.48 -0.000281034  5.60734e-05     -16.5872 
         400     0.653331 -0.000325776  8.21439e-05     -16.5872 
         400     0.853332 -0.000312919  0.000110241     -16.5872 
         400         1.08 -0.000271644  0.000138951     -16.5872 
         400      1.33333 -0.000238026  0.000166352     -16.5872 
         400      1.61333 -0.000209535  0.000190701     -16.5872 
         400         1.92 -0.000180077  0.000210564     -16.5872 
         400      2.25333 -0.000151326    0.0002247     -16.5872 
         400      2.61333 -0.000117268  0.000231702     -16.5872 
         400            3 -9.16651e-05  0.000230842     -16.5872 
         450            0           -0           -0     -15.2094 
         450     0.013333 -4.21145e-05 -6.67395e-08     -15.2094 
         450     0.053333  0.000119722 -8.89713e-07     -15.2094 
         450         0.12  0.000348936 -3.28521e-06     -15.2094 
         450     0.213332  0.000556824 -6.53772e-06     -15.2094 
         450     0.333332  0.000676874 -8.48337e-06     -15.2094 
         450         0.48  0.000709163 -7.42985e-06     -15.2094 
         450     0.653331  0.000697508 -3.52271e-06     -15.2094 
         450     0.853332  0.000667351  1.45681e-06     -15.2094 
         450         1.08  0.000603805  5.11614e-06     -15.2094 
         450      1.33333  0.000495737  6.31392e-06     -15.2094 
         450      1.61333  0.000367465  6.10186e-06     -15.2094 
         450         1.92  0.000242462  5.45705e-06     -15.2094 
         450      2.25333   0.00011981   4.7522e-06     -15.2094 
         450      2.61333 -8.65513e-06  3.89782e-06     -15.2094 
         450            3 -0.000118573  2.80347e-06     -15.2095 
         500            0           -0           -0     -13.8312 
         500     0.013333 -9.21028e-05  -3.8008e-08     -13.8312 
         500     0.053333 -6.53372e-05 -5.49596e-07     -13.8312 
         500         0.12 -8.50238e-06 -2.32048e-06     -13.8312 
         500     0.213332  5.45163e-05 -5.61224e-06     -13.8312 
         500     0.333332  9.32589e-05 -9.70588e-06     -13.8312 
         500         0.48    9.415e-05 -1.35866e-05     -13.8312 
         500     0.653331  6.80289e-05  -1.6959e-05     -13.8312 
         500     0.853332  2.83699e-05 -2.03423e-05     -13.8312 
         500         1.08 -1.75668e-05  -2.4162e-05     -13.8312 
         500      1.33333 -5.52864e-05 -2.78206e-05     -13.8312 
         500      1.61333 -7.48891e-05  -3.0241e-05     -13.8312 
         500         1.92 -8.63786e-05   -3.127e-05     -13.8312 
         500      2.25333 -9.79308e-05  -3.1148e-05     -13.8312 
         500      2.61333 -0.000109718 -2.98965e-05     -13.8312 
         500            3 -0.000117178  -2.7501e-05     -13.8312 
         550            0           -0           -0     -12.4521 
         550     0.013333 -0.000174205  2.79368e-08     -12.4521 
         550     0.053333 -0.000376113   3.1592e-07     -12.4521 
         550         0.12 -0.000624684  7.35531e-07     -12.4521 
         550     0.213332 -0.000823003 -2.41689e-07     -12.4521 
         550     0.333332 -0.000904831 -5.07023e-06     -12.4521 
         550         0.48 -0.000885366  -1.5349e-05     -12.4521 
         550     0.653331 -0.000826728 -3.08085e-05     -12.4521 
         550     0.853332   -0.0007729 -4.97861e-05     -12.4521 
         550         1.08 -0.000721524 -7.00291e-05     -12.4521 
         550      1.33333 -0.000646932 -8.94893e-05     -12.4521 
         550      1.61333 -0.000547083 -0.000107151     -12.4521 
         550         1.92 -0.000439134 -0.000122619     -12.4521 
         550      2.25333 -0.000327701  -0.00013546     -12.4521 
         550      2.61333 -0.000211067 -0.000144681     -12.4521 
         550            3   -0.0001019 -0.000149372     -12.4521 
         600            0           -0           -0     -11.0714 
         600     0.013333 -2.00302e-05 -9.67376e-08     -11.0714 
         600     0.053333  0.000213697 -1.35777e-06     -11.0714 
         600         0.12  0.000568806 -5.49077e-06     -11.0714 
         600     0.213332  0.000934975 -1.25665e-05     -11.0714 
         600     0.333332   0.00119309 -2.01424e-05     -11.0714 
         600         0.48   0.00129596 -2.50292e-05     -11.0714 
         600     0.653331   0.00128416 -2.56981e-05     -11.0714 
         600     0.853332    0.0012184 -2.29228e-05     -11.0714 
         600         1.08   0.00112136 -1.87201e-05     -11.0714 
         600      1.33333  0.000986506  -1.4778e-05     -11.0714 
         600      1.61333  0.000815463 -1.15067e-05     -11.0714 
         600         1.92  0.000628575 -8.59389e-06     -11.0714 
         600      2.25333  0.000432984 -5.53656e-06     -11.0714 
         600      2.61333  0.000222069  -2.5346e-06     -11.0714 
         600            3  1.88501e-05  2.03663e-07     -11.0714 
         650            0            0            0     -9.69106 
         650     0.013333 -8.53531e-05   1.7358e-07     -9.69106 
         650     0.053333 -0.000104795  2.60671e-06     -9.69106 
         650         0.12 -0.000260466  1.17904e-05     -9.69106 
         650     0.213332 -0.000578273  3.15873e-05     -9.69106 
         650     0.333332  -0.00094888  6.23205e-05     -9.69106 
         650         0.48  -0.00123636  0.000100976     -9.69106 
         650     0.653331  -0.00138165   0.00014419     -9.69106 
         650     0.853332  -0.00139603  0.000190599     -9.69106 
         650         1.08  -0.00130537  0.000240307     -9.69106 
         650      1.33333  -0.00114707  0.000292376     -9.69106 
         650      1.61333 -0.000966849  0.000343531     -9.69106 
         650         1.92 -0.000795925    0.0003901     -9.69106 
         650      2.25333 -0.000625828  0.000429285     -9.69105 
         650      2.61333 -0.000433724  0.000458521     -9.69104 
         650            3 -0.000247457  0.000475336     -9.69103 
         700            0           -0           -0     -8.30914 
         700     0.013333 -0.000203725 -5.02612e-08     -8.30914 
         700     0.053333  -0.00046259 -8.50516e-07     -8.30914 
         700         0.12 -0.000735362 -4.49138e-06     -8.30914 
         700     0.213332 -0.000898134 -1.41294e-05     -8.30914 
         700     0.333332 -0.000910368 -3.24015e-05     -8.30914 
         700         0.48 -0.000829049 -5.99509e-05     -8.30914 
         700     0.653331   -0.0007396  -9.5644e-05     -8.30914 
         700     0.853332  -0.00069417 -0.000137777     -8.30914 
         700         1.08 -0.000693978  -0.00018439     -8.30914 
         700      1.33333   -0.0006946 -0.000232604     -8.30914 
         700      1.61333 -0.000652148 -0.000278815     -8.30914 
         700         1.92 -0.000566559 -0.000320327     -8.30914 
         700      2.25333 -0.000461947 -0.000355624     -8.30914 
         700      2.61333 -0.000351482 -0.000382752     -8.30913 
         700            3 -0.000235081 -0.000399448     -8.30913 
         750            0           -0           -0     -6.92633 
         750     0.013333 -9.40305e-05 -7.28182e-09     -6.92633 
         750     0.053333  -8.0573e-05 -8.88158e-08     -6.92633 
         750         0.12  -5.8672e-05 -2.82739e-07     -6.92633 
         750     0.213332 -3.98447e-05 -4.70317e-07     -6.92632 
         750     0.333332 -2.18658e-05 -5.72888e-07     -6.92632 
         750         0.48  2.30942e-06 -7.89626e-07     -6.92632 
         750     0.653331  3.55333e-05 -1.48205e-06     -6.92632 
         750     0.853332  7.13105e-05 -2.98977e-06     -6.92632 
         750         1.08   9.4546e-05 -5.76905e-06     -6.92632 
         750      1.33333  8.92197e-05 -1.04042e-05     -6.92632 
         750      1.61333   5.7266e-05 -1.69407e-05     -6.92633 
         750         1.92  2.11926e-05  -2.4518e-05     -6.92633 
         750      2.25333 -8.99351e-06 -3.21604e-05     -6.92633 
         750      2.61333 -3.91956e-05 -3.94078e-05     -6.92633 
         750            3 -6.82919e-05 -4.58655e-05     -6.92633 
         800            0            0            0     -5.54295 
         800     0.013333 -0.000144782 -7.76342e-08     -5.54295 
         800     0.053333 -0.000237398 -1.22601e-06     -5.54295 
         800         0.12 -0.000273763 -5.94857e-06     -5.54295 
         800     0.213332 -0.000192621 -1.72194e-05     -5.54295 
         800     0.333332 -1.73833e-05 -3.65868e-05     -5.54295 
         800         0.48  0.000163621 -6.31648e-05     -5.54295 
         800     0.653331  0.000277316 -9.46811e-05     -5.54295 
         800     0.853332  0.000305855 -0.000129172     -5.54295 
         800         1.08  0.000272411 -0.000165267     -5.54295 
         800      1.33333  0.000219344 -0.000201356     -5.54295 
         800      1.61333  0.000175632  -0.00023558     -5.54295 
         800         1.92  0.000140066 -0.000266678     -5.54295 
         800      2.25333  0.000101367  -0.00029362     -5.54295 
         800      2.61333  5.32325e-05 -0.000314882     -5.54295 
         800            3  3.26249e-06 -0.000328731     -5.54295 
         850            0            0            0     -4.15854 
         850     0.013333  6.20819e-06  7.90377e-09     -4.15854 
         850     0.053333    0.0002757    2.439e-07     -4.15854 
         850         0.12  0.000590148   1.9457e-06     -4.15854 
         850     0.213332  0.000803168  7.91155e-06     -4.15854 
         850     0.333332  0.000852663  2.12276e-05     -4.15854 
         850         0.48   0.00078768  4.30937e-05     -4.15854 
         850     0.653331   0.00070469  7.22447e-05     -4.15854 
         850     0.853332  0.000662864   0.00010614     -4.15854 
         850         1.08  0.000652396  0.000141826     -4.15854 
         850      1.33333  0.000617686  0.000176113     -4.15854 
         850      1.61333  0.000527135  0.000206685     -4.15854 
         850         1.92  0.000409287  0.000233222     -4.15855 
         850      2.25333  0.000291145  0.000255906     -4.15855 
         850      2.61333  0.000170768    0.0002737     -4.15856 
         850            3  4.65045e-05  0.000285052     -4.15856 
         900            0            0            0     -2.77395 
         900     0.013333 -0.000198486  7.41892e-08     -2.77395 
         900     0.053333 -0.000480159   9.9413e-07     -2.77395 
         900         0.12 -0.000867958  3.67675e-06     -2.77395 
         900     0.213332  -0.00123335  7.15085e-06     -2.77395 
         900     0.333332  -0.00144937  8.28485e-06     -2.77395 
         900         0.48  -0.00148995  4.05026e-06     -2.77395 
         900     0.653331   -0.0014263 -6.17946e-06     -2.77395 
         900     0.853332   -0.0013377 -2.04766e-05     -2.77395 
         900         1.08  -0.00124272 -3.56475e-05     -2.77395 
         900      1.33333   -0.0011134 -4.88462e-05     -2.77395 
         900      1.61333 -0.000945669  -5.9276e-05     -2.77395 
         900         1.92 -0.000777279 -6.81942e-05     -2.77395 
         900      2.25333 -0.000619366 -7.65737e-05     -2.77394 
         900      2.61333 -0.000454929 -8.39364e-05     -2.77393 
         900            3 -0.000285411 -8.95573e-05     -2.77392 
         950            0            0            0     -1.38709 
         950     0.013333 -0.000155377 -1.36712e-07     -1.38709 
         950     0.053333 -0.000258008 -2.10547e-06     -1.38709 
         950         0.12 -0.000263229 -9.89475e-06     -1.38709 
         950     0.213332 -9.37183e-05 -2.77861e-05     -1.38709 
         950     0.333332  0.000203203 -5.76658e-05     -1.38709 
         950         0.48  0.000499865 -9.80653e-05     -1.38709 
         950     0.653331  0.000698064 -0.000145895     -1.38709 
         950     0.853332  0.000771982 -0.000198884     -1.38709 
         950         1.08  0.000736555 -0.000256186     -1.38709 
         950      1.33333  0.000627246 -0.000316772     -1.38709 
         950      1.61333  0.000499204 -0.000377703     -1.38709 
         950         1.92  0.000399758 -0.000435394     -1.38709 
         950      2.25333  0.000317805 -0.000487082     -1.38709 
         950      2.61333  0.000224802 -0.000530054     -1.38709 
         950            3  0.000123964 -0.000562462      -1.3871 
        1000            0            0            0            0 
        1000     0.013333 -0.000196017  5.30621e-06           -0 
        1000     0.053333   -0.0004488  2.33108e-05           -0 
        1000         0.12 -0.000657452  6.94448e-05 -1.15257e-16 
        1000     0.213332 -0.000764726  0.000232006 -1.36728e-15 
        1000     0.333332 -0.000928837  0.000804625 -7.54231e-16 
        1000         0.48   0.00110066   0.00114516           -0 
        1000     0.653331  0.000630869   0.00113004            0 
        1000     0.853332   0.00110994   0.00195178            0 
        1000         1.08    0.0027747   0.00244698            0 
        1000      1.33333   0.00887852    0.0019419 -8.85817e-16 
        1000      1.61333    0.0035622 -0.000528609           -0 
        1000         1.92   0.00253006 -7.81073e-05 -1.63551e-15 
        1000      2.25333   0.00312854  0.000137558  -1.8174e-15 
        1000      2.61333   0.00466479  -0.00113573           -0 
        1000            3   0.00126997   -0.0013049 -1.64302e-15 
