Variables = x, y, u, v, p

Zone, I=2080, F=POINT
         -50            0            0            0      13.9788 
         -50      0.00048  1.57364e-05  1.39684e-09      13.9788 
         -50     0.001922  5.61984e-05  5.33293e-09      13.9788 
         -50     0.004326  0.000104329  1.11343e-08      13.9788 
         -50      0.00769  0.000141388  1.79734e-08      13.9788 
         -50     0.012017  0.000156506  2.51476e-08      13.9788 
         -50     0.017304   0.00015183  3.21436e-08      13.9788 
         -50     0.023553  0.000140133   3.8452e-08      13.9788 
         -50     0.030763  0.000135107  4.31083e-08      13.9788 
         -50     0.038936  0.000140097  4.42628e-08      13.9788 
         -50     0.048069  0.000144752  3.91585e-08      13.9788 
         -50     0.058163  0.000137389  2.48655e-08      13.9788 
         -50     0.069219  0.000127283 -4.35176e-10      13.9788 
         -50     0.081236  0.000137328 -3.71164e-08      13.9788 
         -50     0.094215  0.000128701 -8.79815e-08      13.9788 
         -50     0.108155  0.000130523 -1.55754e-07      13.9788 
         -50     0.123056  0.000129974 -2.41609e-07      13.9788 
         -50     0.138918  0.000129292 -3.47007e-07      13.9788 
         -50     0.155744  0.000129346 -4.73196e-07      13.9788 
         -50     0.173529  0.000129916 -6.21051e-07      13.9788 
         -50     0.192276  0.000130368 -7.91141e-07      13.9788 
         -50     0.211984  0.000130495  -9.8359e-07      13.9788 
         -50     0.232655  0.000130918 -1.19816e-06      13.9788 
         -50     0.254285  0.000132024  -1.4343e-06      13.9788 
         -50     0.276877  0.000132345 -1.69173e-06      13.9788 
         -50     0.300431  0.000133154 -1.96863e-06      13.9788 
         -50     0.324946  0.000133844 -2.26442e-06      13.9788 
         -50     0.350424  0.000134455 -2.57845e-06      13.9788 
         -50     0.376861  0.000134995 -2.90919e-06      13.9788 
         -50      0.40426  0.000135451 -3.25467e-06      13.9788 
         -50     0.432621    0.0001358 -3.61271e-06      13.9788 
         -50     0.461945  0.000136021 -3.98132e-06      13.9788 
         -50     0.492228  0.000136111 -4.35883e-06      13.9788 
         -50     0.523472  0.000136087 -4.74397e-06      13.9787 
         -50     0.555678  0.000135987 -5.13511e-06      13.9787 
         -50     0.588845  0.000135838 -5.52877e-06      13.9787 
         -50     0.622976  0.000135611 -5.91744e-06      13.9787 
         -50     0.658066  0.000135392 -6.30874e-06      13.9787 
         -50     0.694117  0.000135164 -6.69674e-06      13.9787 
         -50      0.73113  0.000134948 -7.07733e-06      13.9787 
         -50     0.769107  0.000134759 -7.44798e-06      13.9787 
         -50     0.808042  0.000134601  -7.8074e-06      13.9787 
         -50     0.847939  0.000134473 -8.15516e-06      13.9786 
         -50     0.888797  0.000134369 -8.49112e-06      13.9786 
         -50      0.93062  0.000134283 -8.81494e-06      13.9786 
         -50       0.9734  0.000134206 -9.12551e-06      13.9786 
         -50      1.01714  0.000134136 -9.42079e-06      13.9786 
         -50      1.06185  0.000134073  -9.6976e-06      13.9786 
         -50      1.10751  0.000134028 -9.95217e-06      13.9785 
         -50      1.15414  0.000134018  -1.0181e-05      13.9785 
         -50      1.20173  0.000134069  -1.0383e-05      13.9785 
         -50      1.25028  0.000134212  -1.0562e-05      13.9785 
         -50      1.29979  0.000134478 -1.07319e-05      13.9784 
         -50      1.35026  0.000134905   -1.082e-05      13.9784 
         -50       1.4017  0.000135296 -1.08627e-05      13.9784 
         -50      1.45409  0.000135694  -1.0966e-05      13.9783 
         -50      1.50745  0.000136253 -1.10482e-05      13.9783 
         -50      1.56176  0.000137045 -1.10607e-05      13.9783 
         -50      1.61705  0.000138074 -1.09847e-05      13.9782 
         -50      1.67329  0.000139284 -1.08263e-05      13.9782 
         -50      1.73049  0.000140572 -1.06109e-05      13.9781 
         -50      1.78865  0.000141803 -1.03766e-05      13.9781 
         -50      1.84778   0.00014283 -1.01671e-05       13.978 
         -50      1.90786  0.000143508 -1.00238e-05       13.978 
         -50      1.96891  0.000143712 -9.97856e-06      13.9779 
         -50      2.03092  0.000143358 -1.00465e-05      13.9779 
         -50      2.09389  0.000142416 -1.02199e-05      13.9778 
         -50      2.15782  0.000140925 -1.04638e-05      13.9777 
         -50      2.22272  0.000138997  -1.0714e-05      13.9777 
         -50      2.28857  0.000136822 -1.08786e-05      13.9776 
         -50      2.35539  0.000134658 -1.08437e-05      13.9775 
         -50      2.42317  0.000132814 -1.04843e-05      13.9775 
         -50      2.49191  0.000131615 -9.68325e-06      13.9774 
         -50      2.56161  0.000131348 -8.35759e-06      13.9773 
         -50      2.63226  0.000132196  -6.4954e-06      13.9772 
         -50      2.70389  0.000134136 -4.20475e-06      13.9771 
         -50      2.77648  0.000136515 -1.53506e-06       13.977 
         -50      2.85002   0.00013873  1.30314e-06       13.977 
         -50      2.92453  0.000141036  3.97628e-06      13.9769 
         -50            3  0.000143208  6.58969e-06      13.9768 
         -25            0  1.22992e-19  5.70888e-24      13.4106 
         -25      0.00048   1.1546e-05  5.49286e-10      13.4106 
         -25     0.001922  4.12655e-05  2.11904e-09      13.4106 
         -25     0.004326  7.67227e-05  4.50891e-09      13.4106 
         -25      0.00769  0.000104251  7.49676e-09      13.4106 
         -25     0.012017  0.000115913  1.09428e-08      13.4106 
         -25     0.017304  0.000113253  1.48051e-08      13.4106 
         -25     0.023553  0.000105556  1.90576e-08      13.4106 
         -25     0.030763  0.000102775  2.34957e-08      13.4106 
         -25     0.038936  0.000107327  2.75545e-08      13.4106 
         -25     0.048069  0.000111649  3.02808e-08      13.4106 
         -25     0.058163  0.000107213  3.06094e-08      13.4106 
         -25     0.069219  0.000100761  2.78524e-08      13.4106 
         -25     0.081236  0.000108956  2.18208e-08      13.4106 
         -25     0.094215  0.000103502  1.13053e-08      13.4106 
         -25     0.108155  0.000105611 -4.95348e-09      13.4106 
         -25     0.123056   0.00010594 -2.76534e-08      13.4106 
         -25     0.138918  0.000106119 -5.76556e-08      13.4106 
         -25     0.155744  0.000106788 -9.57664e-08      13.4106 
         -25     0.173529   0.00010779 -1.42653e-07      13.4106 
         -25     0.192276  0.000108672 -1.98816e-07      13.4106 
         -25     0.211984  0.000109292  -2.6451e-07      13.4106 
         -25     0.232655  0.000110111 -3.39754e-07      13.4106 
         -25     0.254285  0.000111418 -4.24365e-07      13.4106 
         -25     0.276877  0.000112152 -5.17934e-07      13.4106 
         -25     0.300431  0.000113245 -6.19597e-07      13.4106 
         -25     0.324946  0.000114262 -7.28985e-07      13.4106 
         -25     0.350424  0.000115234 -8.45302e-07      13.4106 
         -25     0.376861  0.000116172  -9.6744e-07      13.4106 
         -25      0.40426  0.000117067 -1.09419e-06      13.4106 
         -25     0.432621  0.000117901 -1.22435e-06      13.4106 
         -25     0.461945  0.000118657 -1.35696e-06      13.4106 
         -25     0.492228  0.000119324 -1.49128e-06      13.4106 
         -25     0.523472  0.000119906 -1.62689e-06      13.4106 
         -25     0.555678  0.000120416 -1.76329e-06      13.4106 
         -25     0.588845  0.000120858 -1.89929e-06      13.4106 
         -25     0.622976  0.000121194 -2.03245e-06      13.4106 
         -25     0.658066  0.000121477 -2.17017e-06      13.4106 
         -25     0.694117   0.00012167 -2.30279e-06      13.4106 
         -25      0.73113  0.000121779 -2.43205e-06      13.4106 
         -25     0.769107  0.000121805 -2.55932e-06      13.4106 
         -25     0.808042   0.00012175 -2.68552e-06      13.4106 
         -25     0.847939  0.000121612  -2.8112e-06      13.4106 
         -25     0.888797   0.00012139 -2.93652e-06      13.4106 
         -25      0.93062   0.00012108 -3.06135e-06      13.4105 
         -25       0.9734  0.000120681 -3.18526e-06      13.4105 
         -25      1.01714  0.000120193  -3.3077e-06      13.4105 
         -25      1.06185  0.000119616 -3.42798e-06      13.4105 
         -25      1.10751  0.000118955 -3.54547e-06      13.4105 
         -25      1.15414  0.000118214 -3.65955e-06      13.4105 
         -25      1.20173  0.000117399 -3.76968e-06      13.4105 
         -25      1.25028  0.000116513  -3.8754e-06      13.4105 
         -25      1.29979  0.000115553 -3.97616e-06      13.4105 
         -25      1.35026  0.000114599 -4.07867e-06      13.4105 
         -25       1.4017  0.000113498 -4.17431e-06      13.4104 
         -25      1.45409  0.000112194 -4.24684e-06      13.4104 
         -25      1.50745  0.000110865 -4.29877e-06      13.4104 
         -25      1.56176  0.000109627 -4.33347e-06      13.4104 
         -25      1.61705   0.00010854   -4.355e-06      13.4104 
         -25      1.67329  0.000107613 -4.36793e-06      13.4104 
         -25      1.73049  0.000106813   -4.377e-06      13.4104 
         -25      1.78865  0.000106074 -4.38682e-06      13.4103 
         -25      1.84778  0.000105312 -4.40145e-06      13.4103 
         -25      1.90786  0.000104433 -4.42396e-06      13.4103 
         -25      1.96891  0.000103348 -4.45586e-06      13.4103 
         -25      2.03092  0.000101985 -4.49656e-06      13.4103 
         -25      2.09389  0.000100303 -4.54267e-06      13.4102 
         -25      2.15782  9.83018e-05 -4.58731e-06      13.4102 
         -25      2.22272  9.60266e-05  -4.6193e-06      13.4102 
         -25      2.28857  9.35751e-05 -4.62235e-06      13.4102 
         -25      2.35539  9.10929e-05 -4.57416e-06      13.4101 
         -25      2.42317  8.87646e-05 -4.44546e-06      13.4101 
         -25      2.49191  8.67954e-05  -4.1991e-06      13.4101 
         -25      2.56161  8.53797e-05 -3.78898e-06        13.41 
         -25      2.63226   8.4657e-05 -3.15906e-06        13.41 
         -25      2.70389  8.46512e-05 -2.24225e-06        13.41 
         -25      2.77648  8.48803e-05 -1.45446e-06      13.4099 
         -25      2.85002  8.53992e-05 -7.78102e-07      13.4099 
         -25      2.92453  8.59567e-05 -1.18363e-07      13.4099 
         -25            3  8.62987e-05  3.61472e-07      13.4098 
           0            0  1.02345e-19  2.74423e-24      12.9639 
           0      0.00048  9.60586e-06   2.3286e-10      12.9639 
           0     0.001922  3.43106e-05  5.20016e-10      12.9639 
           0     0.004326  6.37204e-05 -3.47345e-10      12.9639 
           0      0.00769  8.64284e-05 -4.29332e-09      12.9639 
           0     0.012017  9.58466e-05 -1.38675e-08      12.9639 
           0     0.017304  9.33458e-05 -3.21451e-08      12.9639 
           0     0.023553  8.67938e-05 -6.26991e-08      12.9639 
           0     0.030763  8.46185e-05 -1.09554e-07      12.9639 
           0     0.038936  8.89242e-05 -1.77175e-07      12.9639 
           0     0.048069  9.34416e-05 -2.70264e-07      12.9639 
           0     0.058163  9.10748e-05 -3.93545e-07      12.9639 
           0     0.069219  8.75145e-05 -5.51348e-07      12.9639 
           0     0.081236  9.67487e-05 -7.47352e-07      12.9639 
           0     0.094215  9.50525e-05 -9.85234e-07      12.9639 
           0     0.108155  0.000100184 -1.26803e-06      12.9639 
           0     0.123056  0.000104266  -1.5978e-06      12.9639 
           0     0.138918  0.000108605 -1.97587e-06      12.9639 
           0     0.155744  0.000113663 -2.40291e-06      12.9639 
           0     0.173529  0.000119224 -2.87854e-06      12.9639 
           0     0.192276  0.000124819 -3.40189e-06      12.9639 
           0     0.211984   0.00013024 -3.97128e-06      12.9639 
           0     0.232655  0.000135787 -4.58464e-06      12.9639 
           0     0.254285  0.000141621 -5.23938e-06      12.9639 
           0     0.276877  0.000146782 -5.93302e-06      12.9639 
           0     0.300431  0.000151987 -6.66264e-06      12.9639 
           0     0.324946  0.000156817 -7.42573e-06      12.9639 
           0     0.350424  0.000161255 -8.22011e-06      12.9639 
           0     0.376861  0.000165269 -9.04359e-06      12.9639 
           0      0.40426   0.00016882  -9.8945e-06      12.9639 
           0     0.432621  0.000171863 -1.07715e-05      12.9639 
           0     0.461945  0.000174361 -1.16736e-05      12.9639 
           0     0.492228  0.000176283 -1.26002e-05      12.9639 
           0     0.523472  0.000177616 -1.35508e-05      12.9639 
           0     0.555678  0.000178359 -1.45252e-05      12.9639 
           0     0.588845  0.000178507 -1.55224e-05      12.9639 
           0     0.622976  0.000178035 -1.65407e-05      12.9639 
           0     0.658066  0.000176997 -1.75788e-05      12.9639 
           0     0.694117  0.000175393 -1.86374e-05      12.9639 
           0      0.73113  0.000173274 -1.97116e-05      12.9639 
           0     0.769107  0.000170705 -2.07971e-05      12.9639 
           0     0.808042  0.000167758 -2.18893e-05      12.9639 
           0     0.847939  0.000164513 -2.29837e-05      12.9639 
           0     0.888797  0.000161052 -2.40759e-05      12.9639 
           0      0.93062  0.000157454  -2.5161e-05      12.9639 
           0       0.9734  0.000153797 -2.62335e-05      12.9639 
           0      1.01714  0.000150146  -2.7288e-05      12.9639 
           0      1.06185  0.000146558 -2.83185e-05      12.9639 
           0      1.10751  0.000143078 -2.93191e-05      12.9638 
           0      1.15414   0.00013974 -3.02844e-05      12.9638 
           0      1.20173  0.000136571 -3.12103e-05      12.9638 
           0      1.25028  0.000133603 -3.20955e-05      12.9638 
           0      1.29979  0.000130884 -3.29429e-05      12.9638 
           0      1.35026  0.000128346 -3.37303e-05      12.9638 
           0       1.4017  0.000125275 -3.44486e-05      12.9638 
           0      1.45409  0.000121808   -3.513e-05      12.9638 
           0      1.50745  0.000118179 -3.57544e-05      12.9638 
           0      1.56176  0.000114583 -3.63066e-05      12.9638 
           0      1.61705  0.000111174 -3.67774e-05      12.9638 
           0      1.67329  0.000108067 -3.71617e-05      12.9638 
           0      1.73049   0.00010533 -3.74595e-05      12.9638 
           0      1.78865  0.000102993  -3.7674e-05      12.9638 
           0      1.84778  0.000101045 -3.78115e-05      12.9638 
           0      1.90786   9.9439e-05 -3.78803e-05      12.9637 
           0      1.96891  9.80945e-05 -3.78899e-05      12.9637 
           0      2.03092  9.69071e-05 -3.78499e-05      12.9637 
           0      2.09389  9.57546e-05 -3.77693e-05      12.9637 
           0      2.15782  9.45074e-05 -3.76555e-05      12.9637 
           0      2.22272    9.304e-05 -3.75141e-05      12.9637 
           0      2.28857  9.12444e-05 -3.73484e-05      12.9637 
           0      2.35539  8.90458e-05 -3.71597e-05      12.9637 
           0      2.42317  8.64193e-05 -3.69477e-05      12.9636 
           0      2.49191  8.34103e-05 -3.67123e-05      12.9636 
           0      2.56161  8.01542e-05 -3.64556e-05      12.9636 
           0      2.63226  7.68996e-05 -3.61853e-05      12.9636 
           0      2.70389   7.4033e-05 -3.59192e-05      12.9636 
           0      2.77648  7.20747e-05 -3.55366e-05      12.9636 
           0      2.85002  7.03492e-05 -3.49708e-05      12.9635 
           0      2.92453  6.85247e-05 -3.45204e-05      12.9635 
           0            3  6.66992e-05 -3.41943e-05      12.9635 
          20            0  9.39305e-20  1.63924e-24       12.649 
          20      0.00048  8.81563e-06  1.43404e-10       12.649 
          20     0.001922  3.14822e-05  3.79844e-10       12.649 
          20     0.004326  5.84439e-05  1.44398e-10       12.649 
          20      0.00769  7.92043e-05 -1.44745e-09       12.649 
          20     0.012017  8.76799e-05 -5.54017e-09       12.649 
          20     0.017304  8.50839e-05 -1.34766e-08       12.649 
          20     0.023553  7.85871e-05 -2.67735e-08       12.649 
          20     0.030763  7.58729e-05 -4.70969e-08       12.649 
          20     0.038936  7.88229e-05 -7.62519e-08       12.649 
          20     0.048069  8.16393e-05 -1.16085e-07       12.649 
          20     0.058163  7.77716e-05 -1.68359e-07       12.649 
          20     0.069219  7.24113e-05 -2.34534e-07       12.649 
          20     0.081236  7.83743e-05 -3.15663e-07       12.649 
          20     0.094215  7.38812e-05 -4.12795e-07       12.649 
          20     0.108155  7.52345e-05 -5.26687e-07       12.649 
          20     0.123056  7.52261e-05 -6.57588e-07       12.649 
          20     0.138918  7.50893e-05 -8.05503e-07       12.649 
          20     0.155744  7.52941e-05 -9.70207e-07       12.649 
          20     0.173529  7.57015e-05 -1.15117e-06       12.649 
          20     0.192276   7.5947e-05 -1.34777e-06       12.649 
          20     0.211984  7.59092e-05 -1.55919e-06       12.649 
          20     0.232655  7.59373e-05 -1.78462e-06       12.649 
          20     0.254285  7.62526e-05 -2.02324e-06       12.649 
          20     0.276877  7.60423e-05 -2.27454e-06       12.649 
          20     0.300431  7.60298e-05 -2.53764e-06       12.649 
          20     0.324946  7.58895e-05 -2.81246e-06       12.649 
          20     0.350424  7.56555e-05  -3.0991e-06       12.649 
          20     0.376861  7.53435e-05 -3.39752e-06       12.649 
          20      0.40426  7.49539e-05 -3.70777e-06       12.649 
          20     0.432621   7.4477e-05 -4.03005e-06       12.649 
          20     0.461945  7.39009e-05 -4.36478e-06       12.649 
          20     0.492228  7.32179e-05 -4.71262e-06       12.649 
          20     0.523472  7.24296e-05 -5.07446e-06       12.649 
          20     0.555678   7.1545e-05 -5.45102e-06       12.649 
          20     0.588845   7.0569e-05 -5.84225e-06       12.649 
          20     0.622976  6.94768e-05 -6.24618e-06       12.649 
          20     0.658066  6.83212e-05 -6.66339e-06       12.649 
          20     0.694117  6.70948e-05 -7.09577e-06       12.649 
          20      0.73113  6.58311e-05 -7.53832e-06       12.649 
          20     0.769107  6.45692e-05 -7.98718e-06       12.649 
          20     0.808042  6.33522e-05 -8.43924e-06       12.649 
          20     0.847939  6.22236e-05 -8.89203e-06       12.649 
          20     0.888797  6.12253e-05 -9.34325e-06       12.649 
          20      0.93062  6.03941e-05 -9.79045e-06       12.649 
          20       0.9734  5.97591e-05 -1.02306e-05       12.649 
          20      1.01714  5.93392e-05 -1.06603e-05       12.649 
          20      1.06185  5.91418e-05 -1.10753e-05       12.649 
          20      1.10751  5.91629e-05 -1.14716e-05       12.649 
          20      1.15414  5.93892e-05 -1.18461e-05       12.649 
          20      1.20173  5.98034e-05 -1.21981e-05       12.649 
          20      1.25028  6.03932e-05 -1.25325e-05      12.6489 
          20      1.29979  6.11655e-05 -1.28635e-05      12.6489 
          20      1.35026  6.20795e-05 -1.31688e-05      12.6489 
          20       1.4017  6.28898e-05 -1.34155e-05      12.6489 
          20      1.45409  6.36697e-05 -1.36596e-05      12.6489 
          20      1.50745   6.4461e-05 -1.38872e-05      12.6489 
          20      1.56176  6.52955e-05 -1.40881e-05      12.6489 
          20      1.61705  6.61936e-05 -1.42562e-05      12.6489 
          20      1.67329  6.71635e-05 -1.43884e-05      12.6489 
          20      1.73049  6.82013e-05  -1.4485e-05      12.6489 
          20      1.78865  6.92905e-05 -1.45487e-05      12.6489 
          20      1.84778  7.04025e-05 -1.45842e-05      12.6489 
          20      1.90786  7.14976e-05 -1.45972e-05      12.6489 
          20      1.96891  7.25268e-05 -1.45941e-05      12.6489 
          20      2.03092  7.34338e-05  -1.4581e-05      12.6489 
          20      2.09389  7.41584e-05 -1.45627e-05      12.6489 
          20      2.15782  7.46405e-05 -1.45422e-05      12.6489 
          20      2.22272  7.48256e-05 -1.45202e-05      12.6489 
          20      2.28857  7.46709e-05 -1.44943e-05      12.6489 
          20      2.35539  7.41537e-05 -1.44589e-05      12.6488 
          20      2.42317  7.32804e-05 -1.44054e-05      12.6488 
          20      2.49191  7.20982e-05 -1.43227e-05      12.6488 
          20      2.56161  7.07079e-05 -1.41978e-05      12.6488 
          20      2.63226  6.92793e-05 -1.40182e-05      12.6488 
          20      2.70389  6.80693e-05 -1.37737e-05      12.6488 
          20      2.77648  6.73649e-05 -1.32193e-05      12.6488 
          20      2.85002  6.71252e-05 -1.21217e-05      12.6488 
          20      2.92453  6.72009e-05 -1.16653e-05      12.6488 
          20            3   6.7672e-05 -1.09906e-05      12.6488 
          40            0  9.08956e-20  1.01484e-24      12.3553 
          40      0.00048  8.53782e-06  9.73693e-11      12.3553 
          40     0.001922  3.05717e-05  3.72877e-10      12.3553 
          40     0.004326  5.70478e-05  7.87128e-10      12.3553 
          40      0.00769  7.80103e-05  1.30841e-09      12.3553 
          40     0.012017  8.76657e-05  1.95055e-09      12.3553 
          40     0.017304  8.71075e-05  2.79952e-09      12.3553 
          40     0.023553  8.30558e-05  4.02436e-09      12.3553 
          40     0.030763    8.271e-05  5.86628e-09      12.3553 
          40     0.038936  8.77846e-05  8.62608e-09      12.3553 
          40     0.048069  9.27346e-05   1.2669e-08      12.3553 
          40     0.058163  9.13102e-05   1.8478e-08      12.3553 
          40     0.069219  8.83702e-05  2.67319e-08      12.3553 
          40     0.081236  9.59907e-05  3.83071e-08      12.3553 
          40     0.094215  9.35528e-05  5.39822e-08      12.3553 
          40     0.108155  9.64515e-05  7.45676e-08      12.3553 
          40     0.123056  9.78657e-05  1.00978e-07      12.3553 
          40     0.138918  9.89658e-05  1.34059e-07      12.3553 
          40     0.155744   0.00010021   1.7459e-07      12.3553 
          40     0.173529  0.000101488  2.23231e-07      12.3553 
          40     0.192276  0.000102481   2.8054e-07      12.3553 
          40     0.211984  0.000103106  3.46941e-07      12.3553 
          40     0.232655  0.000103725  4.22738e-07      12.3553 
          40     0.254285  0.000104577  5.08074e-07      12.3553 
          40     0.276877  0.000104925  6.02972e-07      12.3553 
          40     0.300431  0.000105481  7.07328e-07      12.3553 
          40     0.324946   0.00010596   8.2087e-07      12.3553 
          40     0.350424  0.000106417  9.43289e-07      12.3553 
          40     0.376861  0.000106884  1.07419e-06      12.3553 
          40      0.40426  0.000107376  1.21314e-06      12.3553 
          40     0.432621  0.000107895  1.35959e-06      12.3553 
          40     0.461945  0.000108435  1.51287e-06      12.3553 
          40     0.492228  0.000108991   1.6721e-06      12.3553 
          40     0.523472  0.000109559  1.83626e-06      12.3553 
          40     0.555678  0.000110138  2.00412e-06      12.3553 
          40     0.588845  0.000110713  2.17426e-06      12.3553 
          40     0.622976  0.000111232   2.3454e-06      12.3553 
          40     0.658066  0.000111703  2.51751e-06      12.3553 
          40     0.694117  0.000112085  2.68512e-06      12.3553 
          40      0.73113  0.000112344  2.84844e-06      12.3553 
          40     0.769107  0.000112454  3.00684e-06      12.3553 
          40     0.808042  0.000112394  3.15912e-06      12.3553 
          40     0.847939  0.000112154  3.30382e-06      12.3553 
          40     0.888797  0.000111728  3.43948e-06      12.3553 
          40      0.93062  0.000111121  3.56504e-06      12.3553 
          40       0.9734  0.000110345  3.68005e-06      12.3553 
          40      1.01714  0.000109421  3.78496e-06      12.3553 
          40      1.06185  0.000108371  3.88107e-06      12.3553 
          40      1.10751  0.000107225  3.97036e-06      12.3553 
          40      1.15414  0.000106008  4.05486e-06      12.3553 
          40      1.20173  0.000104743  4.13561e-06      12.3553 
          40      1.25028  0.000103438  4.21088e-06      12.3553 
          40      1.29979  0.000102085  4.27356e-06      12.3553 
          40      1.35026  0.000100718  4.33991e-06      12.3553 
          40       1.4017  9.93246e-05  4.41667e-06      12.3553 
          40      1.45409  9.78339e-05  4.46676e-06      12.3553 
          40      1.50745  9.63025e-05  4.50337e-06      12.3553 
          40      1.56176   9.4775e-05  4.53496e-06      12.3553 
          40      1.61705  9.32848e-05   4.5658e-06      12.3553 
          40      1.67329  9.18542e-05  4.59671e-06      12.3553 
          40      1.73049  9.04955e-05  4.62591e-06      12.3553 
          40      1.78865  8.92115e-05  4.64996e-06      12.3553 
          40      1.84778  8.79973e-05  4.66475e-06      12.3553 
          40      1.90786  8.68421e-05  4.66646e-06      12.3553 
          40      1.96891  8.57301e-05  4.65244e-06      12.3553 
          40      2.03092  8.46434e-05  4.62191e-06      12.3553 
          40      2.09389  8.35636e-05  4.57641e-06      12.3553 
          40      2.15782  8.24744e-05  4.51978e-06      12.3553 
          40      2.22272  8.13626e-05  4.45766e-06      12.3553 
          40      2.28857  8.02206e-05  4.39627e-06      12.3552 
          40      2.35539   7.9047e-05  4.34017e-06      12.3552 
          40      2.42317  7.78476e-05  4.28909e-06      12.3552 
          40      2.49191  7.66354e-05  4.23319e-06      12.3552 
          40      2.56161  7.54282e-05  4.14678e-06      12.3552 
          40      2.63226  7.42468e-05  3.98002e-06      12.3552 
          40      2.70389  7.31098e-05  3.64828e-06      12.3552 
          40      2.77648  7.20171e-05  3.30364e-06      12.3552 
          40      2.85002  7.07837e-05  3.11653e-06      12.3552 
          40      2.92453  6.94286e-05  2.74129e-06      12.3552 
          40            3  6.80314e-05  2.28807e-06      12.3552 
          60            0            0            0      12.0748 
          60      0.00048   8.0867e-06  6.67264e-11      12.0748 
          60     0.001922   2.8897e-05  3.16287e-10      12.0748 
          60     0.004326  5.37073e-05  8.97998e-10      12.0748 
          60      0.00769  7.29278e-05  2.06355e-09      12.0748 
          60     0.012017  8.09816e-05   4.1667e-09      12.0748 
          60     0.017304   7.8935e-05  7.64313e-09      12.0748 
          60     0.023553    7.328e-05  1.29818e-08      12.0748 
          60     0.030763   7.0976e-05   2.0672e-08      12.0748 
          60     0.038936  7.36994e-05  3.11584e-08      12.0748 
          60     0.048069  7.61356e-05   4.4798e-08      12.0748 
          60     0.058163  7.22938e-05  6.18724e-08      12.0748 
          60     0.069219  6.68929e-05   8.2613e-08      12.0748 
          60     0.081236  7.16108e-05  1.07187e-07      12.0748 
          60     0.094215  6.66125e-05  1.35515e-07      12.0748 
          60     0.108155  6.67742e-05  1.67394e-07      12.0748 
          60     0.123056  6.55561e-05  2.02525e-07      12.0748 
          60     0.138918  6.41165e-05  2.40477e-07      12.0748 
          60     0.155744  6.29213e-05  2.80746e-07      12.0748 
          60     0.173529  6.18824e-05   3.2275e-07      12.0748 
          60     0.192276  6.07042e-05    3.659e-07      12.0748 
          60     0.211984  5.93092e-05  4.09599e-07      12.0748 
          60     0.232655  5.80435e-05  4.53307e-07      12.0748 
          60     0.254285  5.71316e-05  4.96591e-07      12.0748 
          60     0.276877  5.58488e-05   5.3921e-07      12.0748 
          60     0.300431  5.48668e-05  5.80687e-07      12.0748 
          60     0.324946  5.38956e-05  6.21124e-07      12.0748 
          60     0.350424  5.29713e-05  6.60752e-07      12.0748 
          60     0.376861  5.21129e-05  6.99797e-07      12.0748 
          60      0.40426  5.13261e-05  7.38558e-07      12.0748 
          60     0.432621  5.06088e-05  7.77457e-07      12.0748 
          60     0.461945  4.99586e-05  8.17096e-07      12.0748 
          60     0.492228  4.93792e-05  8.58263e-07      12.0748 
          60     0.523472  4.88847e-05  9.01883e-07      12.0748 
          60     0.555678  4.84965e-05  9.48812e-07      12.0748 
          60     0.588845  4.82311e-05  9.99451e-07      12.0748 
          60     0.622976  4.80713e-05  1.05326e-06      12.0748 
          60     0.658066  4.80572e-05   1.1134e-06      12.0748 
          60     0.694117  4.81828e-05  1.17851e-06      12.0748 
          60      0.73113  4.84507e-05  1.24835e-06      12.0748 
          60     0.769107  4.88572e-05  1.32259e-06      12.0748 
          60     0.808042  4.93928e-05  1.40072e-06      12.0748 
          60     0.847939  5.00429e-05  1.48212e-06      12.0748 
          60     0.888797  5.07888e-05  1.56604e-06      12.0747 
          60      0.93062  5.16093e-05  1.65155e-06      12.0747 
          60       0.9734  5.24816e-05   1.7376e-06      12.0747 
          60      1.01714  5.33837e-05  1.82308e-06      12.0747 
          60      1.06185  5.42953e-05  1.90685e-06      12.0747 
          60      1.10751  5.52002e-05  1.98789e-06      12.0747 
          60      1.15414  5.60867e-05  2.06542e-06      12.0747 
          60      1.20173  5.69482e-05  2.13917e-06      12.0747 
          60      1.25028  5.77837e-05  2.20963e-06      12.0747 
          60      1.29979  5.85949e-05  2.27847e-06      12.0747 