Variables = x, y, u, v, p

Zone, I=416, F=POINT
         -50            0            0            0      28.9283 
         -50     0.013333  0.000165745  5.96037e-08      28.9283 
         -50     0.053333   0.00014442  3.14299e-07      28.9283 
         -50         0.12  0.000120615  1.03189e-06      28.9283 
         -50     0.213332   9.5567e-05  2.33325e-06      28.9282 
         -50     0.333332  7.30528e-05  4.04861e-06      28.9282 
         -50         0.48  5.63586e-05  5.88166e-06      28.9282 
         -50     0.653331  4.82727e-05  7.72985e-06      28.9281 
         -50     0.853332  5.20213e-05  9.66657e-06      28.9279 
         -50         1.08  6.59265e-05  1.16007e-05      28.9277 
         -50      1.33333  8.35733e-05  1.32098e-05      28.9274 
         -50      1.61333  0.000106076  1.43022e-05       28.927 
         -50         1.92  0.000132139  1.56404e-05      28.9265 
         -50      2.25333   0.00015315  1.46109e-05      28.9258 
         -50      2.61333   0.00015573  1.04235e-05       28.925 
         -50            3  0.000161703  1.44146e-05      28.9239 
         -25            0  1.41339e-19  1.03352e-23      27.7565 
         -25     0.013333  0.000120729  7.09048e-09      27.7565 
         -25     0.053333  0.000111473 -1.22448e-07      27.7565 
         -25         0.12  0.000114512 -6.92512e-07      27.7565 
         -25     0.213332  0.000126545 -1.87916e-06      27.7565 
         -25     0.333332  0.000136911 -3.47922e-06      27.7565 
         -25         0.48  0.000140626 -5.11963e-06      27.7564 
         -25     0.653331  0.000140241 -6.54007e-06      27.7564 
         -25     0.853332  0.000139451 -7.52047e-06      27.7563 
         -25         1.08  0.000138241 -7.88323e-06      27.7563 
         -25      1.33333  0.000132278 -7.71446e-06      27.7561 
         -25      1.61333  0.000121975 -6.95886e-06       27.756 
         -25         1.92  0.000113269 -5.65679e-06      27.7558 
         -25      2.25333  0.000108508 -3.54267e-06      27.7555 
         -25      2.61333  0.000109068 -7.14004e-07      27.7552 
         -25            3  0.000111669  4.07409e-06      27.7548 
           0            0  1.20525e-19  4.96503e-24      26.8363 
           0     0.013333  0.000106285  1.27715e-08      26.8363 
           0     0.053333  0.000108225  8.77908e-08      26.8363 
           0         0.12  0.000114966  3.46175e-07      26.8363 
           0     0.213332  0.000122122   8.9112e-07      26.8363 
           0     0.333332  0.000127521  1.73776e-06      26.8363 
           0         0.48  0.000131238  2.86771e-06      26.8363 
           0     0.653331  0.000133755  4.23893e-06      26.8363 
           0     0.853332  0.000133109  5.62832e-06      26.8363 
           0         1.08  0.000127876  6.68466e-06      26.8362 
           0      1.33333  0.000121861  7.31582e-06      26.8362 
           0      1.61333  0.000114633   7.5171e-06      26.8361 
           0         1.92  0.000105998  7.35225e-06       26.836 
           0      2.25333  9.57997e-05  6.42639e-06      26.8359 
           0      2.61333  8.18167e-05  4.96471e-06      26.8357 
           0            3  7.44604e-05  4.51604e-06      26.8355 
          20            0  1.06542e-19  2.96712e-24      26.1882 
          20     0.013333  8.73789e-05 -1.09291e-09      26.1882 
          20     0.053333  6.71676e-05 -1.03219e-07      26.1882 
          20         0.12  5.78409e-05 -6.35346e-07      26.1882 
          20     0.213332  6.69885e-05 -2.06254e-06      26.1882 
          20     0.333332  8.75441e-05 -4.60537e-06      26.1882 
          20         0.48  0.000106906 -8.07181e-06      26.1882 
          20     0.653331  0.000118151 -1.20706e-05      26.1882 
          20     0.853332  0.000121419 -1.61806e-05      26.1882 
          20         1.08    0.0001199 -2.00006e-05      26.1881 
          20      1.33333  0.000116991 -2.32371e-05      26.1881 
          20      1.61333  0.000114103 -2.55576e-05      26.1881 
          20         1.92  0.000115308 -2.63467e-05       26.188 
          20      2.25333  0.000116383 -2.61471e-05      26.1879 
          20      2.61333  0.000109488 -2.54712e-05      26.1878 
          20            3  9.63841e-05 -2.52828e-05      26.1877 
          40            0  9.91024e-20  1.83632e-24      25.5841 
          40     0.013333   7.8384e-05 -4.97272e-09      25.5841 
          40     0.053333  4.81192e-05 -1.36069e-07      25.5841 
          40         0.12  2.41453e-05 -7.58325e-07      25.5841 
          40     0.213332  1.57014e-05 -2.33722e-06       25.584 
          40     0.333332   1.7457e-05 -5.07001e-06       25.584 
          40         0.48  1.94113e-05 -8.79408e-06       25.584 
          40     0.653331  1.79266e-05 -1.31578e-05       25.584 
          40     0.853332  1.79279e-05 -1.76068e-05       25.584 
          40         1.08  2.58774e-05  -2.1463e-05       25.584 
          40      1.33333  3.95984e-05 -2.44008e-05       25.584 
          40      1.61333  5.46154e-05 -2.62974e-05       25.584 
          40         1.92  7.12013e-05 -2.67494e-05      25.5839 
          40      2.25333  8.62265e-05 -2.58062e-05      25.5839 
          40      2.61333  9.97427e-05 -2.32519e-05      25.5838 
          40            3  0.000112885  -1.8594e-05      25.5838 
          60            0            0            0      25.0071 
          60     0.013333  8.18139e-05 -9.88159e-09      25.0071 
          60     0.053333  6.96049e-05 -1.79472e-07      25.0071 
          60         0.12  6.82329e-05 -8.50111e-07      25.0071 
          60     0.213332  7.91867e-05 -2.31141e-06      25.0071 
          60     0.333332  9.39286e-05 -4.54921e-06      25.0071 
          60         0.48  0.000104271 -7.33652e-06      25.0071 
          60     0.653331  0.000107533 -1.04806e-05      25.0071 
          60     0.853332  0.000105032 -1.37824e-05       25.007 
          60         1.08  0.000101161 -1.68508e-05       25.007 
          60      1.33333  9.77149e-05 -1.93458e-05       25.007 
          60      1.61333  9.04165e-05 -2.10425e-05       25.007 
          60         1.92  8.37171e-05 -2.16573e-05       25.007 
          60      2.25333  8.11243e-05 -2.11553e-05       25.007 
          60      2.61333  7.48628e-05 -2.01356e-05      25.0069 
          60            3  6.99519e-05 -1.72755e-05      25.0069 
          80            0            0            0      24.4471 
          80     0.013333  7.83346e-05  1.05647e-09      24.4471 
          80     0.053333  5.87693e-05 -3.63902e-09      24.4471 
          80         0.12   3.9369e-05 -4.94189e-08      24.4471 
          80     0.213332   2.4715e-05 -2.22717e-07      24.4471 
          80     0.333332  1.62651e-05 -6.59708e-07      24.4471 
          80         0.48  1.26599e-05 -1.51276e-06      24.4471 
          80     0.653331  1.11597e-05  -2.8708e-06      24.4471 
          80     0.853332  1.11492e-05 -4.63254e-06      24.4471 
          80         1.08  1.64091e-05 -6.45901e-06      24.4471 
          80      1.33333  2.83915e-05 -8.02825e-06      24.4471 
          80      1.61333  4.24487e-05 -9.30629e-06      24.4471 
          80         1.92  5.38472e-05  -1.0156e-05      24.4471 
          80      2.25333  6.13852e-05 -1.04576e-05      24.4471 
          80      2.61333  6.90403e-05 -1.01089e-05      24.4471 
          80            3  7.94639e-05 -8.39472e-06       24.447 
         100            0  9.87141e-20  4.79696e-25      23.8982 
         100     0.013333  9.02491e-05  7.92048e-09      23.8982 
         100     0.053333   0.00010239  1.26762e-07      23.8982 
         100         0.12  0.000113896  6.77038e-07      23.8982 
         100     0.213332  0.000113433  2.11245e-06      23.8982 
         100     0.333332  0.000101744  4.70304e-06      23.8982 
         100         0.48  8.86387e-05  8.35824e-06      23.8982 
         100     0.653331  8.18444e-05  1.27712e-05      23.8982 
         100     0.853332  8.11228e-05  1.75471e-05      23.8982 
         100         1.08  8.17087e-05  2.22515e-05      23.8982 
         100      1.33333  8.01018e-05  2.65309e-05      23.8982 
         100      1.61333  7.87451e-05  3.00387e-05      23.8982 
         100         1.92   7.6259e-05  3.23073e-05      23.8982 
         100      2.25333  7.11761e-05  3.30879e-05      23.8982 
         100      2.61333  6.29736e-05  3.23785e-05      23.8982 
         100            3  5.64902e-05  3.10063e-05      23.8981 
         150            0           -0           -0      22.5515 
         150     0.013333  7.00668e-05  2.27097e-08      22.5515 
         150     0.053333  3.19866e-05  3.13262e-07      22.5515 
         150         0.12   -1.953e-05  1.24841e-06      22.5515 
         150     0.213332 -6.81793e-05   2.8064e-06      22.5515 
         150     0.333332 -9.76956e-05  4.43413e-06      22.5515 
         150         0.48  -0.00010583  5.52636e-06      22.5515 
         150     0.653331 -0.000101054  5.91466e-06      22.5515 
         150     0.853332 -8.88832e-05  5.88803e-06      22.5515 
         150         1.08 -6.85609e-05  5.82546e-06      22.5515 
         150      1.33333  -4.1629e-05  5.75848e-06      22.5515 
         150      1.61333 -6.90177e-06  5.47664e-06      22.5515 
         150         1.92  3.04299e-05  5.05621e-06      22.5515 
         150      2.25333  6.46601e-05  4.42746e-06      22.5515 
         150      2.61333   9.5905e-05  3.64555e-06      22.5515 
         150            3  0.000112263  2.74283e-06      22.5515 
         200            0           -0           -0      21.2209 
         200     0.013333   8.0382e-05  1.64546e-08      21.2209 
         200     0.053333  7.27576e-05  2.28498e-07      21.2209 
         200         0.12  6.33273e-05  9.22369e-07      21.2209 
         200     0.213332  5.45217e-05  2.16281e-06      21.2209 
         200     0.333332  4.97366e-05  3.78031e-06      21.2209 
         200         0.48   4.8859e-05  5.69075e-06      21.2209 
         200     0.653331  5.14907e-05  8.07729e-06      21.2209 
         200     0.853332  5.98125e-05  1.12257e-05      21.2209 
         200         1.08  7.25532e-05   1.5128e-05      21.2209 
         200      1.33333  8.01445e-05  1.91972e-05      21.2209 
         200      1.61333  8.26186e-05  2.27917e-05      21.2209 
         200         1.92  8.30907e-05  2.55956e-05      21.2209 
         200      2.25333  8.35936e-05  2.74713e-05      21.2209 
         200      2.61333  8.83026e-05  2.82771e-05      21.2209 
         200            3  9.41826e-05  2.80874e-05      21.2209 
         250            0            0            0      19.8955 
         250     0.013333  6.20885e-05  1.20584e-08      19.8955 
         250     0.053333    8.035e-06  1.48442e-07      19.8955 
         250         0.12 -5.63199e-05  4.61987e-07      19.8955 
         250     0.213332 -0.000107891   6.0372e-07      19.8955 
         250     0.333332 -0.000133717 -4.71626e-08      19.8955 
         250         0.48  -0.00013854 -1.89192e-06      19.8955 
         250     0.653331 -0.000134604  -4.8495e-06      19.8955 
         250     0.853332 -0.000127109 -8.43356e-06      19.8955 
         250         1.08 -0.000111164 -1.19702e-05      19.8955 
         250      1.33333 -8.34293e-05 -1.50404e-05      19.8955 
         250      1.61333 -4.77934e-05 -1.76146e-05      19.8955 
         250         1.92 -1.03146e-05 -1.94935e-05      19.8955 
         250      2.25333  2.54049e-05 -2.06682e-05      19.8955 
         250      2.61333  6.05458e-05  -2.0992e-05      19.8955 
         250            3  8.62087e-05 -2.04322e-05      19.8955 
         300            0           -0           -0      18.5716 
         300     0.013333  6.59314e-05 -1.49441e-09      18.5716 
         300     0.053333  2.73927e-05 -5.82557e-08      18.5716 
         300         0.12 -3.48902e-06 -4.97121e-07      18.5716 
         300     0.213332 -5.03505e-06 -2.03657e-06      18.5716 
         300     0.333332  2.29654e-05 -5.34142e-06      18.5716 
         300         0.48  6.08608e-05  -1.0412e-05      18.5716 
         300     0.653331  9.05861e-05 -1.65979e-05      18.5716 
         300     0.853332  0.000108497  -2.3107e-05      18.5716 
         300         1.08  0.000118858 -2.94091e-05      18.5716 
         300      1.33333  0.000123528 -3.53414e-05      18.5716 
         300      1.61333  0.000120534 -4.07809e-05      18.5716 
         300         1.92  0.000113668  -4.5241e-05      18.5716 
         300      2.25333   0.00010527 -4.82982e-05      18.5716 
         300      2.61333  9.47933e-05 -4.97248e-05      18.5716 
         300            3  8.67569e-05   -4.924e-05      18.5716 
         350            0  9.04074e-20 -9.96027e-28      17.2478 
         350     0.013333  7.16687e-05  7.41027e-08      17.2478 
         350     0.053333  2.49263e-05   1.0783e-06      17.2478 
         350         0.12 -7.29123e-05   4.6433e-06      17.2478 
         350     0.213332 -0.000206099  1.17071e-05      17.2478 
         350     0.333332 -0.000328018   2.1677e-05      17.2478 
         350         0.48 -0.000405148   3.3199e-05      17.2478 
         350     0.653331 -0.000434583  4.55173e-05      17.2478 
         350     0.853332 -0.000421846  5.89289e-05      17.2478 
         350         1.08 -0.000369044   7.3913e-05      17.2478 
         350      1.33333 -0.000294531  8.96987e-05      17.2478 
         350      1.61333 -0.000211941  0.000104358      17.2478 
         350         1.92 -0.000129886  0.000116569      17.2478 
         350      2.25333 -5.08502e-05  0.000125378      17.2478 
         350      2.61333  3.31051e-05  0.000129975      17.2478 
         350            3  9.61283e-05  0.000129961      17.2478 
         400            0           -0           -0      15.9242 
         400     0.013333  6.99659e-05 -3.13469e-08      15.9242 
         400     0.053333  4.92215e-05 -4.86819e-07      15.9242 
         400         0.12  5.61101e-05  -2.3082e-06      15.9242 
         400     0.213332  0.000104052 -6.50947e-06      15.9242 
         400     0.333332  0.000175047 -1.34712e-05      15.9242 
         400         0.48  0.000237922 -2.26995e-05      15.9242 
         400     0.653331  0.000274374 -3.33307e-05      15.9242 
         400     0.853332  0.000283701 -4.47197e-05      15.9242 
         400         1.08  0.000273168 -5.64859e-05      15.9242 
         400      1.33333  0.000251521 -6.82415e-05      15.9242 
         400      1.61333  0.000220162 -7.93681e-05      15.9242 
         400         1.92  0.000185419 -8.90098e-05      15.9242 
         400      2.25333   0.00015031 -9.64012e-05      15.9242 
         400      2.61333  0.000110231 -0.000100847      15.9242 
         400            3  7.64933e-05 -0.000101929      15.9242 
         450            0           -0           -0      14.5999 
         450     0.013333   0.00010296  7.01238e-08      14.5999 
         450     0.053333  0.000135434  1.07734e-06      14.5999 
         450         0.12  0.000124102  5.02507e-06      14.5999 
         450     0.213332  3.90921e-05  1.39145e-05      14.5999 
         450     0.333332 -8.79116e-05  2.83368e-05      14.5999 
         450         0.48 -0.000199099  4.72533e-05      14.5999 
         450     0.653331 -0.000260122   6.9167e-05      14.5999 
         450     0.853332 -0.000268067  9.31545e-05      14.5999 
         450         1.08 -0.000235855  0.000118598      14.5999 
         450      1.33333 -0.000188338   0.00014427      14.5999 
         450      1.61333 -0.000137775  0.000168273      14.5999 
         450         1.92 -8.96036e-05  0.000188889      14.5999 
         450      2.25333 -4.30919e-05  0.000204761      14.5999 
         450      2.61333  1.01834e-05  0.000214546      14.5999 
         450            3  5.43118e-05  0.000217281      14.5999 
         500            0           -0           -0      13.2753 
         500     0.013333  4.90091e-05 -5.19687e-08      13.2753 
         500     0.053333 -2.15747e-05 -8.01933e-07      13.2753 
         500         0.12 -6.44381e-05 -3.77398e-06      13.2753 
         500     0.213332 -4.32317e-05 -1.06029e-05      13.2753 
         500     0.333332  2.81527e-05 -2.20419e-05      13.2753 
         500         0.48  0.000108128 -3.77045e-05      13.2753 
         500     0.653331  0.000163811 -5.67473e-05      13.2753 
         500     0.853332  0.000181854 -7.85803e-05      13.2753 
         500         1.08  0.000164807 -0.000102701      13.2753 
         500      1.33333  0.000134525 -0.000127865      13.2753 
         500      1.61333   0.00011074 -0.000151989      13.2753 
         500         1.92  9.80432e-05  -0.00017324      13.2753 
         500      2.25333   8.9748e-05 -0.000190424      13.2753 
         500      2.61333  7.68045e-05 -0.000202204      13.2753 
         500            3   6.7792e-05 -0.000207538      13.2753 
         550            0           -0           -0      11.9502 
         550     0.013333  0.000137063 -2.33624e-08      11.9502 
         550     0.053333   0.00028551 -2.78805e-07      11.9502 
         550         0.12  0.000479132  -7.6607e-07      11.9502 
         550     0.213332  0.000638189 -4.16777e-07      11.9502 
         550     0.333332  0.000706677  2.70205e-06      11.9502 
         550         0.48  0.000690831  1.00225e-05      11.9502 
         550     0.653331  0.000637645  2.14853e-05      11.9502 
         550     0.853332  0.000583702  3.58504e-05      11.9502 
         550         1.08  0.000534042  5.15841e-05      11.9502 
         550      1.33333  0.000477718  6.75184e-05      11.9502 
         550      1.61333  0.000410709  8.28831e-05      11.9502 
         550         1.92  0.000335613  9.68443e-05      11.9502 
         550      2.25333  0.000255068  0.000108786      11.9502 
         550      2.61333  0.000170207  0.000117758      11.9502 
         550            3  8.82171e-05  0.000123014      11.9502 
         600            0           -0           -0       10.624 
         600     0.013333 -1.58527e-05  7.30254e-08       10.624 
         600     0.053333 -0.000289773   9.6516e-07       10.624 
         600         0.12 -0.000657572  3.47729e-06       10.624 
         600     0.213332 -0.000989629   6.4566e-06       10.624 
         600     0.333332  -0.00117832  6.75236e-06       10.624 
         600         0.48  -0.00121483  1.60386e-06      10.6239 
         600     0.653331  -0.00116823 -9.31417e-06      10.6239 
         600     0.853332  -0.00109912 -2.40201e-05      10.6239 
         600         1.08  -0.00101097 -3.95614e-05      10.6239 
         600      1.33333 -0.000881321 -5.36871e-05      10.6239 
         600      1.61333 -0.000716981 -6.59821e-05       10.624 
         600         1.92 -0.000543858 -7.67501e-05       10.624 
         600      2.25333 -0.000365627  -8.6054e-05       10.624 
         600      2.61333 -0.000174812 -9.31149e-05       10.624 
         600            3  8.83153e-06 -9.72511e-05       10.624 
         650            0            0            0      9.29837 
         650     0.013333  0.000145688  -8.5287e-08      9.29837 
         650     0.053333  0.000334939 -1.17984e-06      9.29837 
         650         0.12  0.000622944 -4.66765e-06      9.29837 
         650     0.213332  0.000919731 -1.04066e-05      9.29837 
         650     0.333332    0.0011281 -1.62724e-05      9.29837 
         650         0.48   0.00121815 -1.99334e-05      9.29837 
         650     0.653331   0.00122829 -2.07197e-05      9.29838 
         650     0.853332   0.00120043 -1.99049e-05      9.29838 
         650         1.08   0.00113462 -1.98319e-05      9.29838 
         650      1.33333   0.00101292 -2.22904e-05      9.29838 
         650      1.61333  0.000850782 -2.69298e-05      9.29837 
         650         1.92  0.000686128 -3.21554e-05      9.29837 
         650      2.25333  0.000523088 -3.68272e-05      9.29836 
         650      2.61333  0.000347014 -4.07696e-05      9.29835 
         650            3  0.000175808 -4.38035e-05      9.29834 
         700            0           -0           -0      7.97131 
         700     0.013333  8.29385e-05 -1.55967e-09      7.97131 
         700     0.053333   8.7823e-05 -4.48153e-08      7.97131 
         700         0.12  0.000106936  -3.2212e-07      7.97131 
         700     0.213332  0.000137137 -1.12153e-06      7.97131 
         700     0.333332  0.000162247 -2.41302e-06      7.97131 
         700         0.48  0.000163672  -3.6221e-06      7.97131 
         700     0.653331  0.000137114 -4.02153e-06      7.97131 
         700     0.853332  9.54892e-05 -3.08351e-06      7.97131 
         700         1.08  6.32242e-05 -2.11919e-07      7.97131 
         700      1.33333  6.15883e-05  5.23195e-06      7.97131 
         700      1.61333  8.17734e-05  1.28915e-05      7.97131 
         700         1.92  9.49991e-05  2.13326e-05      7.97131 
         700      2.25333  9.68664e-05  2.95386e-05      7.97131 
         700      2.61333  9.70583e-05  3.71421e-05      7.97131 
         700            3  9.53665e-05   4.3754e-05      7.97131 
         750            0           -0           -0      6.64383 
         750     0.013333  9.48537e-05  1.51311e-07      6.64383 
         750     0.053333  7.82967e-05  2.29759e-06      6.64383 
         750         0.12  -6.3616e-05  1.05374e-05      6.64383 
         750     0.213332 -0.000355224  2.85781e-05      6.64383 
         750     0.333332 -0.000694923  5.67875e-05      6.64383 
         750         0.48 -0.000945913  9.20825e-05      6.64383 
         750     0.653331  -0.00104663  0.000130901      6.64383 
         750     0.853332  -0.00101509  0.000171664      6.64383 
         750         1.08 -0.000896142  0.000214026      6.64383 
         750      1.33333 -0.000748085  0.000256449      6.64383 
         750      1.61333 -0.000616395  0.000296025      6.64383 
         750         1.92 -0.000500281  0.000330805      6.64383 
         750      2.25333 -0.000377702  0.000359655      6.64384 
         750      2.61333 -0.000236357  0.000380929      6.64384 
         750            3 -9.36766e-05  0.000392733      6.64385 
         800            0            0            0      5.31638 
         800     0.013333 -3.09363e-05 -1.44001e-07      5.31638 
         800     0.053333 -0.000279123 -2.27559e-06      5.31638 
         800         0.12 -0.000455721 -1.10406e-05      5.31638 
         800     0.213332 -0.000417715 -3.19261e-05      5.31638 
         800     0.333332 -0.000195542 -6.77847e-05      5.31638 
         800         0.48  6.02243e-05 -0.000117197      5.31638 
         800     0.653331  0.000221111 -0.000176572      5.31638 
         800     0.853332  0.000246054 -0.000243098      5.31638 
         800         1.08  0.000162528 -0.000314754      5.31638 
         800      1.33333  5.29117e-05  -0.00038792      5.31638 
         800      1.61333  2.78038e-07 -0.000457185      5.31638 
         800         1.92  7.05663e-06  -0.00051884      5.31638 
         800      2.25333  2.66763e-05 -0.000571274      5.31638 
         800      2.61333    3.679e-05 -0.000612024      5.31638 
         800            3  4.99747e-05 -0.000637785      5.31638 
         850            0            0            0      3.98849 
         850     0.013333   0.00020694  1.43751e-08      3.98849 
         850     0.053333  0.000526283   3.5483e-07      3.98849 
         850         0.12  0.000898657  2.53808e-06      3.98849 
         850     0.213332   0.00115636  9.80284e-06      3.98849 
         850     0.333332   0.00122027  2.56716e-05      3.98849 
         850         0.48   0.00114092  5.16255e-05      3.98849 
         850     0.653331   0.00102809  8.65244e-05      3.98849 
         850     0.853332  0.000957465  0.000127915      3.98849 
         850         1.08  0.000933832  0.000172908      3.98849 
         850      1.33333  0.000902148  0.000217919      3.98849 
         850      1.61333  0.000810773  0.000259354      3.98849 
         850         1.92  0.000675397  0.000295682      3.98848 
         850      2.25333  0.000533642  0.000326814      3.98848 
         850      2.61333  0.000391356  0.000351603      3.98847 
         850            3  0.000245025  0.000368015      3.98847 
         900            0            0            0      2.65911 
         900     0.013333  7.31236e-05  1.00476e-07      2.65911 
         900     0.053333  1.64177e-05  1.49594e-06      2.65911 
         900         0.12 -0.000132302  6.69348e-06      2.65911 
         900     0.213332 -0.000373545  1.77571e-05      2.65911 
         900     0.333332 -0.000638725  3.47695e-05      2.65911 
         900         0.48 -0.000845953  5.59876e-05      2.65911 
         900     0.653331 -0.000960005  7.94238e-05      2.65911 
         900     0.853332 -0.000991491  0.000104211      2.65911 
         900         1.08 -0.000957212  0.000130683      2.65911 
         900      1.33333 -0.000865694   0.00015933      2.65911 
         900      1.61333 -0.000734957  0.000189464      2.65911 
         900         1.92 -0.000599249  0.000219028      2.65912 
         900      2.25333 -0.000468905  0.000245859      2.65912 
         900      2.61333 -0.000328551  0.000268435      2.65913 
         900            3 -0.000180712  0.000285378      2.65913 
         950            0            0            0       1.3297 
         950     0.013333  3.46776e-05  4.24262e-08       1.3297 
         950     0.053333 -0.000105184  6.03273e-07       1.3297 
         950         0.12 -0.000312531  2.50791e-06       1.3297 
         950     0.213332 -0.000540964  6.02955e-06       1.3297 
         950     0.333332 -0.000732885  1.04449e-05       1.3297 
         950         0.48 -0.000854433  1.45026e-05       1.3297 
         950     0.653331 -0.000910576  1.72516e-05       1.3297 
         950     0.853332 -0.000926338  1.85158e-05       1.3297 
         950         1.08 -0.000916364  1.89292e-05       1.3297 
         950      1.33333 -0.000873358  1.96248e-05       1.3297 
         950      1.61333 -0.000786691  2.14913e-05       1.3297 
         950         1.92 -0.000670556  2.45529e-05       1.3297 
         950      2.25333 -0.000542893  2.80583e-05      1.32971 
         950      2.61333 -0.000404984  3.12138e-05      1.32971 
         950            3 -0.000256512  3.43448e-05      1.32972 
        1000            0            0            0            0 
        1000     0.013333  0.000132507 -2.57655e-06           -0 
        1000     0.053333  0.000265719 -1.13135e-05           -0 
        1000         0.12  0.000387218 -3.40499e-05  1.10656e-16 
        1000     0.213332  0.000465428 -0.000119677  1.31357e-15 
        1000     0.333332  0.000547085 -0.000426561  7.24963e-16 
        1000         0.48 -0.000547995  -0.00060589           -0 
        1000     0.653331 -0.000332218 -0.000587619            0 
        1000     0.853332 -0.000551584  -0.00100028            0 
        1000         1.08  -0.00138995  -0.00125356            0 
        1000      1.33333  -0.00448752  -0.00100074  7.81632e-16 
        1000      1.61333  -0.00181255  0.000252413           -0 
        1000         1.92  -0.00130889  1.63763e-05   1.5137e-15 
        1000      2.25333  -0.00163835 -9.79667e-05  1.64971e-15 
        1000      2.61333  -0.00246888   0.00057889           -0 
        1000            3 -0.000663933  0.000666806  1.54857e-15 
