Variables = x, y, u, v, p

Zone, I=2080, F=POINT
         -50            0            0            0     -16.9263 
         -50      0.00048 -1.95968e-05  -1.5535e-09     -16.9263 
         -50     0.001922  -7.0249e-05 -6.14516e-09     -16.9263 
         -50     0.004326 -0.000131273 -1.35797e-08     -16.9263 
         -50      0.00769 -0.000179634 -2.36118e-08     -16.9263 
         -50     0.012017 -0.000201377 -3.60441e-08     -16.9263 
         -50     0.017304 -0.000198079 -5.07231e-08     -16.9263 
         -50     0.023553 -0.000184605 -6.75214e-08     -16.9263 
         -50     0.030763 -0.000178103 -8.62072e-08     -16.9263 
         -50     0.038936 -0.000184562 -1.06368e-07     -16.9263 
         -50     0.048069 -0.000193642 -1.27429e-07     -16.9263 
         -50     0.058163 -0.000191125 -1.48927e-07     -16.9263 
         -50     0.069219  -0.00018402 -1.70863e-07     -16.9263 
         -50     0.081236 -0.000196905 -1.93639e-07     -16.9263 
         -50     0.094215 -0.000191975 -2.16692e-07     -16.9263 
         -50     0.108155 -0.000195782 -2.39326e-07     -16.9263 
         -50     0.123056  -0.00019753 -2.61298e-07     -16.9263 
         -50     0.138918 -0.000199016 -2.82282e-07     -16.9263 
         -50     0.155744 -0.000200965   -3.018e-07     -16.9263 
         -50     0.173529 -0.000203233 -3.19253e-07     -16.9263 
         -50     0.192276 -0.000205346 -3.34027e-07     -16.9263 
         -50     0.211984 -0.000207155 -3.45586e-07     -16.9263 
         -50     0.232655 -0.000209164 -3.53522e-07     -16.9263 
         -50     0.254285 -0.000211689 -3.57462e-07     -16.9263 
         -50     0.276877 -0.000213583 -3.56499e-07     -16.9263 
         -50     0.300431 -0.000215854 -3.51111e-07     -16.9263 
         -50     0.324946 -0.000218036 -3.41033e-07     -16.9263 
         -50     0.350424 -0.000220163 -3.25651e-07     -16.9263 
         -50     0.376861 -0.000222241 -3.04779e-07     -16.9263 
         -50      0.40426 -0.000224254 -2.78525e-07     -16.9262 
         -50     0.432621 -0.000226171 -2.47105e-07     -16.9262 
         -50     0.461945 -0.000227955 -2.10629e-07     -16.9262 
         -50     0.492228 -0.000229577 -1.68898e-07     -16.9262 
         -50     0.523472 -0.000231014 -1.21272e-07     -16.9262 
         -50     0.555678 -0.000232252 -6.67273e-08     -16.9262 
         -50     0.588845 -0.000233267 -4.21475e-09     -16.9262 
         -50     0.622976 -0.000233984  6.73178e-08     -16.9262 
         -50     0.658066 -0.000234422  1.56617e-07     -16.9262 
         -50     0.694117 -0.000234534   2.5565e-07     -16.9262 
         -50      0.73113 -0.000234298   3.7202e-07     -16.9261 
         -50     0.769107 -0.000233709  5.09421e-07     -16.9261 
         -50     0.808042 -0.000232783  6.68121e-07     -16.9261 
         -50     0.847939 -0.000231554   8.4577e-07     -16.9261 
         -50     0.888797 -0.000230071  1.03827e-06     -16.9261 
         -50      0.93062 -0.000228395  1.24086e-06     -16.9261 
         -50       0.9734 -0.000226595  1.44904e-06      -16.926 
         -50      1.01714 -0.000224738  1.65954e-06      -16.926 
         -50      1.06185  -0.00022289  1.87074e-06      -16.926 
         -50      1.10751 -0.000221104  2.08256e-06      -16.926 
         -50      1.15414 -0.000219419  2.29539e-06     -16.9259 
         -50      1.20173 -0.000217853  2.50761e-06     -16.9259 
         -50      1.25028 -0.000216403  2.71149e-06     -16.9259 
         -50      1.29979 -0.000215042  2.88657e-06     -16.9258 
         -50      1.35026 -0.000213806  3.00886e-06     -16.9258 
         -50       1.4017 -0.000212425  3.15729e-06     -16.9258 
         -50      1.45409 -0.000210787  3.32501e-06     -16.9257 
         -50      1.50745 -0.000209053  3.48785e-06     -16.9257 
         -50      1.56176 -0.000207362  3.62609e-06     -16.9256 
         -50      1.61705 -0.000205825  3.72474e-06     -16.9256 
         -50      1.67329 -0.000204529   3.7737e-06     -16.9255 
         -50      1.73049  -0.00020353  3.76781e-06     -16.9255 
         -50      1.78865 -0.000202851  3.70681e-06     -16.9254 
         -50      1.84778 -0.000202488  3.59526e-06     -16.9254 
         -50      1.90786 -0.000202406  3.44232e-06     -16.9253 
         -50      1.96891  -0.00020254  3.26145e-06     -16.9252 
         -50      2.03092 -0.000202804  3.07004e-06     -16.9252 
         -50      2.09389  -0.00020309  2.88899e-06     -16.9251 
         -50      2.15782 -0.000203277  2.74235e-06      -16.925 
         -50      2.22272  -0.00020324  2.65668e-06     -16.9249 
         -50      2.28857  -0.00020286  2.66072e-06     -16.9248 
         -50      2.35539 -0.000202039  2.78495e-06     -16.9248 
         -50      2.42317  -0.00020071  3.06129e-06     -16.9247 
         -50      2.49191 -0.000198864  3.52288e-06     -16.9246 
         -50      2.56161 -0.000196568  4.20418e-06     -16.9245 
         -50      2.63226 -0.000193988  5.14125e-06     -16.9244 
         -50      2.70389 -0.000191424  6.37254e-06     -16.9243 
         -50      2.77648 -0.000189178  7.62748e-06     -16.9242 
         -50      2.85002 -0.000187171   8.6738e-06      -16.924 
         -50      2.92453 -0.000185487  9.84648e-06     -16.9239 
         -50            3  -0.00018405  1.09783e-05     -16.9238 
         -25            0 -1.52974e-19 -6.28374e-24     -16.2361 
         -25      0.00048 -1.43781e-05 -6.06231e-10     -16.2361 
         -25     0.001922  -5.1582e-05 -2.35436e-09     -16.2361 
         -25     0.004326 -9.65372e-05 -5.04141e-09     -16.2361 
         -25      0.00769 -0.000132453 -8.37502e-09     -16.2361 
         -25     0.012017 -0.000149155 -1.20302e-08     -16.2361 
         -25     0.017304 -0.000147781 -1.56746e-08     -16.2361 
         -25     0.023553 -0.000139148 -1.89866e-08     -16.2361 
         -25     0.030763 -0.000135733  -2.1636e-08     -16.2361 
         -25     0.038936 -0.000141873 -2.32813e-08     -16.2361 
         -25     0.048069 -0.000150005 -2.36143e-08     -16.2361 
         -25     0.058163 -0.000149735 -2.24927e-08     -16.2361 
         -25     0.069219 -0.000146141 -2.01112e-08     -16.2361 
         -25     0.081236 -0.000157099 -1.70062e-08     -16.2361 
         -25     0.094215 -0.000155018 -1.35276e-08     -16.2361 
         -25     0.108155 -0.000159212 -1.02242e-08     -16.2361 
         -25     0.123056 -0.000161772 -8.00858e-09     -16.2361 
         -25     0.138918 -0.000163973 -7.98732e-09     -16.2361 
         -25     0.155744 -0.000166309 -1.14254e-08     -16.2361 
         -25     0.173529 -0.000168648 -1.97264e-08     -16.2361 
         -25     0.192276 -0.000170626 -3.44217e-08     -16.2361 
         -25     0.211984 -0.000172126 -5.71582e-08     -16.2361 
         -25     0.232655 -0.000173514 -8.96954e-08     -16.2361 
         -25     0.254285 -0.000175032 -1.33874e-07     -16.2361 
         -25     0.276877 -0.000175864 -1.91511e-07     -16.2361 
         -25     0.300431 -0.000176775 -2.64123e-07     -16.2361 
         -25     0.324946 -0.000177464 -3.53565e-07     -16.2361 
         -25     0.350424 -0.000178003 -4.61462e-07      -16.236 
         -25     0.376861 -0.000178444 -5.89089e-07      -16.236 
         -25      0.40426 -0.000178827 -7.37443e-07      -16.236 
         -25     0.432621 -0.000179182 -9.07229e-07      -16.236 
         -25     0.461945 -0.000179532  -1.0989e-06      -16.236 
         -25     0.492228 -0.000179899  -1.3126e-06      -16.236 
         -25     0.523472 -0.000180305 -1.54812e-06      -16.236 
         -25     0.555678 -0.000180768  -1.8046e-06      -16.236 
         -25     0.588845 -0.000181288    -2.08e-06      -16.236 
         -25     0.622976 -0.000181822 -2.37154e-06      -16.236 
         -25     0.658066 -0.000182377 -2.68669e-06      -16.236 
         -25     0.694117 -0.000182908 -3.00428e-06      -16.236 
         -25      0.73113  -0.00018337 -3.32935e-06      -16.236 
         -25     0.769107 -0.000183719 -3.66334e-06      -16.236 
         -25     0.808042  -0.00018392 -4.00473e-06      -16.236 
         -25     0.847939 -0.000183945 -4.35013e-06      -16.236 
         -25     0.888797 -0.000183773 -4.69526e-06      -16.236 
         -25      0.93062 -0.000183396 -5.03621e-06      -16.236 
         -25       0.9734 -0.000182814 -5.37033e-06      -16.236 
         -25      1.01714 -0.000182039 -5.69724e-06      -16.236 
         -25      1.06185 -0.000181091 -6.01885e-06     -16.2359 
         -25      1.10751 -0.000179999 -6.33887e-06     -16.2359 
         -25      1.15414 -0.000178793 -6.66086e-06     -16.2359 
         -25      1.20173 -0.000177501 -6.98455e-06     -16.2359 
         -25      1.25028 -0.000176142 -7.30004e-06     -16.2359 
         -25      1.29979 -0.000174712 -7.57886e-06     -16.2359 
         -25      1.35026 -0.000173227  -7.8454e-06     -16.2359 
         -25       1.4017 -0.000171749 -8.18201e-06     -16.2358 
         -25      1.45409 -0.000170222 -8.49098e-06     -16.2358 
         -25      1.50745 -0.000168637 -8.77317e-06     -16.2358 
         -25      1.56176 -0.000166988  -9.0297e-06     -16.2358 
         -25      1.61705 -0.000165264 -9.26181e-06     -16.2358 
         -25      1.67329 -0.000163455 -9.47055e-06     -16.2358 
         -25      1.73049 -0.000161549 -9.65671e-06     -16.2357 
         -25      1.78865 -0.000159534 -9.82046e-06     -16.2357 
         -25      1.84778 -0.000157396 -9.96121e-06     -16.2357 
         -25      1.90786 -0.000155126 -1.00773e-05     -16.2357 
         -25      1.96891 -0.000152713 -1.01659e-05     -16.2356 
         -25      2.03092 -0.000150149 -1.02228e-05     -16.2356 
         -25      2.09389 -0.000147431 -1.02424e-05     -16.2356 
         -25      2.15782 -0.000144558 -1.02175e-05     -16.2356 
         -25      2.22272 -0.000141538 -1.01397e-05     -16.2355 
         -25      2.28857 -0.000138383 -9.99943e-06     -16.2355 
         -25      2.35539 -0.000135115  -9.7863e-06     -16.2355 
         -25      2.42317 -0.000131766 -9.48997e-06     -16.2354 
         -25      2.49191 -0.000128381 -9.10087e-06     -16.2354 
         -25      2.56161 -0.000125017 -8.61135e-06     -16.2353 
         -25      2.63226 -0.000121745  -8.0173e-06     -16.2353 
         -25      2.70389 -0.000118654 -7.31992e-06     -16.2353 
         -25      2.77648 -0.000115888 -6.10664e-06     -16.2352 
         -25      2.85002 -0.000113188 -5.53974e-06     -16.2352 
         -25      2.92453 -0.000110863 -4.77127e-06     -16.2351 
         -25            3 -0.000108989 -3.73677e-06     -16.2351 
           0            0 -1.30113e-19 -3.02296e-24     -15.6931 
           0      0.00048 -1.22358e-05 -2.79276e-10     -15.6931 
           0     0.001922 -4.39705e-05 -9.36145e-10     -15.6931 
           0     0.004326 -8.25624e-05 -1.44503e-09     -15.6931 
           0      0.00769 -0.000113927 -9.97322e-10     -15.6931 
           0     0.012017 -0.000129526   1.4129e-09     -15.6931 
           0     0.017304 -0.000130298  6.88754e-09     -15.6931 
           0     0.023553 -0.000125296  1.65311e-08     -15.6931 
           0     0.030763 -0.000124952  3.13505e-08     -15.6931 
           0     0.038936 -0.000132872  5.21687e-08     -15.6931 
           0     0.048069 -0.000142671  7.94943e-08     -15.6931 
           0     0.058163 -0.000145591   1.1341e-07     -15.6931 
           0     0.069219 -0.000145835  1.53437e-07     -15.6931 
           0     0.081236 -0.000158338  1.98505e-07     -15.6931 
           0     0.094215 -0.000159909  2.47243e-07     -15.6931 
           0     0.108155  -0.00016669  2.97826e-07     -15.6931 
           0     0.123056 -0.000171999  3.47978e-07     -15.6931 
           0     0.138918 -0.000176862  3.95158e-07     -15.6931 
           0     0.155744 -0.000181659  4.36689e-07     -15.6931 
           0     0.173529 -0.000186255   4.6987e-07     -15.6931 
           0     0.192276 -0.000190329  4.92129e-07     -15.6931 
           0     0.211984 -0.000193775  5.01108e-07     -15.6931 
           0     0.232655 -0.000196904  4.94767e-07     -15.6931 
           0     0.254285 -0.000199924  4.71472e-07     -15.6931 
           0     0.276877 -0.000202165  4.30013e-07     -15.6931 
           0     0.300431 -0.000204279  3.69983e-07     -15.6931 
           0     0.324946 -0.000206025  2.91232e-07     -15.6931 
           0     0.350424 -0.000207469   1.9406e-07     -15.6931 
           0     0.376861 -0.000208658  7.94451e-08     -15.6931 
           0      0.40426 -0.000209618 -5.10647e-08     -15.6931 
           0     0.432621 -0.000210361 -1.95418e-07     -15.6931 
           0     0.461945 -0.000210887 -3.51192e-07     -15.6931 
           0     0.492228 -0.000211188 -5.15663e-07     -15.6931 
           0     0.523472 -0.000211252  -6.8591e-07     -15.6931 
           0     0.555678 -0.000211065 -8.58692e-07     -15.6931 
           0     0.588845   -0.0002106 -1.03014e-06     -15.6931 
           0     0.622976 -0.000209796  -1.1955e-06     -15.6931 
           0     0.658066 -0.000208648 -1.35533e-06     -15.6931 
           0     0.694117 -0.000207115 -1.50239e-06     -15.6931 
           0      0.73113 -0.000205173 -1.63487e-06     -15.6931 
           0     0.769107 -0.000202817 -1.75131e-06     -15.6931 
           0     0.808042 -0.000200063 -1.85067e-06     -15.6931 
           0     0.847939 -0.000196942 -1.93241e-06     -15.6931 
           0     0.888797 -0.000193502 -1.99664e-06     -15.6931 
           0      0.93062 -0.000189806  -2.0441e-06     -15.6931 
           0       0.9734 -0.000185928 -2.07622e-06     -15.6931 
           0      1.01714 -0.000181948 -2.09508e-06     -15.6931 
           0      1.06185 -0.000177944 -2.10331e-06     -15.6931 
           0      1.10751  -0.00017399 -2.10391e-06     -15.6931 
           0      1.15414 -0.000170144 -2.09986e-06     -15.6931 
           0      1.20173 -0.000166442 -2.09373e-06     -15.6931 
           0      1.25028  -0.00016289 -2.08694e-06     -15.6931 
           0      1.29979 -0.000159452 -2.07889e-06     -15.6931 
           0      1.35026 -0.000156106 -2.06202e-06      -15.693 
           0       1.4017 -0.000152696 -2.05932e-06      -15.693 
           0      1.45409 -0.000149125 -2.07095e-06      -15.693 
           0      1.50745 -0.000145478 -2.07979e-06      -15.693 
           0      1.56176  -0.00014183 -2.07547e-06      -15.693 
           0      1.61705 -0.000138251 -2.05362e-06      -15.693 
           0      1.67329 -0.000134803 -2.01497e-06      -15.693 
           0      1.73049 -0.000131538 -1.96418e-06      -15.693 
           0      1.78865   -0.0001285 -1.90855e-06      -15.693 
           0      1.84778  -0.00012572  -1.8566e-06      -15.693 
           0      1.90786  -0.00012322  -1.8166e-06      -15.693 
           0      1.96891 -0.000121013 -1.79512e-06     -15.6929 
           0      2.03092 -0.000119099 -1.79572e-06     -15.6929 
           0      2.09389 -0.000117467 -1.81789e-06     -15.6929 
           0      2.15782 -0.000116099 -1.85632e-06     -15.6929 
           0      2.22272 -0.000114968 -1.90079e-06     -15.6929 
           0      2.28857 -0.000114039 -1.93672e-06     -15.6929 
           0      2.35539 -0.000113273 -1.94676e-06     -15.6928 
           0      2.42317 -0.000112629 -1.91351e-06     -15.6928 
           0      2.49191 -0.000112065 -1.82377e-06     -15.6928 
           0      2.56161 -0.000111543 -1.67464e-06     -15.6928 
           0      2.63226 -0.000111034 -1.48179e-06     -15.6928 
           0      2.70389  -0.00011052 -1.29028e-06     -15.6928 
           0      2.77648 -0.000110141 -9.22368e-07     -15.6927 
           0      2.85002 -0.000109703 -2.46815e-07     -15.6927 
           0      2.92453   -0.0001089  3.69128e-07     -15.6927 
           0            3 -0.000107845  1.01091e-06     -15.6927 
          20            0 -1.17925e-19 -1.80683e-24     -15.3104 
          20      0.00048 -1.10846e-05 -1.73062e-10     -15.3104 
          20     0.001922  -3.9775e-05 -6.57283e-10     -15.3104 
          20     0.004326 -7.44711e-05 -1.35333e-09     -15.3104 
          20      0.00769 -0.000102251 -2.11893e-09     -15.3104 
          20     0.012017 -0.000115283  -2.7987e-09     -15.3104 
          20     0.017304 -0.000114437 -3.24926e-09     -15.3104 
          20     0.023553  -0.00010803 -3.36245e-09     -15.3104 
          20     0.030763 -0.000105655 -3.07871e-09     -15.3104 
          20     0.038936 -0.000110642 -2.40119e-09     -15.3104 
          20     0.048069 -0.000117163 -1.42062e-09     -15.3104 
          20     0.058163 -0.000117218 -3.56905e-10     -15.3104 
          20     0.069219 -0.000114708  3.92956e-10     -15.3104 
          20     0.081236 -0.000123388   2.6326e-10     -15.3104 
          20     0.094215 -0.000122028 -1.31066e-09     -15.3104 
          20     0.108155 -0.000125494 -4.97233e-09     -15.3104 
          20     0.123056 -0.000127706  -1.1487e-08     -15.3104 
          20     0.138918 -0.000129653 -2.16544e-08     -15.3104 
          20     0.155744 -0.000131725  -3.6276e-08     -15.3104 
          20     0.173529 -0.000133831 -5.61257e-08     -15.3104 
          20     0.192276 -0.000135699 -8.19524e-08     -15.3104 
          20     0.211984 -0.000137248 -1.14464e-07     -15.3104 
          20     0.232655 -0.000138767 -1.54328e-07     -15.3104 
          20     0.254285 -0.000140444 -2.02113e-07     -15.3104 
          20     0.276877 -0.000141654 -2.58276e-07     -15.3104 
          20     0.300431 -0.000142982 -3.23461e-07     -15.3104 
          20     0.324946 -0.000144189 -3.97909e-07     -15.3104 
          20     0.350424 -0.000145319  -4.8181e-07     -15.3104 
          20     0.376861 -0.000146398  -5.7535e-07     -15.3104 
          20      0.40426 -0.000147441  -6.7868e-07     -15.3104 
          20     0.432621 -0.000148451 -7.91785e-07     -15.3104 
          20     0.461945 -0.000149426 -9.14409e-07     -15.3104 
          20     0.492228 -0.000150361 -1.04597e-06     -15.3104 
          20     0.523472 -0.000151254 -1.18563e-06     -15.3104 
          20     0.555678   -0.0001521 -1.33237e-06     -15.3104 
          20     0.588845 -0.000152885 -1.48534e-06     -15.3104 
          20     0.622976 -0.000153559 -1.64405e-06     -15.3104 
          20     0.658066 -0.000154115 -1.80168e-06     -15.3104 
          20     0.694117 -0.000154517 -1.96203e-06     -15.3104 
          20      0.73113 -0.000154719 -2.12166e-06     -15.3104 
          20     0.769107 -0.000154682 -2.27763e-06     -15.3104 
          20     0.808042 -0.000154377 -2.42744e-06     -15.3104 
          20     0.847939 -0.000153784 -2.56917e-06     -15.3104 
          20     0.888797 -0.000152893 -2.70137e-06     -15.3104 
          20      0.93062 -0.000151707 -2.82317e-06     -15.3104 
          20       0.9734 -0.000150241 -2.93411e-06     -15.3104 
          20      1.01714 -0.000148521 -3.03429e-06     -15.3103 
          20      1.06185 -0.000146583 -3.12421e-06     -15.3103 
          20      1.10751 -0.000144471 -3.20492e-06     -15.3103 
          20      1.15414 -0.000142229 -3.27797e-06     -15.3103 
          20      1.20173   -0.0001399 -3.34565e-06     -15.3103 
          20      1.25028 -0.000137515 -3.41115e-06     -15.3103 
          20      1.29979  -0.00013508   -3.479e-06     -15.3103 
          20      1.35026 -0.000132618 -3.53858e-06     -15.3103 
          20       1.4017 -0.000130107 -3.57844e-06     -15.3103 
          20      1.45409 -0.000127496 -3.62111e-06     -15.3103 
          20      1.50745 -0.000124845  -3.6643e-06     -15.3103 
          20      1.56176 -0.000122205 -3.70612e-06     -15.3103 
          20      1.61705 -0.000119627 -3.74512e-06     -15.3103 
          20      1.67329 -0.000117154 -3.78035e-06     -15.3103 
          20      1.73049 -0.000114826 -3.81143e-06     -15.3103 
          20      1.78865 -0.000112677 -3.83853e-06     -15.3103 
          20      1.84778 -0.000110737 -3.86235e-06     -15.3103 
          20      1.90786 -0.000109029 -3.88414e-06     -15.3103 
          20      1.96891 -0.000107572 -3.90558e-06     -15.3103 
          20      2.03092 -0.000106377 -3.92867e-06     -15.3102 
          20      2.09389 -0.000105453 -3.95559e-06     -15.3102 
          20      2.15782 -0.000104801 -3.98843e-06     -15.3102 
          20      2.22272 -0.000104417 -4.02891e-06     -15.3102 
          20      2.28857 -0.000104293   -4.078e-06     -15.3102 
          20      2.35539 -0.000104414 -4.13539e-06     -15.3102 
          20      2.42317  -0.00010476 -4.19898e-06     -15.3102 
          20      2.49191 -0.000105303 -4.26403e-06     -15.3102 
          20      2.56161  -0.00010601 -4.32241e-06     -15.3102 
          20      2.63226 -0.000106839 -4.36154e-06     -15.3102 
          20      2.70389 -0.000107736 -4.36312e-06     -15.3101 
          20      2.77648 -0.000108635 -4.35331e-06     -15.3101 
          20      2.85002 -0.000109309  -4.1947e-06     -15.3101 
          20      2.92453 -0.000109686  -3.8391e-06     -15.3101 
          20            3 -0.000109811 -3.51783e-06     -15.3101 
          40            0 -1.08551e-19 -1.11998e-24     -14.9534 
          40      0.00048 -1.01934e-05 -1.16125e-10     -14.9534 
          40     0.001922 -3.64595e-05 -5.48324e-10     -14.9534 
          40     0.004326 -6.78358e-05 -1.54421e-09     -14.9534 
          40      0.00769 -9.21155e-05 -3.50522e-09     -14.9534 
          40     0.012017 -0.000101906 -6.97221e-09     -14.9534 
          40     0.017304  -9.8051e-05 -1.25879e-08     -14.9534 
          40     0.023553 -8.84413e-05 -2.10613e-08     -14.9534 
          40     0.030763 -8.21809e-05 -3.31064e-08     -14.9534 
          40     0.038936  -8.2463e-05 -4.93931e-08     -14.9534 
          40     0.048069 -8.38326e-05 -7.04828e-08     -14.9534 
          40     0.058163 -7.87847e-05 -9.68128e-08     -14.9534 
          40     0.069219 -7.10755e-05 -1.28668e-07     -14.9534 
          40     0.081236 -7.37828e-05 -1.66129e-07     -14.9534 
          40     0.094215 -6.69141e-05 -2.08945e-07     -14.9534 
          40     0.108155 -6.46035e-05 -2.56591e-07     -14.9534 
          40     0.123056 -6.11845e-05 -3.08257e-07     -14.9534 
          40     0.138918 -5.76695e-05 -3.62838e-07     -14.9534 
          40     0.155744 -5.44992e-05 -4.18974e-07     -14.9534 
          40     0.173529 -5.16529e-05 -4.75026e-07     -14.9534 
          40     0.192276  -4.8928e-05 -5.29174e-07     -14.9534 
          40     0.211984  -4.6289e-05 -5.79421e-07     -14.9534 
          40     0.232655 -4.40366e-05 -6.23686e-07     -14.9534 
          40     0.254285 -4.23647e-05 -6.59874e-07     -14.9534 
          40     0.276877 -4.06808e-05 -6.86193e-07     -14.9534 
          40     0.300431 -3.95247e-05 -7.00333e-07     -14.9534 
          40     0.324946 -3.86471e-05 -7.00463e-07     -14.9534 
          40     0.350424  -3.8054e-05 -6.85214e-07     -14.9534 
          40     0.376861 -3.77309e-05 -6.53317e-07     -14.9534 
          40      0.40426 -3.76463e-05 -6.03672e-07     -14.9534 
          40     0.432621 -3.77584e-05 -5.35445e-07     -14.9534 
          40     0.461945 -3.80229e-05 -4.48149e-07     -14.9534 
          40     0.492228 -3.84001e-05 -3.41734e-07     -14.9534 
          40     0.523472 -3.88607e-05 -2.16575e-07     -14.9534 
          40     0.555678 -3.93867e-05 -7.34506e-08     -14.9534 
          40     0.588845 -3.99618e-05  8.66124e-08     -14.9534 
          40     0.622976 -4.05517e-05  2.62995e-07     -14.9534 
          40     0.658066 -4.11811e-05  4.57512e-07     -14.9534 
          40     0.694117 -4.18337e-05  6.62831e-07     -14.9534 
          40      0.73113 -4.25241e-05    8.784e-07     -14.9534 
          40     0.769107 -4.32668e-05  1.10322e-06     -14.9534 
          40     0.808042 -4.40756e-05  1.33589e-06     -14.9534 
          40     0.847939 -4.49625e-05  1.57489e-06     -14.9534 
          40     0.888797 -4.59369e-05  1.81858e-06     -14.9534 
          40      0.93062 -4.70043e-05  2.06547e-06     -14.9534 
          40       0.9734 -4.81659e-05  2.31421e-06     -14.9534 
          40      1.01714 -4.94187e-05  2.56385e-06     -14.9534 
          40      1.06185 -5.07551e-05  2.81365e-06     -14.9534 
          40      1.10751 -5.21647e-05   3.0631e-06     -14.9534 
          40      1.15414 -5.36361e-05  3.31152e-06     -14.9534 
          40      1.20173 -5.51604e-05  3.55747e-06     -14.9534 
          40      1.25028 -5.67372e-05  3.79798e-06     -14.9534 
          40      1.29979 -5.83817e-05  4.02718e-06     -14.9534 
          40      1.35026 -6.00756e-05   4.2617e-06     -14.9534 
          40       1.4017 -6.18197e-05  4.51261e-06     -14.9534 
          40      1.45409  -6.3688e-05  4.74289e-06     -14.9534 
          40      1.50745 -6.56606e-05  4.95713e-06     -14.9534 
          40      1.56176 -6.77272e-05  5.15842e-06     -14.9534 
          40      1.61705 -6.98851e-05  5.34845e-06     -14.9534 
          40      1.67329 -7.21367e-05  5.52777e-06     -14.9533 
          40      1.73049 -7.44882e-05  5.69609e-06     -14.9533 
          40      1.78865  -7.6946e-05  5.85256e-06     -14.9533 
          40      1.84778 -7.95145e-05  5.99617e-06     -14.9533 
          40      1.90786 -8.21919e-05    6.126e-06     -14.9533 
          40      1.96891 -8.49692e-05  6.24171e-06     -14.9533 
          40      2.03092 -8.78261e-05  6.34377e-06     -14.9533 
          40      2.09389 -9.07296e-05  6.43377e-06     -14.9533 
          40      2.15782 -9.36313e-05  6.51457e-06     -14.9533 
          40      2.22272  -9.6469e-05  6.59035e-06     -14.9533 
          40      2.28857 -9.91656e-05   6.6665e-06     -14.9533 
          40      2.35539 -0.000101633  6.74924e-06     -14.9533 
          40      2.42317 -0.000103775  6.84497e-06     -14.9533 
          40      2.49191 -0.000105499  6.95925e-06     -14.9533 
          40      2.56161  -0.00010672  7.09535e-06     -14.9533 
          40      2.63226 -0.000107382  7.25228e-06     -14.9533 
          40      2.70389 -0.000107474  7.42222e-06     -14.9533 
          40      2.77648 -0.000107214   7.6613e-06     -14.9533 
          40      2.85002 -0.000106509  7.96513e-06     -14.9532 
          40      2.92453 -0.000105274   8.2611e-06     -14.9532 
          40            3 -0.000103825  8.58945e-06     -14.9532 
          60            0            0            0     -14.6124 
          60      0.00048  -1.0379e-05 -8.76521e-11     -14.6124 
          60     0.001922 -3.73456e-05 -5.73746e-10     -14.6124 
          60     0.004326 -7.02904e-05 -2.13394e-09     -14.6124 
          60      0.00769 -9.73738e-05 -5.91217e-09     -14.6124 
          60     0.012017 -0.000111375 -1.35529e-08     -14.6124 
          60     0.017304 -0.000112979 -2.72107e-08     -14.6124 
          60     0.023553 -0.000109647 -4.95848e-08     -14.6124 
          60     0.030763 -0.000109985 -8.39041e-08     -14.6124 
          60     0.038936 -0.000116893 -1.33937e-07     -14.6124 
          60     0.048069 -0.000124917 -2.03912e-07     -14.6124 
          60     0.058163 -0.000126632 -2.98526e-07     -14.6124 
          60     0.069219 -0.000125467  -4.2285e-07     -14.6124 
          60     0.081236 -0.000133845 -5.82185e-07     -14.6124 
          60     0.094215 -0.000132331 -7.81902e-07     -14.6124 
          60     0.108155 -0.000134404 -1.02727e-06     -14.6124 
          60     0.123056 -0.000134487 -1.32335e-06     -14.6124 
          60     0.138918  -0.00013347 -1.67477e-06     -14.6124 
          60     0.155744 -0.000131727 -2.08567e-06     -14.6124 
          60     0.173529 -0.000129222 -2.55925e-06     -14.6124 
          60     0.192276  -0.00012578 -3.09813e-06     -14.6124 
          60     0.211984 -0.000121421 -3.70387e-06     -14.6124 
          60     0.232655 -0.000116515 -4.37726e-06     -14.6124 
          60     0.254285 -0.000111359 -5.11801e-06     -14.6124 
          60     0.276877 -0.000105509  -5.9252e-06     -14.6124 
          60     0.300431 -9.96251e-05 -6.79702e-06     -14.6124 
          60     0.324946 -9.36159e-05 -7.73112e-06     -14.6124 
          60     0.350424 -8.76364e-05 -8.72478e-06     -14.6124 
          60     0.376861 -8.18203e-05  -9.7747e-06     -14.6124 
          60      0.40426 -7.62753e-05 -1.08776e-05     -14.6124 
          60     0.432621 -7.10878e-05   -1.203e-05     -14.6124 
          60     0.461945  -6.6326e-05 -1.32284e-05     -14.6124 
          60     0.492228 -6.20457e-05 -1.44694e-05     -14.6124 
          60     0.523472 -5.82929e-05 -1.57497e-05     -14.6124 
          60     0.555678 -5.51048e-05 -1.70663e-05     -14.6124 
          60     0.588845 -5.25008e-05 -1.84157e-05     -14.6124 
          60     0.622976 -5.04607e-05 -1.97945e-05     -14.6124 
          60     0.658066 -4.89952e-05  -2.1201e-05     -14.6124 
          60     0.694117  -4.8069e-05 -2.26288e-05     -14.6124 
          60      0.73113 -4.76479e-05 -2.40754e-05     -14.6124 
          60     0.769107 -4.76862e-05 -2.55376e-05     -14.6124 
          60     0.808042 -4.81275e-05  -2.7011e-05     -14.6124 
          60     0.847939 -4.89076e-05 -2.84909e-05     -14.6124 
          60     0.888797 -4.99565e-05 -2.99719e-05     -14.6124 
          60      0.93062 -5.12012e-05 -3.14489e-05     -14.6124 
          60       0.9734 -5.25681e-05 -3.29159e-05     -14.6124 
          60      1.01714 -5.39858e-05  -3.4368e-05     -14.6124 
          60      1.06185 -5.53868e-05 -3.58002e-05     -14.6124 
          60      1.10751 -5.67082e-05 -3.72078e-05     -14.6124 
          60      1.15414 -5.78907e-05 -3.85868e-05     -14.6124 
          60      1.20173 -5.88757e-05 -3.99325e-05     -14.6124 
          60      1.25028 -5.95993e-05 -4.12398e-05     -14.6124 
          60      1.29979 -5.99819e-05 -4.25017e-05     -14.6124 