Variables = x, y, u, v, p

Zone, I=2080, F=POINT
         -50            0            0            0      68.9863 
         -50      0.00048  1.34941e-05  5.51385e-09      68.9863 
         -50     0.001922  4.74955e-05  2.03988e-08      68.9863 
         -50     0.004326  8.58872e-05   4.0441e-08      68.9863 
         -50      0.00769  0.000111738  6.09881e-08      68.9863 
         -50     0.012017  0.000116766  7.93647e-08      68.9863 
         -50     0.017304  0.000105884  9.62278e-08      68.9863 
         -50     0.023553  9.35406e-05  1.15229e-07      68.9863 
         -50     0.030763  9.27292e-05  1.40821e-07      68.9863 
         -50     0.038936  0.000103409  1.75584e-07      68.9863 
         -50     0.048069  0.000110989   2.1909e-07      68.9863 
         -50     0.058163  0.000102712  2.70173e-07      68.9863 
         -50     0.069219  9.28841e-05  3.31191e-07      68.9863 
         -50     0.081236  0.000107138  4.05299e-07      68.9862 
         -50     0.094215  9.26062e-05  4.81946e-07      68.9862 
         -50     0.108155  9.50965e-05  5.72138e-07      68.9862 
         -50     0.123056  9.23008e-05  6.70131e-07      68.9862 
         -50     0.138918  8.89236e-05   7.7583e-07      68.9862 
         -50     0.155744  8.68422e-05  8.88703e-07      68.9862 
         -50     0.173529  8.56696e-05   1.0078e-06      68.9862 
         -50     0.192276  8.41653e-05  1.13207e-06      68.9862 
         -50     0.211984  8.19642e-05  1.26053e-06      68.9862 
         -50     0.232655  8.04048e-05  1.39245e-06      68.9862 
         -50     0.254285  8.02922e-05  1.52716e-06      68.9862 
         -50     0.276877    7.862e-05  1.66427e-06      68.9862 
         -50     0.300431  7.81665e-05  1.80309e-06      68.9861 
         -50     0.324946  7.76829e-05  1.94386e-06      68.9861 
         -50     0.350424  7.73246e-05  2.08752e-06      68.9861 
         -50     0.376861   7.7168e-05  2.23441e-06      68.9861 
         -50      0.40426  7.72251e-05  2.38458e-06      68.9861 
         -50     0.432621  7.74669e-05  2.53804e-06       68.986 
         -50     0.461945  7.78532e-05  2.69509e-06       68.986 
         -50     0.492228   7.8361e-05  2.85652e-06       68.986 
         -50     0.523472   7.9002e-05  3.02367e-06      68.9859 
         -50     0.555678  7.98137e-05  3.19791e-06      68.9859 
         -50     0.588845  8.08041e-05   3.3795e-06      68.9859 
         -50     0.622976  8.18358e-05  3.56611e-06      68.9858 
         -50     0.658066  8.30384e-05  3.76934e-06      68.9858 
         -50     0.694117  8.43357e-05  3.98231e-06      68.9857 
         -50      0.73113  8.57084e-05  4.20532e-06      68.9856 
         -50     0.769107  8.71362e-05  4.43846e-06      68.9856 
         -50     0.808042  8.85981e-05  4.68155e-06      68.9855 
         -50     0.847939  9.00734e-05  4.93416e-06      68.9854 
         -50     0.888797  9.15429e-05  5.19554e-06      68.9853 
         -50      0.93062  9.29898e-05  5.46466e-06      68.9852 
         -50       0.9734  9.44005e-05   5.7402e-06      68.9852 
         -50      1.01714  9.57663e-05  6.02077e-06      68.9851 
         -50      1.06185  9.70835e-05  6.30503e-06      68.9849 
         -50      1.10751  9.83552e-05  6.59202e-06      68.9848 
         -50      1.15414   9.9591e-05  6.88156e-06      68.9847 
         -50      1.20173  0.000100807  7.17479e-06      68.9846 
         -50      1.25028  0.000102026  7.47508e-06      68.9844 
         -50      1.29979  0.000103276  7.78889e-06      68.9843 
         -50      1.35026  0.000104405  8.01767e-06      68.9841 
         -50       1.4017   0.00010572  8.23856e-06       68.984 
         -50      1.45409  0.000107469  8.58392e-06      68.9838 
         -50      1.50745  0.000109434  8.95825e-06      68.9836 
         -50      1.56176  0.000111452  9.30044e-06      68.9834 
         -50      1.61705  0.000113414  9.57992e-06      68.9832 
         -50      1.67329  0.000115257  9.79146e-06       68.983 
         -50      1.73049  0.000116957  9.94931e-06      68.9828 
         -50      1.78865  0.000118522  1.00801e-05      68.9826 
         -50      1.84778  0.000119976  1.02153e-05      68.9823 
         -50      1.90786  0.000121355  1.03835e-05      68.9821 
         -50      1.96891   0.00012269  1.06028e-05      68.9818 
         -50      2.03092  0.000123998  1.08738e-05      68.9815 
         -50      2.09389  0.000125271  1.11739e-05      68.9812 
         -50      2.15782  0.000126469  1.14536e-05      68.9809 
         -50      2.22272  0.000127513  1.16361e-05      68.9806 
         -50      2.28857  0.000128285  1.16205e-05      68.9802 
         -50      2.35539  0.000128633  1.12895e-05      68.9799 
         -50      2.42317  0.000128382   1.0525e-05      68.9795 
         -50      2.49191  0.000127359  9.23037e-06      68.9791 
         -50      2.56161  0.000125422  7.36273e-06      68.9787 
         -50      2.63226  0.000122511  4.97724e-06      68.9783 
         -50      2.70389  0.000118714  2.28451e-06      68.9778 
         -50      2.77648   0.00011488 -4.58967e-07      68.9774 
         -50      2.85002  0.000112344 -3.08835e-06      68.9769 
         -50      2.92453  0.000110432 -5.28599e-06      68.9764 
         -50            3  0.000109085 -7.04916e-06      68.9759 
         -25            0  1.02329e-19  2.26583e-23      66.1886 
         -25      0.00048  9.55004e-06  2.12865e-09      66.1886 
         -25     0.001922  3.35046e-05  7.60847e-09      66.1886 
         -25     0.004326  6.01956e-05  1.40166e-08      66.1886 
         -25      0.00769   7.7388e-05  1.82468e-08      66.1886 
         -25     0.012017  7.91488e-05  1.74533e-08      66.1886 
         -25     0.017304  6.91446e-05  9.61014e-09      66.1886 
         -25     0.023553  5.79798e-05 -6.61317e-09      66.1886 
         -25     0.030763  5.52046e-05 -3.26497e-08      66.1886 
         -25     0.038936  6.09017e-05 -7.10466e-08      66.1886 
         -25     0.048069  6.45834e-05 -1.25791e-07      66.1886 
         -25     0.058163  5.70938e-05 -2.01386e-07      66.1886 
         -25     0.069219  4.89295e-05 -3.01079e-07      66.1886 
         -25     0.081236  5.87921e-05  -4.2778e-07      66.1886 
         -25     0.094215  4.83169e-05 -5.89654e-07      66.1886 
         -25     0.108155  5.08444e-05 -7.86206e-07      66.1886 
         -25     0.123056  5.01676e-05 -1.02314e-06      66.1886 
         -25     0.138918  4.96995e-05 -1.30352e-06      66.1886 
         -25     0.155744  5.07756e-05 -1.63019e-06      66.1886 
         -25     0.173529  5.30634e-05 -2.00543e-06      66.1886 
         -25     0.192276  5.55941e-05 -2.43119e-06      66.1886 
         -25     0.211984  5.80213e-05 -2.90875e-06      66.1886 
         -25     0.232655  6.12281e-05 -3.43891e-06      66.1886 
         -25     0.254285  6.57017e-05 -4.02189e-06      66.1886 
         -25     0.276877  6.91553e-05 -4.65776e-06      66.1886 
         -25     0.300431  7.35074e-05 -5.34597e-06      66.1886 
         -25     0.324946  7.77498e-05 -6.08597e-06      66.1886 
         -25     0.350424  8.18989e-05 -6.87692e-06      66.1886 
         -25     0.376861  8.59162e-05 -7.71771e-06      66.1886 
         -25      0.40426  8.97237e-05 -8.60731e-06      66.1885 
         -25     0.432621  9.32213e-05 -9.54458e-06      66.1885 
         -25     0.461945  9.63103e-05 -1.05283e-05      66.1885 
         -25     0.492228  9.89153e-05 -1.15568e-05      66.1885 
         -25     0.523472     0.000101 -1.26286e-05      66.1885 
         -25     0.555678   0.00010256 -1.37417e-05      66.1885 
         -25     0.588845  0.000103591 -1.48937e-05      66.1885 
         -25     0.622976  0.000104002 -1.60818e-05      66.1884 
         -25     0.658066  0.000103919 -1.73013e-05      66.1884 
         -25     0.694117  0.000103316 -1.85459e-05      66.1884 
         -25      0.73113   0.00010227  -1.9812e-05      66.1884 
         -25     0.769107  0.000100866 -2.10944e-05      66.1883 
         -25     0.808042  9.91903e-05 -2.23868e-05      66.1883 
         -25     0.847939  9.73302e-05 -2.36819e-05      66.1883 
         -25     0.888797   9.5367e-05 -2.49722e-05      66.1883 
         -25      0.93062  9.33728e-05 -2.62501e-05      66.1882 
         -25       0.9734  9.14072e-05 -2.75083e-05      66.1882 
         -25      1.01714  8.95135e-05 -2.87403e-05      66.1881 
         -25      1.06185  8.77194e-05 -2.99408e-05      66.1881 
         -25      1.10751  8.60382e-05 -3.11054e-05      66.1881 
         -25      1.15414  8.44747e-05 -3.22308e-05       66.188 
         -25      1.20173  8.30362e-05 -3.33132e-05       66.188 
         -25      1.25028  8.17491e-05 -3.43479e-05      66.1879 
         -25      1.29979  8.06842e-05 -3.53265e-05      66.1879 
         -25      1.35026  7.96166e-05 -3.62838e-05      66.1878 
         -25       1.4017  7.80604e-05 -3.71762e-05      66.1877 
         -25      1.45409  7.64443e-05 -3.79383e-05      66.1877 
         -25      1.50745    7.478e-05 -3.86087e-05      66.1876 
         -25      1.56176  7.30881e-05 -3.92123e-05      66.1875 
         -25      1.61705  7.13972e-05 -3.97613e-05      66.1874 
         -25      1.67329  6.97434e-05 -4.02568e-05      66.1874 
         -25      1.73049  6.81687e-05 -4.06916e-05      66.1873 
         -25      1.78865  6.67198e-05 -4.10523e-05      66.1872 
         -25      1.84778  6.54457e-05 -4.13224e-05      66.1871 
         -25      1.90786  6.43961e-05 -4.14854e-05       66.187 
         -25      1.96891  6.36179e-05 -4.15276e-05      66.1869 
         -25      2.03092  6.31525e-05 -4.14413e-05      66.1868 
         -25      2.09389  6.30321e-05 -4.12272e-05      66.1866 
         -25      2.15782  6.32761e-05 -4.08961e-05      66.1865 
         -25      2.22272  6.38863e-05 -4.04704e-05      66.1864 
         -25      2.28857  6.48428e-05 -3.99831e-05      66.1863 
         -25      2.35539  6.60988e-05 -3.94762e-05      66.1861 
         -25      2.42317  6.75755e-05 -3.89963e-05       66.186 
         -25      2.49191   6.9156e-05 -3.85874e-05      66.1858 
         -25      2.56161  7.06809e-05 -3.82809e-05      66.1857 
         -25      2.63226  7.19418e-05  -3.8081e-05      66.1855 
         -25      2.70389  7.26759e-05 -3.79453e-05      66.1853 
         -25      2.77648  7.31043e-05 -3.80283e-05      66.1852 
         -25      2.85002  7.33235e-05 -3.83942e-05       66.185 
         -25      2.92453   7.3369e-05 -3.85374e-05      66.1848 
         -25            3  7.34957e-05 -3.84466e-05      66.1846 
           0            0  8.51454e-20  1.08894e-23      63.9925 
           0      0.00048  7.94434e-06  1.01368e-09      63.9925 
           0     0.001922  2.78479e-05  3.50698e-09      63.9925 
           0     0.004326  4.99473e-05  5.97926e-09      63.9925 
           0      0.00769  6.40066e-05   6.3811e-09      63.9925 
           0     0.012017  6.50661e-05  2.56972e-09      63.9925 
           0     0.017304  5.62023e-05 -7.40648e-09      63.9925 
           0     0.023553  4.62974e-05 -2.53607e-08      63.9924 
           0     0.030763  4.33504e-05 -5.33218e-08      63.9924 
           0     0.038936  4.74328e-05 -9.40014e-08      63.9924 
           0     0.048069  4.97686e-05 -1.50893e-07      63.9924 
           0     0.058163  4.26986e-05 -2.27811e-07      63.9924 
           0     0.069219  3.50166e-05 -3.27976e-07      63.9924 
           0     0.081236  4.23798e-05 -4.54397e-07      63.9924 
           0     0.094215  3.26628e-05 -6.12512e-07      63.9924 
           0     0.108155  3.37855e-05  -8.0347e-07      63.9924 
           0     0.123056  3.21691e-05 -1.03117e-06      63.9924 
           0     0.138918  3.06683e-05 -1.29802e-06      63.9924 
           0     0.155744   3.0397e-05 -1.60611e-06      63.9924 
           0     0.173529  3.10736e-05 -1.95696e-06      63.9924 
           0     0.192276  3.18842e-05 -2.35169e-06      63.9924 
           0     0.211984  3.25391e-05 -2.79082e-06      63.9924 
           0     0.232655  3.37811e-05 -3.27444e-06      63.9924 
           0     0.254285  3.60249e-05 -3.80218e-06      63.9924 
           0     0.276877  3.73645e-05 -4.37362e-06      63.9924 
           0     0.300431  3.94202e-05 -4.98739e-06      63.9924 
           0     0.324946  4.13642e-05 -5.64266e-06      63.9924 
           0     0.350424  4.32302e-05 -6.33841e-06      63.9924 
           0     0.376861  4.50087e-05 -7.07318e-06      63.9924 
           0      0.40426  4.66587e-05 -7.84562e-06      63.9924 
           0     0.432621  4.81225e-05 -8.65423e-06      63.9924 
           0     0.461945  4.93444e-05  -9.4976e-06      63.9924 
           0     0.492228  5.02886e-05 -1.03742e-05      63.9924 
           0     0.523472  5.09502e-05 -1.12826e-05      63.9924 
           0     0.555678  5.13505e-05  -1.2221e-05      63.9924 
           0     0.588845  5.15052e-05 -1.31866e-05      63.9924 
           0     0.622976  5.13583e-05 -1.41753e-05      63.9924 
           0     0.658066  5.10284e-05 -1.51873e-05      63.9924 
           0     0.694117  5.05028e-05 -1.62163e-05      63.9923 
           0      0.73113  4.98467e-05  -1.7258e-05      63.9923 
           0     0.769107  4.91246e-05 -1.83076e-05      63.9923 
           0     0.808042  4.83976e-05 -1.93601e-05      63.9923 
           0     0.847939  4.77202e-05 -2.04105e-05      63.9923 
           0     0.888797  4.71379e-05 -2.14536e-05      63.9923 
           0      0.93062  4.66849e-05 -2.24844e-05      63.9923 
           0       0.9734  4.63827e-05  -2.3498e-05      63.9922 
           0      1.01714  4.62391e-05 -2.44897e-05      63.9922 
           0      1.06185  4.62499e-05 -2.54554e-05      63.9922 
           0      1.10751  4.64019e-05 -2.63914e-05      63.9922 
           0      1.15414  4.66785e-05 -2.72949e-05      63.9922 
           0      1.20173  4.70696e-05 -2.81636e-05      63.9921 
           0      1.25028  4.75855e-05 -2.89966e-05      63.9921 
           0      1.29979  4.82761e-05 -2.97939e-05      63.9921 
           0      1.35026   4.9032e-05 -3.05482e-05      63.9921 
           0       1.4017   4.9389e-05 -3.12473e-05       63.992 
           0      1.45409  4.95863e-05 -3.18956e-05       63.992 
           0      1.50745   4.9685e-05 -3.24876e-05       63.992 
           0      1.56176   4.9717e-05 -3.30196e-05      63.9919 
           0      1.61705  4.96894e-05   -3.349e-05      63.9919 
           0      1.67329  4.95886e-05 -3.38989e-05      63.9918 
           0      1.73049  4.93861e-05 -3.42475e-05      63.9918 
           0      1.78865  4.90446e-05  -3.4538e-05      63.9918 
           0      1.84778  4.85246e-05 -3.47732e-05      63.9917 
           0      1.90786  4.77921e-05 -3.49555e-05      63.9917 
           0      1.96891  4.68244e-05 -3.50871e-05      63.9916 
           0      2.03092  4.56176e-05 -3.51693e-05      63.9916 
           0      2.09389  4.41908e-05 -3.52021e-05      63.9915 
           0      2.15782  4.25907e-05 -3.51843e-05      63.9914 
           0      2.22272  4.08914e-05 -3.51131e-05      63.9914 
           0      2.28857  3.91932e-05 -3.49846e-05      63.9913 
           0      2.35539  3.76158e-05 -3.47945e-05      63.9913 
           0      2.42317  3.62856e-05 -3.45385e-05      63.9912 
           0      2.49191   3.5318e-05 -3.42142e-05      63.9911 
           0      2.56161  3.47897e-05 -3.38227e-05       63.991 
           0      2.63226  3.47019e-05 -3.33717e-05       63.991 
           0      2.70389  3.49317e-05 -3.28785e-05      63.9909 
           0      2.77648  3.54524e-05 -3.23553e-05      63.9908 
           0      2.85002  3.63283e-05 -3.18344e-05      63.9907 
           0      2.92453  3.73753e-05 -3.12021e-05      63.9906 
           0            3  3.87867e-05 -3.03282e-05      63.9905 
          20            0  8.02851e-20  6.51046e-24      62.4458 
          20      0.00048  7.49924e-06  6.20595e-10      62.4458 
          20     0.001922  2.63846e-05  2.32994e-09      62.4458 
          20     0.004326  4.76731e-05   4.7561e-09      62.4458 
          20      0.00769  6.19282e-05  7.54656e-09      62.4458 
          20     0.012017   6.4534e-05  1.06424e-08      62.4458 
          20     0.017304  5.82248e-05  1.44312e-08      62.4458 
          20     0.023553  5.10469e-05  1.97136e-08      62.4458 
          20     0.030763  5.02264e-05  2.74566e-08      62.4458 
          20     0.038936  5.57185e-05   3.8495e-08      62.4458 
          20     0.048069  5.93664e-05  5.33929e-08      62.4458 
          20     0.058163  5.40461e-05  7.26961e-08      62.4458 
          20     0.069219  4.77301e-05  9.73909e-08      62.4458 
          20     0.081236  5.46957e-05  1.28572e-07      62.4458 
          20     0.094215  4.54255e-05  1.65793e-07      62.4458 
          20     0.108155  4.54871e-05  2.10994e-07      62.4458 
          20     0.123056  4.24132e-05  2.64143e-07      62.4458 
          20     0.138918  3.88322e-05  3.25724e-07      62.4458 
          20     0.155744  3.57975e-05  3.96031e-07      62.4458 
          20     0.173529  3.31041e-05   4.7509e-07      62.4458 
          20     0.192276  3.00746e-05  5.62711e-07      62.4458 
          20     0.211984  2.65262e-05  6.58442e-07      62.4458 
          20     0.232655  2.32311e-05   7.6161e-07      62.4458 
          20     0.254285  2.06665e-05  8.71299e-07      62.4458 
          20     0.276877  1.71795e-05  9.86511e-07      62.4458 
          20     0.300431  1.43499e-05  1.10586e-06      62.4458 
          20     0.324946  1.15044e-05  1.22789e-06      62.4458 
          20     0.350424  8.75158e-06  1.35126e-06      62.4458 
          20     0.376861  6.15237e-06  1.47456e-06      62.4458 
          20      0.40426  3.72736e-06  1.59646e-06      62.4458 
          20     0.432621  1.47124e-06  1.71569e-06      62.4458 
          20     0.461945 -6.30056e-07  1.83115e-06      62.4458 
          20     0.492228 -2.58161e-06    1.942e-06      62.4458 
          20     0.523472 -4.36888e-06  2.04768e-06      62.4458 
          20     0.555678  -5.9602e-06  2.14802e-06      62.4458 
          20     0.588845 -7.33611e-06  2.24321e-06      62.4458 
          20     0.622976 -8.55255e-06  2.33379e-06      62.4458 
          20     0.658066 -9.50952e-06  2.41901e-06      62.4458 
          20     0.694117 -1.02315e-05  2.50065e-06      62.4458 
          20      0.73113 -1.06865e-05   2.5809e-06      62.4457 
          20     0.769107 -1.08463e-05  2.66145e-06      62.4457 
          20     0.808042 -1.06881e-05  2.74348e-06      62.4457 
          20     0.847939 -1.01962e-05  2.82779e-06      62.4457 
          20     0.888797 -9.36351e-06  2.91492e-06      62.4457 
          20      0.93062 -8.19266e-06   3.0052e-06      62.4457 
          20       0.9734 -6.69771e-06  3.09889e-06      62.4457 
          20      1.01714 -4.90366e-06  3.19629e-06      62.4457 
          20      1.06185 -2.84687e-06  3.29766e-06      62.4457 
          20      1.10751 -5.73077e-07  3.40318e-06      62.4457 
          20      1.15414  1.86533e-06  3.51262e-06      62.4456 
          20      1.20173  4.41342e-06  3.62487e-06      62.4456 
          20      1.25028  7.02182e-06  3.73717e-06      62.4456 
          20      1.29979  9.65589e-06  3.84387e-06      62.4456 
          20      1.35026   1.2319e-05  3.95693e-06      62.4456 
          20       1.4017  1.50895e-05  4.06245e-06      62.4456 
          20      1.45409  1.79488e-05  4.13653e-06      62.4455 
          20      1.50745  2.08546e-05  4.19809e-06      62.4455 
          20      1.56176  2.37624e-05  4.25941e-06      62.4455 
          20      1.61705  2.66265e-05  4.32675e-06      62.4455 
          20      1.67329  2.94015e-05  4.40119e-06      62.4455 
          20      1.73049  3.20449e-05  4.47973e-06      62.4454 
          20      1.78865   3.4518e-05  4.55644e-06      62.4454 
          20      1.84778  3.67879e-05  4.62386e-06      62.4454 
          20      1.90786  3.88292e-05   4.6744e-06      62.4453 
          20      1.96891  4.06258e-05  4.70177e-06      62.4453 
          20      2.03092  4.21723e-05  4.70235e-06      62.4453 
          20      2.09389  4.34748e-05  4.67629e-06      62.4453 
          20      2.15782  4.45513e-05  4.62844e-06      62.4452 
          20      2.22272  4.54322e-05  4.56865e-06      62.4452 
          20      2.28857  4.61589e-05   4.5116e-06      62.4451 
          20      2.35539  4.67818e-05  4.47567e-06      62.4451 
          20      2.42317  4.73574e-05  4.48084e-06      62.4451 
          20      2.49191  4.79431e-05  4.54524e-06       62.445 
          20      2.56161  4.85912e-05  4.68008e-06       62.445 
          20      2.63226  4.93394e-05  4.88262e-06      62.4449 
          20      2.70389  5.02002e-05  5.12688e-06      62.4449 
          20      2.77648  5.09438e-05   5.4417e-06      62.4448 
          20      2.85002  5.21704e-05  6.05243e-06      62.4448 
          20      2.92453  5.39949e-05  7.34155e-06      62.4447 
          20            3  5.62111e-05  8.47622e-06      62.4447 
          40            0  8.13369e-20  4.03066e-24      61.0044 
          40      0.00048  7.61926e-06  3.78788e-10      61.0044 
          40     0.001922  2.70599e-05  1.35714e-09      61.0044 
          40     0.004326  4.98153e-05  2.52607e-09      61.0044 
          40      0.00769  6.69346e-05  3.41008e-09      61.0044 
          40     0.012017  7.40124e-05  3.69227e-09      61.0044 
          40     0.017304  7.35665e-05  3.38567e-09      61.0044 
          40     0.023553  7.31231e-05  2.89367e-09      61.0044 
          40     0.030763  7.94153e-05  2.94938e-09      61.0044 
          40     0.038936  9.22958e-05  4.51428e-09      61.0044 
          40     0.048069  0.000103937  8.77327e-09      61.0044 
          40     0.058163  0.000107481  1.73442e-08      61.0044 
          40     0.069219  0.000110327  3.26035e-08      61.0044 
          40     0.081236  0.000125824  5.74936e-08      61.0044 
          40     0.094215  0.000125941  9.44875e-08      61.0044 
          40     0.108155  0.000134703  1.47949e-07      61.0044 
          40     0.123056  0.000140199  2.21411e-07      61.0044 
          40     0.138918    0.0001448  3.18988e-07      61.0044 
          40     0.155744  0.000149405  4.44842e-07      61.0044 
          40     0.173529  0.000153737  6.02968e-07      61.0044 
          40     0.192276  0.000157101  7.97198e-07      61.0044 
          40     0.211984  0.000159291  1.03101e-06      61.0044 
          40     0.232655  0.000161025  1.30747e-06      61.0044 
          40     0.254285  0.000162765  1.62904e-06      61.0044 
          40     0.276877   0.00016298  1.99767e-06      61.0044 
          40     0.300431  0.000163212  2.41493e-06      61.0044 
          40     0.324946  0.000162885  2.88136e-06      61.0044 
          40     0.350424  0.000162174  3.39708e-06      61.0044 
          40     0.376861  0.000161214  3.96167e-06      61.0044 
          40      0.40426  0.000160099  4.57438e-06      61.0044 
          40     0.432621  0.000158898  5.23387e-06      61.0044 
          40     0.461945  0.000157662  5.93826e-06      61.0044 
          40     0.492228  0.000156436    6.685e-06      61.0044 
          40     0.523472  0.000155269  7.47121e-06      61.0044 
          40     0.555678  0.000154205   8.2936e-06      61.0044 
          40     0.588845  0.000153259  9.14883e-06      61.0044 
          40     0.622976  0.000152352   1.0034e-05      61.0044 
          40     0.658066  0.000151528  1.09428e-05      61.0044 
          40     0.694117  0.000150719  1.18697e-05      61.0044 
          40      0.73113  0.000149867  1.28113e-05      61.0044 
          40     0.769107  0.000148917   1.3763e-05      61.0043 
          40     0.808042  0.000147816  1.47199e-05      61.0043 
          40     0.847939  0.000146516  1.56767e-05      61.0043 
          40     0.888797  0.000144979  1.66285e-05      61.0043 
          40      0.93062  0.000143181  1.75705e-05      61.0043 
          40       0.9734   0.00014111  1.84985e-05      61.0043 
          40      1.01714  0.000138769  1.94097e-05      61.0043 
          40      1.06185  0.000136175  2.03018e-05      61.0043 
          40      1.10751  0.000133357  2.11739e-05      61.0043 
          40      1.15414  0.000130343  2.20256e-05      61.0043 
          40      1.20173  0.000127157  2.28563e-05      61.0043 
          40      1.25028  0.000123796  2.36646e-05      61.0043 
          40      1.29979  0.000120205  2.44456e-05      61.0043 
          40      1.35026  0.000116437  2.51906e-05      61.0042 
          40       1.4017   0.00011279  2.59143e-05      61.0042 
          40      1.45409  0.000109056  2.66087e-05      61.0042 
          40      1.50745  0.000105196  2.72586e-05      61.0042 
          40      1.56176  0.000101187  2.78538e-05      61.0042 
          40      1.61705  9.70218e-05  2.83888e-05      61.0042 
          40      1.67329   9.2706e-05  2.88618e-05      61.0042 
          40      1.73049  8.82547e-05  2.92741e-05      61.0042 
          40      1.78865  8.36903e-05  2.96286e-05      61.0041 
          40      1.84778  7.90391e-05  2.99294e-05      61.0041 
          40      1.90786  7.43296e-05  3.01802e-05      61.0041 
          40      1.96891  6.95876e-05  3.03837e-05      61.0041 
          40      2.03092  6.48355e-05   3.0541e-05      61.0041 
          40      2.09389    6.009e-05  3.06509e-05       61.004 
          40      2.15782  5.53636e-05  3.07105e-05       61.004 
          40      2.22272  5.06636e-05  3.07152e-05       61.004 
          40      2.28857  4.59981e-05  3.06607e-05       61.004 
          40      2.35539  4.13813e-05  3.05455e-05      61.0039 
          40      2.42317  3.68438e-05  3.03743e-05      61.0039 
          40      2.49191  3.24485e-05  3.01638e-05      61.0039 
          40      2.56161  2.83073e-05  2.99492e-05      61.0039 
          40      2.63226  2.46091e-05  2.97941e-05      61.0038 
          40      2.70389  2.16514e-05  2.98019e-05      61.0038 
          40      2.77648  1.95816e-05  2.99096e-05      61.0038 
          40      2.85002  1.83787e-05  3.00592e-05      61.0037 
          40      2.92453   1.8332e-05  3.05531e-05      61.0037 
          40            3   1.9207e-05  3.13063e-05      61.0037 
          60            0            0            0      59.6278 
          60      0.00048  7.02026e-06  2.12656e-10      59.6278 
          60     0.001922  2.48016e-05  4.27368e-10      59.6278 
          60     0.004326  4.51906e-05 -5.79024e-10      59.6278 
          60      0.00769  5.96323e-05 -4.69084e-09      59.6278 
          60     0.012017  6.39715e-05 -1.42885e-08      59.6278 
          60     0.017304  6.07451e-05 -3.20757e-08      59.6278 
          60     0.023553  5.73272e-05 -6.10017e-08      59.6278 
          60     0.030763  6.03392e-05 -1.04199e-07      59.6278 
          60     0.038936  6.97766e-05 -1.64984e-07      59.6278 
          60     0.048069   7.8236e-05 -2.46688e-07      59.6278 
          60     0.058163  7.92412e-05 -3.52475e-07      59.6278 
          60     0.069219  8.00392e-05 -4.84981e-07      59.6278 
          60     0.081236  9.35893e-05 -6.46276e-07      59.6278 
          60     0.094215  9.29614e-05 -8.38436e-07      59.6278 
          60     0.108155  0.000101356 -1.06187e-06      59.6278 
          60     0.123056  0.000107322 -1.31699e-06      59.6278 
          60     0.138918   0.00011314  -1.6032e-06      59.6278 
          60     0.155744  0.000119647 -1.91927e-06      59.6278 
          60     0.173529  0.000126523 -2.26319e-06      59.6278 
          60     0.192276  0.000133024 -2.63252e-06      59.6278 
          60     0.211984  0.000138859 -3.02432e-06      59.6278 
          60     0.232655  0.000144618  -3.4354e-06      59.6278 
          60     0.254285  0.000150635 -3.86233e-06      59.6278 
          60     0.276877  0.000155326 -4.30184e-06      59.6278 
          60     0.300431  0.000160064 -4.75057e-06      59.6278 
          60     0.324946  0.000164194 -5.20563e-06      59.6278 
          60     0.350424  0.000167789 -5.66459e-06      59.6278 
          60     0.376861  0.000170893 -6.12524e-06      59.6278 
          60      0.40426  0.000173526 -6.58601e-06      59.6278 
          60     0.432621  0.000175694 -7.04582e-06      59.6278 
          60     0.461945  0.000177396 -7.50419e-06      59.6278 
          60     0.492228  0.000178644 -7.96121e-06      59.6278 
          60     0.523472  0.000179459 -8.41752e-06      59.6278 
          60     0.555678  0.000179873 -8.87416e-06      59.6278 
          60     0.588845  0.000179898 -9.33223e-06      59.6278 
          60     0.622976  0.000179468 -9.79272e-06      59.6278 
          60     0.658066  0.000178652 -1.02584e-05      59.6278 
          60     0.694117  0.000177413 -1.07301e-05      59.6278 
          60      0.73113  0.000175742 -1.12092e-05      59.6278 
          60     0.769107  0.000173639 -1.16967e-05      59.6278 
          60     0.808042  0.000171113  -1.2193e-05      59.6278 
          60     0.847939  0.000168183 -1.26981e-05      59.6278 
          60     0.888797  0.000164881 -1.32116e-05      59.6278 
          60      0.93062  0.000161247 -1.37324e-05      59.6278 
          60       0.9734  0.000157333 -1.42586e-05      59.6278 
          60      1.01714    0.0001532 -1.47877e-05      59.6278 
          60      1.06185  0.000148915 -1.53166e-05      59.6278 
          60      1.10751   0.00014455 -1.58419e-05      59.6278 
          60      1.15414  0.000140174 -1.63595e-05      59.6278 
          60      1.20173  0.000135854 -1.68654e-05      59.6278 
          60      1.25028   0.00013164 -1.73556e-05      59.6278 
          60      1.29979  0.000127559 -1.78271e-05      59.6278 