Variables = x, y, u, v, p

Zone, I=416, F=POINT
         -50            0            0            0      10.4203 
         -50     0.013333  0.000252674  5.67387e-08      10.4203 
         -50     0.053333  0.000239505  4.19385e-07      10.4203 
         -50         0.12  0.000223005  1.39758e-06      10.4203 
         -50     0.213332  0.000209073  3.14095e-06      10.4203 
         -50     0.333332  0.000198228  5.48947e-06      10.4203 
         -50         0.48  0.000193986   8.2464e-06      10.4202 
         -50     0.653331  0.000196572  1.13345e-05      10.4202 
         -50     0.853332  0.000202832  1.45446e-05      10.4201 
         -50         1.08  0.000208524  1.74611e-05      10.4201 
         -50      1.33333  0.000212671  1.98358e-05        10.42 
         -50      1.61333  0.000218247  2.18602e-05      10.4198 
         -50         1.92  0.000227605  2.30421e-05      10.4196 
         -50      2.25333  0.000235697   2.4056e-05      10.4194 
         -50      2.61333  0.000240739  2.53968e-05      10.4191 
         -50            3  0.000237309  2.34885e-05      10.4187 
         -25            0  1.99298e-19  5.65587e-24      9.98659 
         -25     0.013333  0.000184384  8.94716e-09      9.98659 
         -25     0.053333   0.00017909 -1.75249e-08      9.98659 
         -25         0.12  0.000177746 -1.65847e-07      9.98659 
         -25     0.213332  0.000179724 -3.78208e-07      9.98659 
         -25     0.333332  0.000178878 -5.50851e-07      9.98659 
         -25         0.48  0.000175933 -7.04037e-07      9.98658 
         -25     0.653331  0.000170872 -1.01744e-06      9.98657 
         -25     0.853332  0.000163093 -1.62957e-06      9.98655 
         -25         1.08   0.00015645 -2.36884e-06      9.98652 
         -25      1.33333  0.000154893 -2.79204e-06      9.98648 
         -25      1.61333  0.000155686 -3.03465e-06      9.98642 
         -25         1.92   0.00015912  -2.7549e-06      9.98635 
         -25      2.25333    0.0001633  -1.8107e-06      9.98626 
         -25      2.61333  0.000163403 -2.61644e-06      9.98614 
         -25            3  0.000155104 -8.66496e-06      9.98599 
           0            0  1.67444e-19  2.70478e-24      9.64624 
           0     0.013333  0.000155336  1.04162e-08      9.64624 
           0     0.053333  0.000150688  8.44822e-08      9.64624 
           0         0.12  0.000144077  3.49291e-07      9.64624 
           0     0.213332    0.0001343  1.00238e-06      9.64624 
           0     0.333332  0.000119798  2.14918e-06      9.64624 
           0         0.48  0.000105774   3.7028e-06      9.64623 
           0     0.653331  9.62532e-05   5.4969e-06      9.64623 
           0     0.853332  9.33269e-05  7.42928e-06      9.64622 
           0         1.08  9.70555e-05  9.41721e-06       9.6462 
           0      1.33333  0.000104675  1.12465e-05      9.64618 
           0      1.61333  0.000115442  1.25728e-05      9.64616 
           0         1.92  0.000123764   1.3309e-05      9.64612 
           0      2.25333  0.000128086  1.30202e-05      9.64608 
           0      2.61333  0.000128237  1.21377e-05      9.64602 
           0            3  0.000128479   1.1609e-05      9.64595 
          20            0  1.57948e-19   1.6116e-24      9.40638 
          20     0.013333  0.000153845  1.03386e-09      9.40638 
          20     0.053333  0.000179301   1.5389e-09      9.40638 
          20         0.12  0.000208808  1.68635e-07      9.40638 
          20     0.213332  0.000226122    1.018e-06      9.40638 
          20     0.333332  0.000223731  3.09759e-06      9.40637 
          20         0.48  0.000211931  6.55296e-06      9.40637 
          20     0.653331  0.000201038  1.10705e-05      9.40637 
          20     0.853332  0.000191132   1.6024e-05      9.40636 
          20         1.08   0.00017763  2.07285e-05      9.40636 
          20      1.33333   0.00016085  2.47949e-05      9.40634 
          20      1.61333  0.000143275  2.79697e-05      9.40633 
          20         1.92  0.000128207  2.96373e-05       9.4063 
          20      2.25333  0.000120329  3.01625e-05      9.40628 
          20      2.61333  0.000117804  2.90915e-05      9.40624 
          20            3   0.00011546  2.69343e-05       9.4062 
          40            0  1.48636e-19    9.978e-25      9.18261 
          40     0.013333  0.000144202 -2.08895e-08      9.18261 
          40     0.053333  0.000170553 -3.08959e-07      9.18261 
          40         0.12  0.000213986 -1.20392e-06      9.18261 
          40     0.213332  0.000258686 -2.57891e-06      9.18261 
          40     0.333332  0.000286468 -3.85003e-06      9.18261 
          40         0.48  0.000296729 -4.56894e-06      9.18261 
          40     0.653331  0.000294488 -4.83214e-06       9.1826 
          40     0.853332  0.000278841 -5.13174e-06       9.1826 
          40         1.08  0.000250059 -5.78195e-06      9.18259 
          40      1.33333  0.000217258 -6.54458e-06      9.18259 
          40      1.61333  0.000179735 -7.06536e-06      9.18258 
          40         1.92  0.000143759  -7.3564e-06      9.18256 
          40      2.25333  0.000114453 -7.47965e-06      9.18254 
          40      2.61333  8.54733e-05 -7.92522e-06      9.18252 
          40            3  6.55594e-05 -8.55413e-06      9.18249 
          60            0            0            0      8.96873 
          60     0.013333  0.000130662  -2.9182e-08      8.96873 
          60     0.053333  0.000136816 -4.36123e-07      8.96873 
          60         0.12  0.000160773 -1.84349e-06      8.96873 
          60     0.213332  0.000195061 -4.47575e-06      8.96873 
          60     0.333332   0.00021986 -7.91812e-06      8.96873 
          60         0.48  0.000228214  -1.1645e-05      8.96873 
          60     0.653331  0.000222488  -1.5536e-05      8.96873 
          60     0.853332  0.000205746 -1.96884e-05      8.96873 
          60         1.08   0.00018405 -2.38647e-05      8.96872 
          60      1.33333  0.000165694 -2.74831e-05      8.96872 
          60      1.61333  0.000144619 -3.00301e-05      8.96871 
          60         1.92  0.000125197 -3.12036e-05       8.9687 
          60      2.25333   0.00011185 -3.08048e-05      8.96869 
          60      2.61333  0.000106282   -2.854e-05      8.96867 
          60            3  0.000114072 -2.50671e-05      8.96865 
          80            0            0            0      8.76116 
          80     0.013333  0.000124273 -2.97584e-08      8.76116 
          80     0.053333   0.00012239 -4.45334e-07      8.76116 
          80         0.12  0.000138005 -1.92204e-06      8.76116 
          80     0.213332   0.00016794 -4.80277e-06      8.76116 
          80     0.333332  0.000193093 -8.78897e-06      8.76116 
          80         0.48   0.00020382 -1.34049e-05      8.76116 
          80     0.653331  0.000199597 -1.85106e-05      8.76116 
          80     0.853332  0.000183201 -2.41051e-05      8.76116 
          80         1.08   0.00016338 -2.97351e-05      8.76116 
          80      1.33333  0.000149917 -3.46343e-05      8.76116 
          80      1.61333  0.000135037 -3.81975e-05      8.76115 
          80         1.92  0.000122106 -3.99881e-05      8.76114 
          80      2.25333   0.00011459 -3.99333e-05      8.76114 
          80      2.61333  0.000105976 -3.81454e-05      8.76113 
          80            3  0.000105175  -3.4114e-05      8.76111 
         100            0  1.32625e-19  2.70418e-25       8.5577 
         100     0.013333  0.000120614 -2.32251e-08       8.5577 
         100     0.053333   0.00011339 -3.50859e-07       8.5577 
         100         0.12  0.000120685 -1.54297e-06       8.5577 
         100     0.213332  0.000143287 -3.94717e-06       8.5577 
         100     0.333332  0.000165987 -7.40554e-06       8.5577 
         100         0.48  0.000179204 -1.15515e-05       8.5577 
         100     0.653331  0.000180446 -1.62284e-05       8.5577 
         100     0.853332  0.000170713 -2.13914e-05       8.5577 
         100         1.08  0.000156874 -2.66232e-05       8.5577 
         100      1.33333  0.000147639 -3.12168e-05      8.55769 
         100      1.61333   0.00013669 -3.46779e-05      8.55769 
         100         1.92  0.000125907 -3.65549e-05      8.55769 
         100      2.25333   0.00011831 -3.68436e-05      8.55768 
         100      2.61333  0.000112482 -3.53666e-05      8.55767 
         100            3  0.000111646 -3.28375e-05      8.55767 
         150            0           -0           -0       8.0592 
         150     0.013333  0.000119433 -1.45433e-08       8.0592 
         150     0.053333  0.000114272  -2.2361e-07       8.0592 
         150         0.12  0.000122368 -1.02414e-06       8.0592 
         150     0.213332   0.00014694 -2.75823e-06       8.0592 
         150     0.333332  0.000175958 -5.43677e-06       8.0592 
         150         0.48  0.000198851 -8.78019e-06       8.0592 
         150     0.653331    0.0002109 -1.25165e-05       8.0592 
         150     0.853332  0.000211489 -1.65252e-05       8.0592 
         150         1.08  0.000202787 -2.06689e-05       8.0592 
         150      1.33333  0.000190337  -2.4635e-05       8.0592 
         150      1.61333  0.000173335 -2.79898e-05       8.0592 
         150         1.92  0.000155682 -3.03305e-05       8.0592 
         150      2.25333  0.000139284 -3.14944e-05      8.05919 
         150      2.61333  0.000120099 -3.14256e-05      8.05919 
         150            3  0.000106411 -3.02496e-05      8.05919 
         200            0           -0           -0      7.56801 
         200     0.013333  9.91707e-05  1.17721e-08      7.56801 
         200     0.053333  3.81643e-05  1.31154e-07      7.56801 
         200         0.12 -3.19334e-05  3.03844e-07      7.56801 
         200     0.213332 -7.92067e-05  -5.7883e-08      7.56801 
         200     0.333332 -9.25682e-05 -1.79078e-06      7.56801 
         200         0.48 -8.27977e-05 -5.28285e-06      7.56801 
         200     0.653331 -6.74146e-05 -1.02224e-05      7.56801 
         200     0.853332 -5.17615e-05  -1.5855e-05      7.56801 
         200         1.08 -3.03184e-05 -2.13841e-05      7.56801 
         200      1.33333 -4.24428e-07 -2.64097e-05      7.56801 
         200      1.61333  3.54196e-05 -3.07898e-05      7.56801 
         200         1.92  7.30835e-05 -3.39844e-05      7.56801 
         200      2.25333  0.000107205 -3.59251e-05      7.56801 
         200      2.61333  0.000135582 -3.64021e-05      7.56802 
         200            3  0.000150141 -3.54555e-05      7.56802 
         250            0            0            0      7.08083 
         250     0.013333  0.000118845  1.21384e-08      7.08083 
         250     0.053333  0.000107994  1.70449e-07      7.08083 
         250         0.12  9.16575e-05  7.06485e-07      7.08083 
         250     0.213332   7.3136e-05  1.73746e-06      7.08083 
         250     0.333332  5.39385e-05  3.22746e-06      7.08083 
         250         0.48  3.73141e-05  5.11497e-06      7.08083 
         250     0.653331  2.57328e-05  7.42408e-06      7.08083 
         250     0.853332  2.30614e-05  1.03105e-05      7.08083 
         250         1.08  3.25257e-05  1.39392e-05      7.08083 
         250      1.33333  4.91162e-05   1.8099e-05      7.08083 
         250      1.61333  6.77514e-05  2.21571e-05      7.08083 
         250         1.92  8.57204e-05  2.56991e-05      7.08083 
         250      2.25333  0.000102477  2.84018e-05      7.08083 
         250      2.61333  0.000121352  3.01154e-05      7.08083 
         250            3  0.000137569  3.08541e-05      7.08083 
         300            0           -0           -0       6.5963 
         300     0.013333  9.23711e-05 -7.44263e-09       6.5963 
         300     0.053333  2.01156e-05 -1.54971e-07       6.5963 
         300         0.12 -5.12578e-05 -9.84658e-07       6.5963 
         300     0.213332 -8.22366e-05 -3.52606e-06       6.5963 
         300     0.333332 -6.69164e-05 -8.75837e-06       6.5963 
         300         0.48 -2.75189e-05 -1.69289e-05       6.5963 
         300     0.653331  8.41394e-06 -2.75341e-05       6.5963 
         300     0.853332  2.88569e-05 -3.97751e-05       6.5963 
         300         1.08  3.90425e-05 -5.27687e-05       6.5963 
         300      1.33333  5.20872e-05 -6.55778e-05       6.5963 
         300      1.61333  6.88112e-05 -7.72753e-05       6.5963 
         300         1.92  8.73042e-05 -8.68561e-05       6.5963 
         300      2.25333  0.000105898 -9.37233e-05       6.5963 
         300      2.61333  0.000122071 -9.71557e-05       6.5963 
         300            3  0.000138425 -9.68155e-05      6.59631 
         350            0   1.3375e-19  1.36932e-26      6.11358 
         350     0.013333  0.000128292  6.79907e-08      6.11358 
         350     0.053333  0.000126759  1.01294e-06      6.11358 
         350         0.12  8.45811e-05  4.51343e-06      6.11358 
         350     0.213332 -3.02038e-08  1.18346e-05      6.11358 
         350     0.333332 -9.24426e-05  2.28102e-05      6.11358 
         350         0.48  -0.00015492  3.62973e-05      6.11358 
         350     0.653331 -0.000175621  5.14574e-05      6.11358 
         350     0.853332 -0.000157591  6.82006e-05      6.11358 
         350         1.08 -0.000111412  8.62953e-05      6.11358 
         350      1.33333 -6.22416e-05  0.000104398      6.11358 
         350      1.61333 -1.63081e-05   0.00012064      6.11359 
         350         1.92  2.68176e-05  0.000133783      6.11359 
         350      2.25333  6.61599e-05  0.000142919      6.11359 
         350      2.61333  0.000108702  0.000147213      6.11359 
         350            3  0.000139132  0.000146225      6.11359 
         400            0           -0           -0      5.63237 
         400     0.013333  0.000126324   2.3842e-08      5.63237 
         400     0.053333   0.00013076  3.70211e-07      5.63237 
         400         0.12  0.000120456   1.7366e-06      5.63237 
         400     0.213332    9.138e-05   4.7657e-06      5.63237 
         400     0.333332  5.69513e-05   9.4661e-06      5.63237 
         400         0.48  3.72719e-05   1.5236e-05      5.63237 
         400     0.653331  3.85266e-05  2.14741e-05      5.63237 
         400     0.853332  5.47138e-05  2.78831e-05      5.63237 
         400         1.08  7.41876e-05  3.41022e-05      5.63237 
         400      1.33333  8.43814e-05  3.94712e-05      5.63237 
         400      1.61333  8.83281e-05  4.35423e-05      5.63237 
         400         1.92  9.39335e-05  4.62521e-05      5.63237 
         400      2.25333   0.00010164  4.75684e-05      5.63237 
         400      2.61333  0.000110514  4.72688e-05      5.63237 
         400            3  0.000117388  4.53204e-05      5.63237 
         450            0           -0           -0      5.15293 
         450     0.013333  0.000157102 -4.04938e-08      5.15293 
         450     0.053333  0.000259469 -5.49235e-07      5.15293 
         450         0.12   0.00040773 -2.08574e-06      5.15293 
         450     0.213332  0.000550494 -4.31528e-06      5.15293 
         450     0.333332  0.000636479 -5.88389e-06      5.15293 
         450         0.48  0.000658487 -5.49178e-06      5.15293 
         450     0.653331   0.00064323 -2.88162e-06      5.15293 
         450     0.853332  0.000613744  1.15971e-06      5.15293 
         450         1.08  0.000570535  5.42524e-06      5.15293 
         450      1.33333  0.000507515  9.14248e-06      5.15293 
         450      1.61333  0.000429615  1.23458e-05      5.15293 
         450         1.92  0.000347548  1.51022e-05      5.15293 
         450      2.25333  0.000264213  1.75198e-05      5.15292 
         450      2.61333  0.000177422  1.93421e-05      5.15292 
         450            3  0.000102761  2.04177e-05      5.15291 
         500            0           -0           -0      4.67502 
         500     0.013333   7.2971e-05   2.9641e-08      4.67502 
         500     0.053333 -6.04433e-05  3.77692e-07      4.67502 
         500         0.12  -0.00023314  1.26292e-06      4.67502 
         500     0.213332 -0.000380928  1.98158e-06      4.67502 
         500     0.333332 -0.000460838  1.04163e-06      4.67502 
         500         0.48 -0.000474925 -2.70803e-06      4.67502 
         500     0.653331 -0.000456711 -9.29021e-06      4.67502 
         500     0.853332 -0.000431215 -1.77478e-05      4.67502 
         500         1.08 -0.000395856 -2.66526e-05      4.67502 
         500      1.33333  -0.00033676 -3.47954e-05      4.67502 
         500      1.61333 -0.000256518 -4.17808e-05      4.67502 
         500         1.92 -0.000169479 -4.75606e-05      4.67502 
         500      2.25333 -7.98671e-05 -5.21404e-05      4.67503 
         500      2.61333  1.46762e-05 -5.51146e-05      4.67503 
         500            3   0.00010092 -5.61221e-05      4.67504 
         550            0           -0           -0      4.19966 
         550     0.013333  0.000146503 -2.21715e-08      4.19966 
         550     0.053333  0.000217765  -2.9655e-07      4.19966 
         550         0.12  0.000321379 -1.10215e-06      4.19966 
         550     0.213332  0.000424649 -2.21594e-06      4.19966 
         550     0.333332  0.000494385 -2.88868e-06      4.19966 
         550         0.48  0.000524633 -2.40684e-06      4.19966 
         550     0.653331  0.000530108 -5.66713e-07      4.19966 
         550     0.853332  0.000524976  2.26413e-06      4.19966 
         550         1.08  0.000507999  5.27964e-06      4.19966 
         550      1.33333  0.000469169  7.63912e-06      4.19966 
         550      1.61333  0.000410055   9.0955e-06      4.19966 
         550         1.92  0.000344603  9.88548e-06      4.19965 
         550      2.25333  0.000277691   1.0345e-05      4.19965 
         550      2.61333  0.000206392  1.03718e-05      4.19965 
         550            3  0.000139471  9.93787e-06      4.19964 
         600            0           -0           -0      3.72576 
         600     0.013333  0.000150254  9.87767e-09      3.72576 
         600     0.053333  0.000220499  1.89382e-07      3.72576 
         600         0.12  0.000293891  1.14303e-06      3.72576 
         600     0.213332  0.000327135  4.01198e-06      3.72576 
         600     0.333332  0.000303051  9.94859e-06      3.72576 
         600         0.48  0.000245633  1.93068e-05      3.72576 
         600     0.653331  0.000190228  3.14505e-05      3.72576 
         600     0.853332  0.000154365  4.53025e-05      3.72576 
         600         1.08  0.000135113  5.99156e-05      3.72576 
         600      1.33333  0.000123339  7.46816e-05      3.72576 
         600      1.61333  0.000115848  8.91143e-05      3.72576 
         600         1.92  0.000108344  0.000102475      3.72576 
         600      2.25333  9.91684e-05   0.00011397      3.72576 
         600      2.61333  9.18655e-05  0.000122726      3.72575 
         600            3  8.55678e-05  0.000128018      3.72575 
         650            0            0            0      3.25351 
         650     0.013333  4.07527e-05   2.8005e-09      3.25351 
         650     0.053333 -0.000167249 -6.35966e-08      3.25351 
         650         0.12 -0.000405967 -9.91735e-07      3.25351 
         650     0.213332 -0.000567012 -4.89161e-06      3.25351 
         650     0.333332 -0.000603735 -1.42489e-05      3.25351 
         650         0.48 -0.000552434 -3.01237e-05      3.25351 
         650     0.653331 -0.000484863 -5.15819e-05      3.25351 
         650     0.853332   -0.0004419 -7.65477e-05      3.25351 
         650         1.08 -0.000412096 -0.000102555      3.25351 
         650      1.33333 -0.000360133 -0.000127333      3.25351 
         650      1.61333 -0.000280901 -0.000149713      3.25351 
         650         1.92 -0.000194582 -0.000169382      3.25351 
         650      2.25333  -0.00010738 -0.000185875      3.25351 
         650      2.61333 -1.71954e-05 -0.000197965      3.25352 
         650            3  7.05265e-05 -0.000204494      3.25352 
         700            0           -0           -0       2.7836 
         700     0.013333  0.000179377 -1.98183e-08       2.7836 
         700     0.053333  0.000335856 -2.25206e-07       2.7836 
         700         0.12  0.000539773 -5.40178e-07       2.7836 
         700     0.213332  0.000716035  4.90246e-08       2.7836 
         700     0.333332  0.000810668  3.15986e-06       2.7836 
         700         0.48  0.000828877  9.88111e-06       2.7836 
         700     0.653331    0.0008121  2.01855e-05       2.7836 
         700     0.853332  0.000794753  3.31837e-05       2.7836 
         700         1.08  0.000777281  4.73283e-05       2.7836 
         700      1.33333  0.000731023  6.05942e-05       2.7836 
         700      1.61333  0.000643032  7.15939e-05       2.7836 
         700         1.92    0.0005384   8.0427e-05       2.7836 
         700      2.25333  0.000432056   8.7554e-05       2.7836 
         700      2.61333  0.000319148  9.25637e-05      2.78359 
         700            3  0.000205634  9.48964e-05      2.78358 
         750            0           -0           -0      2.31471 
         750     0.013333  0.000124832  4.68921e-08      2.31471 
         750     0.053333  0.000118776  7.13436e-07      2.31471 
         750         0.12   7.5598e-05  3.28857e-06      2.31471 
         750     0.213332 -1.19177e-05  8.98883e-06      2.31471 
         750     0.333332 -0.000115911  1.80312e-05      2.31471 
         750         0.48 -0.000192818  2.95014e-05      2.31471 
         750     0.653331 -0.000221567   4.2187e-05      2.31471 
         750     0.853332 -0.000209082  5.53435e-05      2.31471 
         750         1.08 -0.000174391  6.86021e-05      2.31471 
         750      1.33333 -0.000135204   8.1587e-05      2.31471 
         750      1.61333 -9.62647e-05  9.39472e-05      2.31471 
         750         1.92 -5.72489e-05  0.000105301      2.31471 
         750      2.25333 -1.80433e-05  0.000114994      2.31471 
         750      2.61333  2.49432e-05  0.000122346      2.31471 
         750            3  6.75102e-05  0.000126715      2.31471 
         800            0            0            0      1.84795 
         800     0.013333  5.94315e-05 -1.02844e-07      1.84795 
         800     0.053333 -6.54689e-05 -1.62896e-06      1.84795 
         800         0.12 -0.000117523 -7.92457e-06      1.84795 
         800     0.213332  -8.2233e-06 -2.29576e-05      1.84795 
         800     0.333332  0.000221032 -4.86971e-05      1.84795 
         800         0.48  0.000447794 -8.37487e-05      1.84795 
         800     0.653331  0.000576363 -0.000124883      1.84795 
         800     0.853332   0.00058952  -0.00016939      1.84795 
         800         1.08  0.000526733  -0.00021534      1.84795 
         800      1.33333    0.0004523 -0.000260394      1.84795 
         800      1.61333  0.000404458  -0.00030206      1.84795 
         800         1.92  0.000370744 -0.000339052      1.84795 
         800      2.25333  0.000330707 -0.000370486      1.84794 
         800      2.61333   0.00027846 -0.000394557      1.84794 
         800            3  0.000223886 -0.000409222      1.84794 
         850            0            0            0      1.38319 
         850     0.013333  0.000294742  1.57185e-08      1.38319 
         850     0.053333  0.000740234  4.30729e-07      1.38319 
         850         0.12   0.00125909  3.26833e-06      1.38319 
         850     0.213332   0.00162017  1.30366e-05      1.38319 
         850     0.333332     0.001709  3.47912e-05      1.38319 
         850         0.48   0.00159597  7.07495e-05       1.3832 
         850     0.653331   0.00143715  0.000119271       1.3832 
         850     0.853332   0.00133859  0.000176613       1.3832 
         850         1.08   0.00130001  0.000238298       1.3832 
         850      1.33333   0.00124161  0.000299292       1.3832 
         850      1.61333   0.00110618  0.000355475      1.38319 
         850         1.92  0.000924827  0.000405544      1.38319 
         850      2.25333  0.000737422  0.000449207      1.38318 
         850      2.61333  0.000545361  0.000484435      1.38317 
         850            3   0.00034639  0.000508404      1.38316 
         900            0            0            0     0.919402 
         900     0.013333  6.16589e-05  1.20613e-07     0.919402 
         900     0.053333 -0.000130856    1.728e-06     0.919402 
         900         0.12  -0.00045219  7.26649e-06     0.919402 
         900     0.213332 -0.000826935   1.7735e-05     0.919402 
         900     0.333332  -0.00113711   3.1419e-05     0.919401 
         900         0.48  -0.00130939  4.53696e-05     0.919401 
         900     0.653331  -0.00135914  5.78726e-05       0.9194 
         900     0.853332  -0.00133761  6.94951e-05       0.9194 
         900         1.08  -0.00126293  8.24716e-05     0.919399 
         900      1.33333  -0.00111897  9.90165e-05     0.919399 
         900      1.61333  -0.00091777  0.000119012       0.9194 
         900         1.92 -0.000717301  0.000139652     0.919402 
         900      2.25333 -0.000534163  0.000158309     0.919407 
         900      2.61333 -0.000342149  0.000173992     0.919415 
         900            3 -0.000143194  0.000185949     0.919426 
         950            0            0            0     0.458908 
         950     0.013333  3.83194e-05 -1.94625e-08     0.458908 
         950     0.053333 -0.000172367 -3.63219e-07     0.458908 
         950         0.12 -0.000410432 -2.14165e-06     0.458908 
         950     0.213332 -0.000569004 -7.46046e-06     0.458908 
         950     0.333332  -0.00059829 -1.86659e-05     0.458907 
         950         0.48 -0.000522907 -3.70255e-05     0.458907 
         950     0.653331 -0.000409391 -6.21379e-05     0.458907 
         950     0.853332 -0.000313249 -9.25784e-05     0.458907 
         950         1.08 -0.000256061 -0.000126854     0.458907 
         950      1.33333 -0.000228997 -0.000163521     0.458907 
         950      1.61333 -0.000205604 -0.000200619     0.458907 
         950         1.92 -0.000158946 -0.000236129     0.458908 
         950      2.25333 -9.42325e-05 -0.000268484      0.45891 
         950      2.61333 -2.53677e-05 -0.000295823     0.458912 
         950            3  4.56124e-05  -0.00031738     0.458916 
        1000            0            0            0            0 
        1000     0.013333  2.04463e-05 -4.73252e-06           -0 
        1000     0.053333 -0.000300297 -2.04846e-05           -0 
        1000         0.12 -0.000757571 -4.60228e-05  3.92237e-17 
        1000     0.213332  -0.00147959  3.99144e-05  4.69078e-16 
        1000     0.333332  -0.00157186  0.000534367  2.60511e-16 
        1000         0.48  0.000227197  0.000775725           -0 
        1000     0.653331 -0.000475322  0.000906952            0 
        1000     0.853332  0.000735587   0.00161874            0 
        1000         1.08   0.00198994    0.0019025            0 
        1000      1.33333   0.00649752   0.00148854  1.33544e-16 
        1000      1.61333   0.00275962 -0.000500601           -0 
        1000         1.92   0.00209867 -0.000244041  4.03597e-16 
        1000      2.25333   0.00268118 -0.000119139  3.51067e-16 
        1000      2.61333   0.00418165  -0.00126787           -0 
        1000            3   0.00136556  -0.00148955   4.7073e-16 
