Variables = x, y, u, v, p

Zone, I=2080, F=POINT
         -50            0            0            0     -5.98085 
         -50      0.00048  -1.0152e-05 -5.69401e-10     -5.98085 
         -50     0.001922 -3.61751e-05 -2.39972e-09     -5.98085 
         -50     0.004326 -6.68893e-05 -5.81288e-09     -5.98085 
         -50      0.00769 -9.00988e-05 -1.12385e-08     -5.98085 
         -50     0.012017 -9.89347e-05 -1.91368e-08     -5.98085 
         -50     0.017304 -9.52725e-05 -2.99601e-08     -5.98085 
         -50     0.023553 -8.81041e-05 -4.42573e-08     -5.98085 
         -50     0.030763 -8.69813e-05 -6.28284e-08     -5.98085 
         -50     0.038936 -9.43207e-05 -8.68972e-08     -5.98085 
         -50     0.048069 -0.000102877 -1.18091e-07     -5.98085 
         -50     0.058163 -0.000103745 -1.58213e-07     -5.98085 
         -50     0.069219 -0.000101528 -2.08841e-07     -5.98085 
         -50     0.081236 -0.000111468 -2.71472e-07     -5.98085 
         -50     0.094215 -0.000110129 -3.48702e-07     -5.98085 
         -50     0.108155 -0.000113657 -4.41874e-07     -5.98085 
         -50     0.123056 -0.000115739  -5.5315e-07     -5.98085 
         -50     0.138918 -0.000117353 -6.84238e-07     -5.98085 
         -50     0.155744 -0.000118905 -8.36742e-07     -5.98085 
         -50     0.173529  -0.00012034 -1.01202e-06     -5.98085 
         -50     0.192276 -0.000121413 -1.21129e-06     -5.98084 
         -50     0.211984 -0.000122045 -1.43547e-06     -5.98084 
         -50     0.232655 -0.000122508 -1.68525e-06     -5.98084 
         -50     0.254285 -0.000123006 -1.96094e-06     -5.98084 
         -50     0.276877 -0.000122993 -2.26285e-06     -5.98084 
         -50     0.300431 -0.000123014   -2.591e-06     -5.98084 
         -50     0.324946 -0.000122898 -2.94479e-06     -5.98084 
         -50     0.350424 -0.000122709 -3.32359e-06     -5.98084 
         -50     0.376861 -0.000122495 -3.72655e-06     -5.98083 
         -50      0.40426  -0.00012229 -4.15277e-06     -5.98083 
         -50     0.432621 -0.000122117 -4.60123e-06     -5.98083 
         -50     0.461945 -0.000121988 -5.07088e-06     -5.98083 
         -50     0.492228  -0.00012191 -5.56055e-06     -5.98082 
         -50     0.523472 -0.000121888 -6.06917e-06     -5.98082 
         -50     0.555678 -0.000121923 -6.59558e-06     -5.98082 
         -50     0.588845 -0.000122003 -7.13851e-06     -5.98081 
         -50     0.622976 -0.000122081 -7.69632e-06     -5.98081 
         -50     0.658066  -0.00012216 -8.26237e-06     -5.98081 
         -50     0.694117 -0.000122193  -8.8327e-06      -5.9808 
         -50      0.73113  -0.00012213 -9.40336e-06      -5.9808 
         -50     0.769107 -0.000121927 -9.97042e-06     -5.98079 
         -50     0.808042 -0.000121549   -1.053e-05     -5.98078 
         -50     0.847939 -0.000120969 -1.10787e-05     -5.98078 
         -50     0.888797 -0.000120169 -1.16133e-05     -5.98077 
         -50      0.93062 -0.000119146 -1.21314e-05     -5.98076 
         -50       0.9734 -0.000117905 -1.26308e-05     -5.98075 
         -50      1.01714 -0.000116461 -1.31102e-05     -5.98075 
         -50      1.06185  -0.00011484 -1.35687e-05     -5.98074 
         -50      1.10751 -0.000113069 -1.40058e-05     -5.98073 
         -50      1.15414 -0.000111173  -1.4421e-05     -5.98072 
         -50      1.20173 -0.000109168 -1.48133e-05     -5.98071 
         -50      1.25028 -0.000107048 -1.51806e-05     -5.98069 
         -50      1.29979  -0.00010477 -1.55186e-05     -5.98068 
         -50      1.35026 -0.000102391 -1.58501e-05     -5.98067 
         -50       1.4017 -9.99989e-05 -1.61528e-05     -5.98065 
         -50      1.45409 -9.74526e-05 -1.63882e-05     -5.98064 
         -50      1.50745 -9.48261e-05 -1.65804e-05     -5.98062 
         -50      1.56176 -9.21811e-05 -1.67444e-05     -5.98061 
         -50      1.61705 -8.95664e-05 -1.68877e-05     -5.98059 
         -50      1.67329 -8.70201e-05 -1.70111e-05     -5.98057 
         -50      1.73049 -8.45695e-05 -1.71114e-05     -5.98055 
         -50      1.78865 -8.22329e-05 -1.71828e-05     -5.98053 
         -50      1.84778  -8.0022e-05  -1.7219e-05     -5.98051 
         -50      1.90786  -7.7944e-05 -1.72156e-05     -5.98049 
         -50      1.96891 -7.60029e-05 -1.71719e-05     -5.98047 
         -50      2.03092 -7.42031e-05 -1.70925e-05     -5.98044 
         -50      2.09389 -7.25506e-05 -1.69884e-05     -5.98042 
         -50      2.15782  -7.1056e-05  -1.6877e-05     -5.98039 
         -50      2.22272 -6.97351e-05 -1.67821e-05     -5.98036 
         -50      2.28857 -6.86103e-05 -1.67311e-05     -5.98033 
         -50      2.35539 -6.77104e-05 -1.67513e-05      -5.9803 
         -50      2.42317 -6.70692e-05  -1.6864e-05     -5.98027 
         -50      2.49191 -6.67228e-05 -1.70756e-05     -5.98024 
         -50      2.56161 -6.67038e-05 -1.73656e-05      -5.9802 
         -50      2.63226 -6.70347e-05 -1.76711e-05     -5.98017 
         -50      2.70389 -6.77165e-05  -1.7866e-05     -5.98013 
         -50      2.77648 -6.84484e-05 -1.80068e-05     -5.98009 
         -50      2.85002 -6.88546e-05  -1.8345e-05     -5.98005 
         -50      2.92453 -6.93023e-05 -1.85646e-05     -5.98001 
         -50            3 -6.97575e-05 -1.87281e-05     -5.97996 
         -25            0 -7.85526e-20 -2.24838e-24      -5.7396 
         -25      0.00048 -7.36672e-06 -2.11943e-10      -5.7396 
         -25     0.001922 -2.62447e-05 -7.60441e-10      -5.7396 
         -25     0.004326 -4.85098e-05 -1.37151e-09      -5.7396 
         -25      0.00769 -6.53071e-05 -1.56677e-09      -5.7396 
         -25     0.012017 -7.16659e-05 -6.57257e-10      -5.7396 
         -25     0.017304 -6.89857e-05  2.22596e-09      -5.7396 
         -25     0.023553 -6.38487e-05  8.05209e-09      -5.7396 
         -25     0.030763 -6.32445e-05  1.77648e-08      -5.7396 
         -25     0.038936  -6.8966e-05  3.21622e-08      -5.7396 
         -25     0.048069 -7.57679e-05  5.18148e-08      -5.7396 
         -25     0.058163 -7.71895e-05  7.71111e-08      -5.7396 
         -25     0.069219  -7.6596e-05  1.08338e-07      -5.7396 
         -25     0.081236 -8.50877e-05  1.45562e-07      -5.7396 
         -25     0.094215 -8.55983e-05  1.88136e-07      -5.7396 
         -25     0.108155 -8.98685e-05  2.35559e-07      -5.7396 
         -25     0.123056 -9.32789e-05  2.86689e-07      -5.7396 
         -25     0.138918 -9.65113e-05  3.40239e-07      -5.7396 
         -25     0.155744 -9.98288e-05  3.94689e-07      -5.7396 
         -25     0.173529 -0.000103151  4.48325e-07      -5.7396 
         -25     0.192276 -0.000106261  4.99373e-07      -5.7396 
         -25     0.211984 -0.000109066   5.4606e-07      -5.7396 
         -25     0.232655 -0.000111728  5.86725e-07      -5.7396 
         -25     0.254285 -0.000114364  6.19886e-07      -5.7396 
         -25     0.276877 -0.000116551  6.44193e-07      -5.7396 
         -25     0.300431 -0.000118664  6.58861e-07      -5.7396 
         -25     0.324946  -0.00012056  6.63219e-07      -5.7396 
         -25     0.350424 -0.000122271  6.56789e-07      -5.7396 
         -25     0.376861 -0.000123817  6.39538e-07      -5.7396 
         -25      0.40426 -0.000125211   6.1184e-07      -5.7396 
         -25     0.432621 -0.000126457  5.74404e-07      -5.7396 
         -25     0.461945 -0.000127552  5.28168e-07      -5.7396 
         -25     0.492228 -0.000128491  4.74202e-07      -5.7396 
         -25     0.523472 -0.000129267  4.13577e-07     -5.73959 
         -25     0.555678 -0.000129872  3.47329e-07     -5.73959 
         -25     0.588845 -0.000130295  2.76502e-07     -5.73959 
         -25     0.622976 -0.000130506    2.034e-07     -5.73959 
         -25     0.658066 -0.000130505  1.35344e-07     -5.73959 
         -25     0.694117 -0.000130265  5.59693e-08     -5.73959 
         -25      0.73113 -0.000129781 -2.51625e-08     -5.73958 
         -25     0.769107  -0.00012905 -1.03046e-07     -5.73958 
         -25     0.808042 -0.000128073 -1.76426e-07     -5.73958 
         -25     0.847939 -0.000126852 -2.46763e-07     -5.73958 
         -25     0.888797 -0.000125395 -3.16927e-07     -5.73957 
         -25      0.93062 -0.000123715 -3.89876e-07     -5.73957 
         -25       0.9734 -0.000121829 -4.67382e-07     -5.73957 
         -25      1.01714 -0.000119758 -5.49169e-07     -5.73956 
         -25      1.06185 -0.000117529 -6.32607e-07     -5.73956 
         -25      1.10751  -0.00011517 -7.13498e-07     -5.73956 
         -25      1.15414 -0.000112714 -7.88325e-07     -5.73955 
         -25      1.20173 -0.000110192 -8.58566e-07     -5.73955 
         -25      1.25028 -0.000107636 -9.37831e-07     -5.73954 
         -25      1.29979 -0.000105066 -1.06253e-06     -5.73954 
         -25      1.35026 -0.000102545 -1.16761e-06     -5.73953 
         -25       1.4017 -9.98667e-05 -1.18119e-06     -5.73953 
         -25      1.45409 -9.70713e-05 -1.27464e-06     -5.73952 
         -25      1.50745 -9.43625e-05 -1.41615e-06     -5.73952 
         -25      1.56176 -9.18602e-05 -1.57933e-06     -5.73951 
         -25      1.61705 -8.96091e-05 -1.74339e-06      -5.7395 
         -25      1.67329 -8.75914e-05 -1.89302e-06      -5.7395 
         -25      1.73049 -8.57399e-05 -2.01839e-06     -5.73949 
         -25      1.78865 -8.39556e-05 -2.11481e-06     -5.73948 
         -25      1.84778 -8.21253e-05 -2.18245e-06     -5.73947 
         -25      1.90786 -8.01411e-05 -2.22593e-06     -5.73946 
         -25      1.96891 -7.79177e-05 -2.25391e-06     -5.73945 
         -25      2.03092 -7.54105e-05 -2.27873e-06     -5.73944 
         -25      2.09389 -7.26294e-05 -2.31599e-06     -5.73943 
         -25      2.15782  -6.9649e-05 -2.38436e-06     -5.73942 
         -25      2.22272 -6.66104e-05 -2.50555e-06     -5.73941 
         -25      2.28857 -6.37164e-05 -2.70454e-06      -5.7394 
         -25      2.35539 -6.12129e-05 -3.01023e-06     -5.73939 
         -25      2.42317 -5.93571e-05 -3.45658e-06     -5.73938 
         -25      2.49191 -5.83663e-05 -4.08419e-06     -5.73936 
         -25      2.56161 -5.83445e-05 -4.94306e-06     -5.73935 
         -25      2.63226 -5.91822e-05 -6.09592e-06     -5.73933 
         -25      2.70389 -6.04248e-05 -7.62304e-06     -5.73932 
         -25      2.77648 -6.17439e-05 -9.20913e-06      -5.7393 
         -25      2.85002 -6.29481e-05 -9.51084e-06     -5.73929 
         -25      2.92453 -6.36178e-05 -1.00622e-05     -5.73927 
         -25            3 -6.38685e-05 -1.07891e-05     -5.73925 
           0            0 -6.34714e-20 -1.08046e-24     -5.54994 
           0      0.00048   -5.944e-06 -1.01424e-10     -5.54994 
           0     0.001922 -2.10786e-05 -3.57436e-10     -5.54994 
           0     0.004326 -3.86075e-05 -6.08744e-10     -5.54994 
           0      0.00769 -5.11314e-05 -5.51361e-10     -5.54994 
           0     0.012017 -5.45139e-05  3.05528e-10     -5.54994 
           0     0.017304 -4.99695e-05  2.67232e-09     -5.54994 
           0     0.023553  -4.3064e-05  7.49341e-09     -5.54994 
           0     0.030763 -3.97143e-05  1.59346e-08     -5.54994 
           0     0.038936 -4.14885e-05   2.9368e-08     -5.54994 
           0     0.048069 -4.40636e-05  4.93516e-08     -5.54994 
           0     0.058163 -4.21008e-05  7.76625e-08     -5.54994 
           0     0.069219 -3.84991e-05  1.16316e-07     -5.54994 
           0     0.081236 -4.26395e-05   1.6746e-07     -5.54994 
           0     0.094215 -4.02877e-05  2.33076e-07     -5.54994 
           0     0.108155 -4.13482e-05  3.15323e-07     -5.54994 
           0     0.123056 -4.19994e-05  4.16017e-07     -5.54994 
           0     0.138918   -4.285e-05  5.36791e-07     -5.54994 
           0     0.155744 -4.41419e-05  6.78978e-07     -5.54994 
           0     0.173529 -4.58132e-05   8.4344e-07     -5.54994 
           0     0.192276 -4.76724e-05  1.03065e-06     -5.54994 
           0     0.211984 -4.96148e-05  1.24055e-06     -5.54994 
           0     0.232655  -5.1739e-05  1.47269e-06     -5.54994 
           0     0.254285 -5.40977e-05  1.72614e-06     -5.54994 
           0     0.276877 -5.62831e-05  1.99973e-06     -5.54994 
           0     0.300431 -5.85544e-05  2.29163e-06     -5.54994 
           0     0.324946 -6.07393e-05  2.60015e-06     -5.54994 
           0     0.350424 -6.28159e-05  2.92344e-06     -5.54994 
           0     0.376861 -6.47614e-05  3.25933e-06     -5.54994 
           0      0.40426 -6.65554e-05  3.60564e-06     -5.54994 
           0     0.432621 -6.81814e-05  3.96015e-06     -5.54994 
           0     0.461945 -6.96301e-05  4.32071e-06     -5.54994 
           0     0.492228 -7.09012e-05  4.68526e-06     -5.54994 
           0     0.523472 -7.20041e-05  5.05195e-06     -5.54994 
           0     0.555678  -7.2956e-05  5.41887e-06     -5.54994 
           0     0.588845 -7.37749e-05  5.78379e-06     -5.54993 
           0     0.622976 -7.44693e-05  6.14391e-06     -5.54993 
           0     0.658066  -7.5073e-05  6.50038e-06     -5.54993 
           0     0.694117 -7.55932e-05  6.84859e-06     -5.54993 
           0      0.73113 -7.60485e-05  7.18789e-06     -5.54993 
           0     0.769107 -7.64494e-05   7.5177e-06     -5.54993 
           0     0.808042  -7.6799e-05  7.83742e-06     -5.54993 
           0     0.847939 -7.70936e-05  8.14668e-06     -5.54993 
           0     0.888797 -7.73235e-05  8.44516e-06     -5.54993 
           0      0.93062 -7.74751e-05  8.73277e-06     -5.54992 
           0       0.9734 -7.75328e-05  9.00947e-06     -5.54992 
           0      1.01714 -7.74812e-05  9.27548e-06     -5.54992 
           0      1.06185 -7.73077e-05  9.53104e-06     -5.54992 
           0      1.10751 -7.70047e-05  9.77642e-06     -5.54992 
           0      1.15414  -7.6572e-05  1.00118e-05     -5.54992 
           0      1.20173 -7.60178e-05  1.02367e-05     -5.54991 
           0      1.25028 -7.53592e-05  1.04503e-05     -5.54991 
           0      1.29979 -7.46208e-05  1.06503e-05     -5.54991 
           0      1.35026 -7.37937e-05  1.08153e-05     -5.54991 
           0       1.4017 -7.27482e-05  1.09753e-05      -5.5499 
           0      1.45409 -7.15191e-05  1.11494e-05      -5.5499 
           0      1.50745 -7.01443e-05   1.1311e-05      -5.5499 
           0      1.56176 -6.86606e-05  1.14427e-05      -5.5499 
           0      1.61705 -6.71021e-05  1.15354e-05     -5.54989 
           0      1.67329 -6.54993e-05  1.15874e-05     -5.54989 
           0      1.73049 -6.38771e-05  1.16026e-05     -5.54989 
           0      1.78865 -6.22545e-05  1.15893e-05     -5.54988 
           0      1.84778 -6.06428e-05  1.15578e-05     -5.54988 
           0      1.90786 -5.90461e-05  1.15191e-05     -5.54987 
           0      1.96891 -5.74605e-05  1.14823e-05     -5.54987 
           0      2.03092 -5.58752e-05  1.14534e-05     -5.54987 
           0      2.09389 -5.42734e-05  1.14335e-05     -5.54986 
           0      2.15782 -5.26362e-05  1.14176e-05     -5.54986 
           0      2.22272 -5.09446e-05  1.13946e-05     -5.54985 
           0      2.28857 -4.91862e-05  1.13472e-05     -5.54984 
           0      2.35539 -4.73618e-05  1.12538e-05     -5.54984 
           0      2.42317 -4.54945e-05   1.1092e-05     -5.54983 
           0      2.49191 -4.36423e-05  1.08426e-05     -5.54983 
           0      2.56161  -4.1912e-05   1.0498e-05     -5.54982 
           0      2.63226 -4.04776e-05  1.00712e-05     -5.54981 
           0      2.70389 -3.96023e-05  9.60937e-06     -5.54981 
           0      2.77648 -3.95728e-05   8.9613e-06      -5.5498 
           0      2.85002 -3.98962e-05   8.0082e-06     -5.54979 
           0      2.92453 -4.03184e-05  7.23322e-06     -5.54978 
           0            3 -4.07493e-05  6.65972e-06     -5.54978 
          20            0 -5.73562e-20 -6.45967e-25      -5.4163 
          20      0.00048 -5.36858e-06 -3.65053e-11      -5.4163 
          20     0.001922 -1.90065e-05  1.72267e-10      -5.4163 
          20     0.004326 -3.47002e-05   1.5832e-09      -5.4163 
          20      0.00769 -4.56965e-05  5.78691e-09      -5.4163 
          20     0.012017 -4.82465e-05  1.50038e-08      -5.4163 
          20     0.017304 -4.35199e-05  3.20342e-08      -5.4163 
          20     0.023553 -3.66828e-05  6.02157e-08      -5.4163 
          20     0.030763 -3.32233e-05  1.03309e-07      -5.4163 
          20     0.038936 -3.46348e-05  1.65406e-07      -5.4163 
          20     0.048069 -3.69972e-05  2.50752e-07      -5.4163 
          20     0.058163 -3.54475e-05   3.6369e-07      -5.4163 
          20     0.069219 -3.26696e-05  5.08516e-07      -5.4163 
          20     0.081236 -3.72807e-05  6.89268e-07      -5.4163 
          20     0.094215 -3.62119e-05  9.09474e-07      -5.4163 
          20     0.108155  -3.8531e-05  1.17218e-06      -5.4163 
          20     0.123056 -4.06961e-05  1.47966e-06      -5.4163 
          20     0.138918 -4.32198e-05  1.83342e-06      -5.4163 
          20     0.155744 -4.62704e-05   2.2342e-06      -5.4163 
          20     0.173529  -4.9732e-05  2.68166e-06      -5.4163 
          20     0.192276 -5.33696e-05  3.17485e-06      -5.4163 
          20     0.211984 -5.70298e-05  3.71199e-06      -5.4163 
          20     0.232655 -6.07513e-05  4.29081e-06      -5.4163 
          20     0.254285 -6.45369e-05  4.90839e-06      -5.4163 
          20     0.276877 -6.79769e-05  5.56165e-06      -5.4163 
          20     0.300431 -7.12807e-05  6.24754e-06      -5.4163 
          20     0.324946 -7.42717e-05  6.96259e-06      -5.4163 
          20     0.350424 -7.69193e-05  7.70365e-06      -5.4163 
          20     0.376861 -7.91967e-05  8.46786e-06      -5.4163 
          20      0.40426 -8.10838e-05  9.25297e-06      -5.4163 
          20     0.432621 -8.25676e-05   1.0057e-05      -5.4163 
          20     0.461945 -8.36441e-05  1.08781e-05      -5.4163 
          20     0.492228 -8.43182e-05  1.17144e-05     -5.41629 
          20     0.523472 -8.46042e-05  1.25643e-05     -5.41629 
          20     0.555678 -8.45239e-05  1.34257e-05     -5.41629 
          20     0.588845 -8.41023e-05  1.42972e-05     -5.41629 
          20     0.622976 -8.33624e-05  1.51784e-05     -5.41629 
          20     0.658066 -8.23554e-05   1.6066e-05     -5.41629 
          20     0.694117 -8.11117e-05  1.69544e-05     -5.41629 
          20      0.73113 -7.96907e-05  1.78434e-05     -5.41629 
          20     0.769107 -7.81522e-05  1.87307e-05     -5.41629 
          20     0.808042 -7.65541e-05  1.96119e-05     -5.41629 
          20     0.847939 -7.49494e-05  2.04818e-05     -5.41629 
          20     0.888797 -7.33849e-05  2.13349e-05     -5.41629 
          20      0.93062 -7.18978e-05  2.21658e-05     -5.41629 
          20       0.9734 -7.05156e-05  2.29698e-05     -5.41629 
          20      1.01714 -6.92542e-05  2.37442e-05     -5.41629 
          20      1.06185 -6.81188e-05  2.44874e-05     -5.41629 
          20      1.10751 -6.71058e-05  2.51996e-05     -5.41628 
          20      1.15414 -6.62072e-05  2.58811e-05     -5.41628 
          20      1.20173 -6.54173e-05  2.65307e-05     -5.41628 
          20      1.25028 -6.47433e-05  2.71424e-05     -5.41628 
          20      1.29979   -6.422e-05  2.77001e-05     -5.41628 
          20      1.35026 -6.37229e-05  2.82191e-05     -5.41628 
          20       1.4017  -6.2837e-05   2.8729e-05     -5.41628 
          20      1.45409 -6.17688e-05   2.9172e-05     -5.41627 
          20      1.50745 -6.05613e-05  2.95542e-05     -5.41627 
          20      1.56176 -5.92525e-05  2.98801e-05     -5.41627 
          20      1.61705 -5.78756e-05  3.01523e-05     -5.41627 
          20      1.67329 -5.64589e-05  3.03723e-05     -5.41627 
          20      1.73049  -5.5026e-05  3.05402e-05     -5.41626 
          20      1.78865 -5.35961e-05  3.06555e-05     -5.41626 
          20      1.84778 -5.21842e-05  3.07175e-05     -5.41626 
          20      1.90786 -5.08025e-05  3.07251e-05     -5.41626 
          20      1.96891 -4.94592e-05  3.06783e-05     -5.41625 
          20      2.03092   -4.816e-05  3.05777e-05     -5.41625 
          20      2.09389 -4.69073e-05  3.04259e-05     -5.41625 
          20      2.15782 -4.57011e-05   3.0227e-05     -5.41624 
          20      2.22272 -4.45372e-05  2.99878e-05     -5.41624 
          20      2.28857 -4.34072e-05  2.97176e-05     -5.41624 
          20      2.35539 -4.22961e-05  2.94284e-05     -5.41623 
          20      2.42317 -4.11802e-05  2.91349e-05     -5.41623 
          20      2.49191 -4.00237e-05   2.8854e-05     -5.41623 
          20      2.56161 -3.87734e-05  2.86042e-05     -5.41622 
          20      2.63226 -3.73533e-05  2.84047e-05     -5.41622 
          20      2.70389 -3.56559e-05  2.82733e-05     -5.41621 
          20      2.77648 -3.38371e-05  2.83282e-05     -5.41621 
          20      2.85002 -3.20436e-05  2.86652e-05     -5.41621 
          20      2.92453 -3.01092e-05  2.85745e-05      -5.4162 
          20            3 -2.80858e-05   2.8487e-05      -5.4162 
          40            0 -5.50867e-20 -4.00057e-25      -5.2917 
          40      0.00048 -5.15972e-06  2.25861e-12      -5.2917 
          40     0.001922 -1.83089e-05  5.03924e-10      -5.2917 
          40     0.004326 -3.35809e-05  2.98056e-09      -5.2917 
          40      0.00769  -4.4603e-05  9.84949e-09      -5.2917 
          40     0.012017 -4.78465e-05  2.44216e-08      -5.2917 
          40     0.017304 -4.44328e-05  5.07789e-08      -5.2917 
          40     0.023553 -3.92607e-05  9.36744e-08      -5.2917 
          40     0.030763 -3.75292e-05  1.58329e-07      -5.2917 
          40     0.038936  -4.0655e-05  2.50275e-07      -5.2917 
          40     0.048069 -4.49276e-05  3.75059e-07      -5.2917 
          40     0.058163 -4.57368e-05  5.38126e-07      -5.2917 
          40     0.069219 -4.55976e-05  7.44579e-07      -5.2917 
          40     0.081236 -5.26243e-05  9.98897e-07      -5.2917 
          40     0.094215 -5.44195e-05  1.30472e-06      -5.2917 
          40     0.108155 -5.95071e-05  1.66472e-06      -5.2917 
          40     0.123056 -6.44836e-05  2.08046e-06      -5.2917 
          40     0.138918 -6.97764e-05  2.55235e-06      -5.2917 
          40     0.155744  -7.5487e-05   3.0797e-06     -5.29169 
          40     0.173529 -8.14502e-05  3.66046e-06     -5.29169 
          40     0.192276 -8.73945e-05  4.29185e-06     -5.29169 
          40     0.211984 -9.31326e-05  4.97018e-06     -5.29169 
          40     0.232655 -9.86684e-05  5.69125e-06     -5.29169 
          40     0.254285 -0.000103982  6.45029e-06     -5.29169 
          40     0.276877 -0.000108673   7.2426e-06     -5.29169 
          40     0.300431 -0.000112936  8.06378e-06     -5.29169 
          40     0.324946 -0.000116612  8.90946e-06     -5.29169 
          40     0.350424 -0.000119684  9.77589e-06     -5.29169 
          40     0.376861 -0.000122145  1.06597e-05     -5.29169 
          40      0.40426 -0.000123994  1.15586e-05     -5.29169 
          40     0.432621  -0.00012524  1.24708e-05     -5.29169 
          40     0.461945   -0.0001259  1.33949e-05     -5.29169 
          40     0.492228 -0.000125997  1.43302e-05     -5.29169 
          40     0.523472 -0.000125558  1.52762e-05     -5.29169 
          40     0.555678 -0.000124614  1.62324e-05     -5.29169 
          40     0.588845 -0.000123196  1.71987e-05     -5.29169 
          40     0.622976 -0.000121331   1.8175e-05     -5.29169 
          40     0.658066 -0.000119073  1.91595e-05     -5.29169 
          40     0.694117 -0.000116456  2.01509e-05     -5.29169 
          40      0.73113 -0.000113538  2.11461e-05     -5.29169 
          40     0.769107 -0.000110383  2.21415e-05     -5.29169 
          40     0.808042 -0.000107061  2.31332e-05     -5.29169 
          40     0.847939  -0.00010364   2.4117e-05     -5.29169 
          40     0.888797 -0.000100189  2.50882e-05     -5.29169 
          40      0.93062 -9.67677e-05  2.60422e-05     -5.29169 
          40       0.9734 -9.34326e-05  2.69739e-05     -5.29169 
          40      1.01714 -9.02261e-05  2.78789e-05     -5.29169 
          40      1.06185 -8.71802e-05  2.87524e-05     -5.29169 
          40      1.10751 -8.43146e-05  2.95906e-05     -5.29169 
          40      1.15414 -8.16395e-05  3.03902e-05     -5.29169 
          40      1.20173 -7.91615e-05  3.11487e-05     -5.29168 
          40      1.25028 -7.68915e-05  3.18651e-05     -5.29168 
          40      1.29979 -7.48599e-05    3.254e-05     -5.29168 
          40      1.35026 -7.29746e-05  3.31716e-05     -5.29168 
          40       1.4017 -7.05545e-05  3.37428e-05     -5.29168 
          40      1.45409 -6.77415e-05  3.42556e-05     -5.29168 
          40      1.50745  -6.4719e-05  3.47115e-05     -5.29168 
          40      1.56176 -6.16331e-05  3.51104e-05     -5.29168 
          40      1.61705 -5.85943e-05  3.54516e-05     -5.29168 
          40      1.67329 -5.56803e-05  3.57332e-05     -5.29167 
          40      1.73049 -5.29382e-05   3.5953e-05     -5.29167 
          40      1.78865 -5.03902e-05  3.61084e-05     -5.29167 
          40      1.84778  -4.8038e-05  3.61972e-05     -5.29167 
          40      1.90786 -4.58695e-05  3.62173e-05     -5.29167 
          40      1.96891 -4.38641e-05  3.61676e-05     -5.29167 
          40      2.03092 -4.19997e-05  3.60481e-05     -5.29166 
          40      2.09389 -4.02582e-05  3.58602e-05     -5.29166 
          40      2.15782 -3.86314e-05   3.5607e-05     -5.29166 
          40      2.22272 -3.71234e-05   3.5293e-05     -5.29166 
          40      2.28857 -3.57535e-05  3.49245e-05     -5.29166 
          40      2.35539 -3.45537e-05  3.45091e-05     -5.29165 
          40      2.42317 -3.35644e-05   3.4055e-05     -5.29165 
          40      2.49191  -3.2824e-05  3.35708e-05     -5.29165 
          40      2.56161 -3.23524e-05  3.30633e-05     -5.29165 
          40      2.63226 -3.21276e-05  3.25365e-05     -5.29164 
          40      2.70389 -3.20527e-05  3.19894e-05     -5.29164 
          40      2.77648 -3.22395e-05  3.15904e-05     -5.29164 
          40      2.85002 -3.24181e-05  3.13719e-05     -5.29163 
          40      2.92453 -3.20364e-05  3.11095e-05     -5.29163 
          40            3 -3.12939e-05  3.09069e-05     -5.29163 
          60            0            0            0     -5.17266 
          60      0.00048 -5.03392e-06  2.35795e-11     -5.17266 
          60     0.001922 -1.78908e-05  6.71709e-10     -5.17266 
          60     0.004326 -3.29179e-05  3.65967e-09     -5.17266 
          60      0.00769 -4.39756e-05  1.17786e-08     -5.17266 
          60     0.012017 -4.76662e-05  2.88161e-08     -5.17266 
          60     0.017304  -4.5073e-05  5.93871e-08     -5.17266 
          60     0.023553 -4.09196e-05  1.08795e-07     -5.17266 
          60     0.030763 -4.02167e-05  1.82778e-07     -5.17266 
          60     0.038936 -4.43262e-05  2.87313e-07     -5.17266 
          60     0.048069 -4.96639e-05  4.28268e-07     -5.17266 
          60     0.058163 -5.17749e-05  6.11254e-07     -5.17266 
          60     0.069219 -5.30678e-05  8.41353e-07     -5.17266 
          60     0.081236 -6.13444e-05  1.12282e-06     -5.17266 
          60     0.094215 -6.46318e-05  1.45891e-06     -5.17266 
          60     0.108155 -7.11213e-05  1.85176e-06     -5.17266 
          60     0.123056  -7.7507e-05  2.30221e-06     -5.17266 
          60     0.138918 -8.41768e-05  2.80989e-06     -5.17266 
          60     0.155744 -9.12075e-05  3.37332e-06     -5.17266 
          60     0.173529 -9.84214e-05  3.98967e-06     -5.17266 
          60     0.192276 -0.000105544  4.65547e-06     -5.17266 
          60     0.211984 -0.000112386   5.3664e-06     -5.17266 
          60     0.232655 -0.000118947  6.11786e-06     -5.17266 
          60     0.254285 -0.000125207  6.90488e-06     -5.17266 
          60     0.276877 -0.000130786  7.72287e-06     -5.17266 
          60     0.300431 -0.000135875  8.56733e-06     -5.17266 
          60     0.324946 -0.000140328  9.43448e-06     -5.17266 
          60     0.350424 -0.000144135  1.03214e-05     -5.17266 
          60     0.376861 -0.000147292  1.12255e-05     -5.17266 
          60      0.40426 -0.000149802  1.21455e-05     -5.17265 
          60     0.432621  -0.00015167  1.30807e-05     -5.17265 
          60     0.461945 -0.000152906  1.40314e-05     -5.17265 
          60     0.492228 -0.000153519  1.49983e-05     -5.17265 
          60     0.523472 -0.000153518  1.59827e-05     -5.17265 
          60     0.555678 -0.000152912  1.69862e-05     -5.17265 
          60     0.588845 -0.000151707    1.801e-05     -5.17265 
          60     0.622976 -0.000149902   1.9055e-05     -5.17265 
          60     0.658066 -0.000147526  2.01229e-05     -5.17265 
          60     0.694117 -0.000144598  2.12117e-05     -5.17265 
          60      0.73113 -0.000141155  2.23205e-05     -5.17265 
          60     0.769107 -0.000137258  2.34469e-05     -5.17265 
          60     0.808042 -0.000132983  2.45867e-05     -5.17265 
          60     0.847939 -0.000128421  2.57345e-05     -5.17265 
          60     0.888797 -0.000123672  2.68841e-05     -5.17265 
          60      0.93062 -0.000118839  2.80287e-05     -5.17265 
          60       0.9734 -0.000114022   2.9161e-05     -5.17265 
          60      1.01714 -0.000109313  3.02741e-05     -5.17265 
          60      1.06185 -0.000104788  3.13617e-05     -5.17265 
          60      1.10751 -0.000100503  3.24181e-05     -5.17265 
          60      1.15414 -9.64931e-05  3.34388e-05     -5.17265 
          60      1.20173 -9.27737e-05  3.44197e-05     -5.17265 
          60      1.25028 -8.93431e-05  3.53568e-05     -5.17265 
          60      1.29979 -8.61968e-05  3.62451e-05     -5.17265 