Variables = x, y, u, v, p

Zone, I=416, F=POINT
         -50            0            0            0      35.6462 
         -50     0.013333  0.000388385   9.8276e-08      35.6462 
         -50     0.053333  0.000387468  5.33533e-07      35.6462 
         -50         0.12  0.000384077  1.60405e-06      35.6461 
         -50     0.213332  0.000386038  3.44331e-06      35.6461 
         -50     0.333332  0.000390348  5.97358e-06      35.6461 
         -50         0.48  0.000397581  9.16066e-06       35.646 
         -50     0.653331  0.000407248  1.30262e-05      35.6459 
         -50     0.853332  0.000413625  1.72002e-05      35.6457 
         -50         1.08  0.000409409  2.09864e-05      35.6455 
         -50      1.33333  0.000395777  2.40085e-05      35.6451 
         -50      1.61333  0.000377829  2.64815e-05      35.6446 
         -50         1.92   0.00036375  2.80912e-05       35.644 
         -50      2.25333  0.000346938  2.77485e-05      35.6431 
         -50      2.61333    0.0003281  2.39643e-05      35.6421 
         -50            3   0.00032052  1.82405e-05      35.6408 
         -25            0  2.94833e-19  1.29727e-23      34.1966 
         -25     0.013333  0.000281027  2.07392e-08      34.1966 
         -25     0.053333  0.000280726 -4.50576e-08      34.1966 
         -25         0.12   0.00028734  -4.4634e-07      34.1966 
         -25     0.213332  0.000303014 -1.29558e-06      34.1966 
         -25     0.333332  0.000316156 -2.44967e-06      34.1966 
         -25         0.48  0.000322285 -3.68139e-06      34.1965 
         -25     0.653331  0.000321179 -4.91426e-06      34.1965 
         -25     0.853332  0.000312599 -6.22897e-06      34.1964 
         -25         1.08  0.000299356 -7.53061e-06      34.1963 
         -25      1.33333  0.000288321 -8.40543e-06      34.1962 
         -25      1.61333  0.000279542 -8.64334e-06       34.196 
         -25         1.92  0.000271644 -7.82181e-06      34.1957 
         -25      2.25333  0.000261704 -6.66567e-06      34.1954 
         -25      2.61333  0.000263737 -7.35197e-08       34.195 
         -25            3    0.0002793   1.1684e-05      34.1945 
           0            0  2.49745e-19  6.22253e-24      33.0592 
           0     0.013333  0.000242317  9.53374e-09      33.0592 
           0     0.053333  0.000258064 -8.53719e-09      33.0592 
           0         0.12  0.000278834  -4.1656e-08      33.0592 
           0     0.213332  0.000299541  1.37916e-07      33.0592 
           0     0.333332  0.000312353  8.22725e-07      33.0592 
           0         0.48  0.000319414  2.11221e-06      33.0592 
           0     0.653331  0.000322405  3.80199e-06      33.0592 
           0     0.853332  0.000316787  5.43571e-06      33.0592 
           0         1.08  0.000299907  6.66284e-06      33.0591 
           0      1.33333  0.000277486  7.55485e-06      33.0591 
           0      1.61333  0.000252308  8.20518e-06       33.059 
           0         1.92  0.000225947  8.33411e-06      33.0588 
           0      2.25333  0.000203616  8.25438e-06      33.0587 
           0      2.61333  0.000188734  7.72516e-06      33.0585 
           0            3   0.00018465  7.65556e-06      33.0582 
          20            0  2.25359e-19  3.71573e-24      32.2583 
          20     0.013333   0.00021244  6.99509e-09      32.2583 
          20     0.053333  0.000201694 -6.45554e-09      32.2583 
          20         0.12  0.000192679 -1.59951e-07      32.2583 
          20     0.213332  0.000193476  -6.3733e-07      32.2583 
          20     0.333332  0.000199095 -1.54621e-06      32.2583 
          20         0.48  0.000204764 -2.81389e-06      32.2583 
          20     0.653331  0.000208438 -4.26953e-06      32.2583 
          20     0.853332  0.000210233 -5.78479e-06      32.2582 
          20         1.08  0.000210335 -7.28841e-06      32.2582 
          20      1.33333  0.000209266 -8.65542e-06      32.2582 
          20      1.61333  0.000205305  -9.7347e-06      32.2581 
          20         1.92  0.000198762  -1.0233e-05       32.258 
          20      2.25333  0.000194792 -9.99936e-06      32.2579 
          20      2.61333  0.000197443 -8.40772e-06      32.2578 
          20            3  0.000206026 -5.27311e-06      32.2577 
          40            0  2.10361e-19  2.29903e-24      31.5117 
          40     0.013333  0.000193841  5.13856e-09      31.5117 
          40     0.053333  0.000166056 -1.21973e-08      31.5117 
          40         0.12  0.000138369 -2.58565e-07      31.5117 
          40     0.213332  0.000127481 -1.15808e-06      31.5117 
          40     0.333332  0.000130389 -3.05835e-06      31.5117 
          40         0.48  0.000137408 -5.95935e-06      31.5117 
          40     0.653331  0.000141884 -9.56091e-06      31.5117 
          40     0.853332  0.000145623 -1.33728e-05      31.5117 
          40         1.08  0.000153526 -1.68869e-05      31.5117 
          40      1.33333  0.000165698 -1.98107e-05      31.5116 
          40      1.61333  0.000178937 -2.20195e-05      31.5116 
          40         1.92  0.000190448 -2.31007e-05      31.5116 
          40      2.25333  0.000194701  -2.3281e-05      31.5115 
          40      2.61333  0.000193779 -2.22613e-05      31.5114 
          40            3  0.000194612 -2.00557e-05      31.5113 
          60            0            0            0      30.7987 
          60     0.013333  0.000187557  1.10026e-08      30.7987 
          60     0.053333  0.000160481  1.00919e-07      30.7987 
          60         0.12  0.000128398  2.76722e-07      30.7987 
          60     0.213332  0.000107522  2.92646e-07      30.7987 
          60     0.333332  9.95857e-05 -2.01771e-07      30.7987 
          60         0.48  9.94964e-05 -1.34738e-06      30.7987 
          60     0.653331  0.000102043  -2.9702e-06      30.7987 
          60     0.853332  0.000108335 -4.66619e-06      30.7987 
          60         1.08  0.000121361 -6.04442e-06      30.7986 
          60      1.33333  0.000138383 -7.04963e-06      30.7986 
          60      1.61333  0.000158285 -7.76299e-06      30.7986 
          60         1.92  0.000178705 -7.93662e-06      30.7986 
          60      2.25333  0.000193932 -7.85038e-06      30.7985 
          60      2.61333  0.000203761  -7.2531e-06      30.7985 
          60            3  0.000208148 -6.50728e-06      30.7984 
          80            0            0            0      30.1068 
          80     0.013333  0.000188221  2.12901e-08      30.1068 
          80     0.053333   0.00017113  2.84042e-07      30.1068 
          80         0.12  0.000141164  1.19209e-06      30.1068 
          80     0.213332  0.000109484  2.92227e-06      30.1068 
          80     0.333332   8.5771e-05  5.19715e-06      30.1068 
          80         0.48   7.5256e-05  7.55095e-06      30.1068 
          80     0.653331  7.53411e-05  9.73937e-06      30.1068 
          80     0.853332  8.32912e-05  1.18124e-05      30.1068 
          80         1.08  9.81343e-05  1.38403e-05      30.1068 
          80      1.33333  0.000116429   1.5647e-05      30.1068 
          80      1.61333  0.000139836  1.69012e-05      30.1068 
          80         1.92  0.000162745  1.74904e-05      30.1068 
          80      2.25333  0.000180925  1.72549e-05      30.1067 
          80      2.61333  0.000198163  1.65446e-05      30.1067 
          80            3  0.000209988  1.52066e-05      30.1067 
         100            0  2.04216e-19  6.03509e-25      29.4286 
         100     0.013333   0.00020345  1.92061e-08      29.4286 
         100     0.053333  0.000232176  2.99498e-07      29.4286 
         100         0.12  0.000251543  1.50704e-06      29.4286 
         100     0.213332   0.00024764  4.47723e-06      29.4286 
         100     0.333332  0.000223605  9.63652e-06      29.4286 
         100         0.48  0.000198332  1.67893e-05      29.4286 
         100     0.653331  0.000185603  2.54387e-05      29.4286 
         100     0.853332  0.000185546  3.49447e-05      29.4286 
         100         1.08  0.000187795  4.44129e-05      29.4286 
         100      1.33333  0.000183505  5.29858e-05      29.4286 
         100      1.61333  0.000180573   5.9891e-05      29.4286 
         100         1.92   0.00017852    6.429e-05      29.4285 
         100      2.25333  0.000174424  6.57326e-05      29.4285 
         100      2.61333  0.000170876  6.45617e-05      29.4285 
         100            3  0.000171785  6.10951e-05      29.4285 
         150            0           -0           -0      27.7648 
         150     0.013333  0.000184446    1.632e-09      27.7648 
         150     0.053333  0.000179616  1.64518e-08      27.7648 
         150         0.12  0.000174312  5.57086e-08      27.7648 
         150     0.213332  0.000173027  1.04591e-07      27.7648 
         150     0.333332  0.000172958   1.3191e-07      27.7648 
         150         0.48  0.000172974  1.22766e-07      27.7648 
         150     0.653331  0.000172507  9.04819e-08      27.7648 
         150     0.853332  0.000171728  6.59422e-08      27.7648 
         150         1.08  0.000171162  7.14418e-08      27.7648 
         150      1.33333  0.000170556  7.93171e-08      27.7648 
         150      1.61333  0.000169621  4.74529e-08      27.7648 
         150         1.92   0.00016895 -7.34462e-08      27.7648 
         150      2.25333  0.000169325 -1.53401e-07      27.7648 
         150      2.61333  0.000171275 -3.19396e-07      27.7648 
         150            3  0.000175157 -4.76233e-07      27.7648 
         200            0           -0           -0      26.1215 
         200     0.013333  0.000187647 -4.39854e-09      26.1215 
         200     0.053333  0.000194938 -5.53158e-08      26.1215 
         200         0.12  0.000203986 -1.66612e-07      26.1215 
         200     0.213332  0.000211099 -1.85986e-07      26.1215 
         200     0.333332  0.000209697  1.28952e-07      26.1215 
         200         0.48  0.000202514  8.68445e-07      26.1215 
         200     0.653331  0.000194443   1.8888e-06      26.1215 
         200     0.853332  0.000187097  2.96673e-06      26.1215 
         200         1.08  0.000180576  3.98022e-06      26.1215 
         200      1.33333  0.000175525  4.94946e-06      26.1215 
         200      1.61333  0.000171152  5.84731e-06      26.1215 
         200         1.92  0.000166423  6.55496e-06      26.1215 
         200      2.25333  0.000161895  7.02092e-06      26.1215 
         200      2.61333  0.000158765  7.28382e-06      26.1215 
         200            3  0.000160207  7.54991e-06      26.1215 
         250            0            0            0      24.4853 
         250     0.013333  0.000208147 -3.41441e-08      24.4853 
         250     0.053333  0.000276654 -4.59618e-07      24.4853 
         250         0.12  0.000373655 -1.72034e-06      24.4853 
         250     0.213332  0.000464598 -3.48829e-06      24.4853 
         250     0.333332  0.000514841 -4.65683e-06      24.4853 
         250         0.48   0.00052409 -4.31326e-06      24.4853 
         250     0.653331  0.000511994 -2.47321e-06      24.4853 
         250     0.853332  0.000488977  6.48498e-08      24.4853 
         250         1.08  0.000451899  2.40143e-06      24.4853 
         250      1.33333  0.000402108  4.31917e-06      24.4853 
         250      1.61333  0.000342875  6.10814e-06      24.4853 
         250         1.92  0.000280621   7.5678e-06      24.4853 
         250      2.25333  0.000221089  8.78121e-06      24.4853 
         250      2.61333  0.000163163  9.59159e-06      24.4853 
         250            3  0.000121411  9.76454e-06      24.4853 
         300            0           -0           -0      22.8515 
         300     0.013333  0.000171802 -4.61239e-08      22.8515 
         300     0.053333  0.000151618 -6.91512e-07      22.8515 
         300         0.12  0.000156663 -3.10687e-06      22.8515 
         300     0.213332  0.000198877  -8.2323e-06      22.8515 
         300     0.333332  0.000253636 -1.60776e-05      22.8515 
         300         0.48  0.000294817 -2.59959e-05      22.8515 
         300     0.653331  0.000311058 -3.74973e-05      22.8515 
         300     0.853332  0.000301019 -5.04803e-05      22.8515 
         300         1.08  0.000272543  -6.4578e-05      22.8515 
         300      1.33333  0.000246029 -7.85978e-05      22.8515 
         300      1.61333  0.000223909 -9.10641e-05      22.8515 
         300         1.92  0.000204486 -0.000100926      22.8515 
         300      2.25333  0.000187849 -0.000107564      22.8515 
         300      2.61333  0.000168306 -0.000110277      22.8515 
         300            3  0.000157201 -0.000108882      22.8515 
         350            0  1.92456e-19  3.43676e-27      21.2187 
         350     0.013333  0.000184553 -4.68568e-08      21.2187 
         350     0.053333  0.000199429 -7.00978e-07      21.2187 
         350         0.12  0.000252278 -3.13276e-06      21.2187 
         350     0.213332  0.000341124 -8.19804e-06      21.2187 
         350     0.333332   0.00042757 -1.56246e-05      21.2187 
         350         0.48  0.000479944  -2.4293e-05      21.2187 
         350     0.653331  0.000493749 -3.32702e-05      21.2187 
         350     0.853332  0.000479074 -4.23125e-05      21.2187 
         350         1.08  0.000446238  -5.1375e-05      21.2187 
         350      1.33333  0.000407318 -5.99455e-05      21.2187 
         350      1.61333  0.000362677 -6.72482e-05      21.2187 
         350         1.92  0.000314322 -7.27349e-05      21.2187 
         350      2.25333   0.00026532 -7.60593e-05      21.2187 
         350      2.61333  0.000211017 -7.67912e-05      21.2187 
         350            3  0.000164761 -7.48875e-05      21.2187 
         400            0           -0           -0      19.5859 
         400     0.013333  0.000134307  6.74337e-08      19.5859 
         400     0.053333 -1.22758e-05  9.28242e-07      19.5859 
         400         0.12 -0.000224692  3.63085e-06      19.5859 
         400     0.213332 -0.000429337  7.92335e-06      19.5859 
         400     0.333332 -0.000560176  1.19481e-05      19.5859 
         400         0.48 -0.000603774  1.38134e-05      19.5859 
         400     0.653331  -0.00059271   1.3129e-05      19.5859 
         400     0.853332 -0.000554175  1.10339e-05      19.5859 
         400         1.08 -0.000487788  9.12059e-06      19.5859 
         400      1.33333 -0.000391769  8.05012e-06      19.5859 
         400      1.61333 -0.000275237  7.34761e-06      19.5859 
         400         1.92 -0.000152282  6.77171e-06      19.5859 
         400      2.25333 -2.76626e-05  6.06833e-06       19.586 
         400      2.61333  0.000103647  5.30554e-06       19.586 
         400            3  0.000215873   4.6941e-06       19.586 
         450            0           -0           -0      17.9538 
         450     0.013333  0.000209909   2.6172e-08      17.9538 
         450     0.053333  0.000268489  4.26184e-07      17.9538 
         450         0.12  0.000320446  2.12131e-06      17.9538 
         450     0.213332  0.000340203  6.19438e-06      17.9538 
         450     0.333332  0.000330567  1.30966e-05      17.9538 
         450         0.48  0.000316912  2.24464e-05      17.9538 
         450     0.653331  0.000318202  3.36537e-05      17.9538 
         450     0.853332  0.000337295  4.62632e-05      17.9538 
         450         1.08  0.000358971  5.93826e-05      17.9538 
         450      1.33333  0.000356197  7.14173e-05      17.9538 
         450      1.61333  0.000327905  8.12003e-05      17.9538 
         450         1.92  0.000293033  8.84919e-05      17.9538 
         450      2.25333  0.000257649  9.32596e-05      17.9538 
         450      2.61333   0.00022127  9.49838e-05      17.9538 
         450            3  0.000187432   9.3365e-05      17.9538 
         500            0           -0           -0      16.3215 
         500     0.013333  0.000217061  2.37706e-08      16.3215 
         500     0.053333  0.000292635  4.15028e-07      16.3215 
         500         0.12  0.000357667  2.24661e-06      16.3215 
         500     0.213332  0.000369516  7.10779e-06      16.3215 
         500     0.333332  0.000326631  1.60658e-05      16.3215 
         500         0.48  0.000269381  2.88661e-05      16.3215 
         500     0.653331  0.000235122  4.43578e-05      16.3215 
         500     0.853332  0.000231496  6.12695e-05      16.3215 
         500         1.08  0.000238979  7.82337e-05      16.3215 
         500      1.33333  0.000231985  9.38631e-05      16.3215 
         500      1.61333  0.000213742  0.000107469      16.3215 
         500         1.92  0.000196694  0.000118782      16.3215 
         500      2.25333  0.000181106  0.000127356      16.3215 
         500      2.61333  0.000167452  0.000132354      16.3215 
         500            3  0.000156068  0.000133218      16.3215 
         550            0           -0           -0      14.6893 
         550     0.013333  0.000188495 -5.93533e-08      14.6893 
         550     0.053333  0.000215341 -8.62829e-07      14.6893 
         550         0.12  0.000284476 -3.70197e-06      14.6893 
         550     0.213332  0.000384473 -9.25576e-06      14.6893 
         550     0.333332  0.000470549  -1.6901e-05      14.6893 
         550         0.48  0.000514841 -2.54424e-05      14.6893 
         550     0.653331  0.000520353 -3.43548e-05      14.6893 
         550     0.853332  0.000497072 -4.41251e-05      14.6893 
         550         1.08  0.000447341  -5.5418e-05      14.6893 
         550      1.33333  0.000384565 -6.77563e-05      14.6893 
         550      1.61333  0.000329956 -7.94645e-05      14.6893 
         550         1.92  0.000287021 -8.93924e-05      14.6893 
         550      2.25333  0.000246065 -9.70781e-05      14.6893 
         550      2.61333  0.000199812 -0.000102078      14.6893 
         550            3  0.000158398 -0.000103889      14.6893 
         600            0           -0           -0      13.0569 
         600     0.013333  0.000151044 -4.16064e-09      13.0569 
         600     0.053333  6.78123e-05 -1.13884e-07      13.0569 
         600         0.12 -2.14348e-05 -8.46851e-07      13.0569 
         600     0.213332 -6.96847e-05 -3.26736e-06      13.0569 
         600     0.333332 -6.80107e-05 -8.36609e-06      13.0569 
         600         0.48 -4.10351e-05 -1.62839e-05      13.0569 
         600     0.653331 -1.98576e-05 -2.63423e-05      13.0569 
         600     0.853332 -1.59641e-05 -3.75501e-05      13.0569 
         600         1.08 -1.60306e-05 -4.87182e-05      13.0569 
         600      1.33333  2.43887e-06 -5.86114e-05      13.0569 
         600      1.61333  3.88237e-05 -6.67524e-05      13.0569 
         600         1.92  7.59898e-05 -7.33637e-05      13.0569 
         600      2.25333  0.000110603 -7.84701e-05      13.0569 
         600      2.61333  0.000145404 -8.16257e-05      13.0569 
         600            3  0.000177022 -8.24106e-05      13.0569 
         650            0            0            0      11.4247 
         650     0.013333  0.000199848   4.7985e-08      11.4247 
         650     0.053333  0.000224525  7.42575e-07      11.4247 
         650         0.12  0.000214742  3.49501e-06      11.4247 
         650     0.213332  0.000152079   9.7515e-06      11.4247 
         650     0.333332  5.87749e-05  1.99346e-05      11.4247 
         650         0.48 -1.95774e-05  3.32097e-05      11.4247 
         650     0.653331 -5.62455e-05   4.8368e-05      11.4247 
         650     0.853332 -5.15709e-05  6.46887e-05      11.4247 
         650         1.08 -1.91779e-05  8.17674e-05      11.4247 
         650      1.33333    1.896e-05  9.87462e-05      11.4247 
         650      1.61333  4.75719e-05  0.000114326      11.4247 
         650         1.92  6.97123e-05  0.000127683      11.4247 
         650      2.25333  9.37251e-05  0.000138384      11.4247 
         650      2.61333  0.000123309  0.000145732      11.4247 
         650            3  0.000152136  0.000149004      11.4247 
         700            0           -0           -0      9.79251 
         700     0.013333  0.000117495 -2.00344e-08      9.79251 
         700     0.053333 -4.89696e-05 -3.69632e-07      9.79251 
         700         0.12 -0.000228044 -2.14654e-06      9.79251 
         700     0.213332 -0.000327435 -7.33438e-06      9.79251 
         700     0.333332 -0.000316274 -1.79413e-05      9.79251 
         700         0.48 -0.000231061 -3.47571e-05      9.79251 
         700     0.653331 -0.000134778 -5.70568e-05      9.79251 
         700     0.853332 -6.83178e-05 -8.33934e-05      9.79251 
         700         1.08 -3.68788e-05 -0.000112299      9.79251 
         700      1.33333 -2.00131e-05 -0.000142234      9.79251 
         700      1.61333  3.74967e-06 -0.000171425      9.79251 
         700         1.92  4.04231e-05 -0.000198265      9.79251 
         700      2.25333  8.34159e-05 -0.000221602      9.79252 
         700      2.61333  0.000126285  -0.00024003      9.79252 
         700            3  0.000169874  -0.00025206      9.79252 
         750            0           -0           -0      8.16091 
         750     0.013333  0.000240977 -1.44622e-07      8.16091 
         750     0.053333  0.000435795 -2.11392e-06      8.16091 
         750         0.12  0.000790198 -9.15613e-06      8.16091 
         750     0.213332   0.00123743 -2.31416e-05      8.16091 
         750     0.333332   0.00162815 -4.24765e-05      8.16091 
         750         0.48   0.00185267  -6.3289e-05      8.16091 
         750     0.653331   0.00190894 -8.26187e-05      8.16091 
         750     0.853332   0.00185464  -0.00010018      8.16091 
         750         1.08   0.00173201 -0.000117388      8.16091 
         750      1.33333     0.001561 -0.000135112      8.16091 
         750      1.61333   0.00136195  -0.00015255      8.16091 
         750         1.92   0.00115484 -0.000168298       8.1609 
         750      2.25333  0.000937967 -0.000181161       8.1609 
         750      2.61333  0.000698508 -0.000190317      8.16089 
         750            3  0.000455082 -0.000194974      8.16087 
         800            0            0            0      6.52831 
         800     0.013333  0.000293738  1.58776e-07      6.52831 
         800     0.053333  0.000527845  2.49657e-06      6.52831 
         800         0.12  0.000680588  1.20438e-05      6.52831 
         800     0.213332  0.000609244  3.46675e-05      6.52831 
         800     0.333332  0.000346999  7.33846e-05      6.52831 
         800         0.48     5.55e-05  0.000126638      6.52831 
         800     0.653331 -0.000128414  0.000190471      6.52831 
         800     0.853332 -0.000164281  0.000261681      6.52831 
         800         1.08 -8.40914e-05  0.000338056      6.52831 
         800      1.33333  3.15668e-05   0.00041621      6.52831 
         800      1.61333  0.000105829  0.000491142      6.52831 
         800         1.92  0.000128455  0.000558906      6.52831 
         800      2.25333   0.00013666  0.000617164      6.52831 
         800      2.61333  0.000154985   0.00066296      6.52831 
         800            3  0.000170263  0.000692683      6.52831 
         850            0            0            0      4.89584 
         850     0.013333  3.33194e-06 -1.42434e-08      4.89584 
         850     0.053333 -0.000459923  -4.2215e-07      4.89584 
         850         0.12 -0.000990602 -3.32026e-06      4.89584 
         850     0.213332  -0.00134241 -1.34716e-05      4.89584 
         850     0.333332  -0.00140517 -3.62588e-05      4.89584 
         850         0.48  -0.00125948 -7.39924e-05      4.89584 
         850     0.653331  -0.00107304 -0.000124722      4.89584 
         850     0.853332 -0.000955377 -0.000184185      4.89584 
         850         1.08 -0.000903181 -0.000247558      4.89584 
         850      1.33333 -0.000836596 -0.000309846      4.89584 
         850      1.61333 -0.000701168 -0.000367103      4.89584 
         850         1.92 -0.000526286 -0.000418016      4.89585 
         850      2.25333 -0.000349542 -0.000462217      4.89585 
         850      2.61333 -0.000171427 -0.000497691      4.89586 
         850            3   1.0988e-05 -0.000521535      4.89588 
         900            0            0            0      3.26492 
         900     0.013333  0.000286082 -2.19288e-07      3.26492 
         900     0.053333  0.000623036 -3.17671e-06      3.26492 
         900         0.12   0.00121015 -1.35744e-05      3.26492 
         900     0.213332   0.00192404 -3.37415e-05      3.26492 
         900     0.333332   0.00252937 -6.08012e-05      3.26492 
         900         0.48   0.00286574 -8.88894e-05      3.26492 
         900     0.653331   0.00294451 -0.000114003      3.26492 
         900     0.853332   0.00286382 -0.000136479      3.26492 
         900         1.08    0.0026815 -0.000159599      3.26492 
         900      1.33333   0.00240574 -0.000186085      3.26492 
         900      1.61333   0.00206961 -0.000215132      3.26492 
         900         1.92   0.00173708 -0.000243223      3.26492 
         900      2.25333   0.00141426  -0.00026749      3.26491 
         900      2.61333   0.00106686 -0.000286733      3.26489 
         900            3  0.000705173 -0.000299845      3.26487 
         950            0            0            0      1.63239 
         950     0.013333  0.000375564  1.42504e-07      1.63239 
         950     0.053333  0.000829235  2.33315e-06      1.63239 
         950         0.12   0.00126001  1.18745e-05      1.63239 
         950     0.213332   0.00141321  3.61575e-05      1.63239 
         950     0.333332   0.00124184  8.06638e-05      1.63239 
         950         0.48  0.000914174    0.0001456      1.63239 
         950     0.653331  0.000639233  0.000226862      1.63239 
         950     0.853332  0.000523942  0.000319641      1.63239 
         950         1.08  0.000555693  0.000419873      1.63239 
         950      1.33333  0.000634756  0.000522624      1.63239 
         950      1.61333  0.000652136  0.000621576      1.63239 
         950         1.92  0.000585814  0.000712268      1.63239 
         950      2.25333  0.000491078  0.000792344      1.63238 
         950      2.61333  0.000401961  0.000858377      1.63238 
         950            3  0.000309725  0.000906559      1.63237 
        1000            0            0            0            0 
        1000     0.013333  0.000278194 -1.29531e-05           -0 
        1000     0.053333  0.000471881  -5.6568e-05           -0 
        1000         0.12  0.000478085 -0.000155558  1.36257e-16 
        1000     0.213332  7.94424e-05 -0.000362225  1.61769e-15 
        1000     0.333332  0.000268332 -0.000937001  8.93042e-16 
        1000         0.48  -0.00175056  -0.00131708           -0 
        1000     0.653331  -0.00161054  -0.00116285            0 
        1000     0.853332   -0.0013934  -0.00191779            0 
        1000         1.08  -0.00314065  -0.00248645            0 
        1000      1.33333  -0.00967493  -0.00193624  1.02957e-15 
        1000      1.61333  -0.00365493  0.000680855           -0 
        1000         1.92  -0.00240483  0.000185392  1.90244e-15 
        1000      2.25333  -0.00287349 -5.27866e-05  2.08375e-15 
        1000      2.61333  -0.00413168   0.00106287           -0 
        1000            3 -0.000998513    0.0011831  1.91797e-15 
