Variables = x, y, u, v, p

Zone, I=2080, F=POINT
         -50            0            0            0     -65.9186 
         -50      0.00048 -1.34342e-05 -5.06886e-09     -65.9186 
         -50     0.001922 -4.74549e-05 -1.87647e-08     -65.9186 
         -50     0.004326 -8.63613e-05 -3.71726e-08     -65.9186 
         -50      0.00769 -0.000113431 -5.57364e-08     -65.9186 
         -50     0.012017 -0.000120038 -7.13139e-08     -65.9186 
         -50     0.017304 -0.000110241  -8.3425e-08     -65.9186 
         -50     0.023553 -9.77288e-05 -9.41931e-08     -65.9186 
         -50     0.030763 -9.56752e-05 -1.06798e-07     -65.9186 
         -50     0.038936 -0.000105603 -1.23477e-07     -65.9186 
         -50     0.048069 -0.000115025 -1.44603e-07     -65.9186 
         -50     0.058163  -0.00011148 -1.70237e-07     -65.9186 
         -50     0.069219 -0.000105753 -2.03016e-07     -65.9186 
         -50     0.081236 -0.000120944 -2.45319e-07     -65.9186 
         -50     0.094215 -0.000112532 -2.89299e-07     -65.9186 
         -50     0.108155 -0.000116961 -3.47685e-07     -65.9186 
         -50     0.123056 -0.000117346 -4.16359e-07     -65.9186 
         -50     0.138918 -0.000117055 -4.97368e-07     -65.9186 
         -50     0.155744 -0.000117416 -5.92489e-07     -65.9186 
         -50     0.173529 -0.000118118 -7.03125e-07     -65.9186 
         -50     0.192276 -0.000118236 -8.30446e-07     -65.9185 
         -50     0.211984 -0.000117481 -9.75422e-07     -65.9185 
         -50     0.232655 -0.000116816 -1.13897e-06     -65.9185 
         -50     0.254285 -0.000116865 -1.32183e-06     -65.9185 
         -50     0.276877 -0.000115509 -1.52434e-06     -65.9185 
         -50     0.300431 -0.000114752 -1.74657e-06     -65.9185 
         -50     0.324946 -0.000113765 -1.98866e-06     -65.9185 
         -50     0.350424 -0.000112699 -2.25069e-06     -65.9184 
         -50     0.376861 -0.000111647 -2.53248e-06     -65.9184 
         -50      0.40426 -0.000110655 -2.83374e-06     -65.9184 
         -50     0.432621 -0.000109733 -3.15398e-06     -65.9184 
         -50     0.461945 -0.000108879 -3.49251e-06     -65.9183 
         -50     0.492228 -0.000108093 -3.84835e-06     -65.9183 
         -50     0.523472 -0.000107393 -4.22018e-06     -65.9183 
         -50     0.555678 -0.000106805 -4.60602e-06     -65.9182 
         -50     0.588845 -0.000106331 -5.00271e-06     -65.9182 
         -50     0.622976 -0.000105873 -5.40621e-06     -65.9182 
         -50     0.658066  -0.00010552 -5.82127e-06     -65.9181 
         -50     0.694117 -0.000105203 -6.23539e-06     -65.9181 
         -50      0.73113 -0.000104909 -6.65327e-06      -65.918 
         -50     0.769107 -0.000104631 -7.07691e-06     -65.9179 
         -50     0.808042 -0.000104361 -7.50593e-06     -65.9179 
         -50     0.847939 -0.000104096 -7.93835e-06     -65.9178 
         -50     0.888797 -0.000103831 -8.37115e-06     -65.9177 
         -50      0.93062 -0.000103564 -8.80117e-06     -65.9176 
         -50       0.9734 -0.000103292 -9.22566e-06     -65.9175 
         -50      1.01714 -0.000103009 -9.64317e-06     -65.9174 
         -50      1.06185 -0.000102709 -1.00536e-05     -65.9173 
         -50      1.10751 -0.000102381 -1.04582e-05     -65.9172 
         -50      1.15414  -0.00010201 -1.08583e-05     -65.9171 
         -50      1.20173 -0.000101574 -1.12534e-05      -65.917 
         -50      1.25028 -0.000101049 -1.16378e-05     -65.9169 
         -50      1.29979 -0.000100405 -1.19949e-05     -65.9167 
         -50      1.35026  -9.9352e-05 -1.22289e-05     -65.9166 
         -50       1.4017 -9.82472e-05 -1.25092e-05     -65.9164 
         -50      1.45409 -9.74434e-05 -1.29116e-05     -65.9163 
         -50      1.50745 -9.66737e-05 -1.33197e-05     -65.9161 
         -50      1.56176 -9.57745e-05 -1.36613e-05     -65.9159 
         -50      1.61705  -9.4677e-05 -1.39036e-05     -65.9157 
         -50      1.67329 -9.33951e-05 -1.40473e-05     -65.9155 
         -50      1.73049 -9.20093e-05 -1.41193e-05     -65.9153 
         -50      1.78865 -9.06488e-05 -1.41635e-05     -65.9151 
         -50      1.84778 -8.94708e-05 -1.42323e-05     -65.9148 
         -50      1.90786 -8.86388e-05 -1.43762e-05     -65.9146 
         -50      1.96891 -8.82989e-05 -1.46344e-05     -65.9143 
         -50      2.03092 -8.85579e-05 -1.50256e-05     -65.9141 
         -50      2.09389 -8.94626e-05 -1.55405e-05     -65.9138 
         -50      2.15782 -9.09828e-05 -1.61362e-05     -65.9135 
         -50      2.22272 -9.29999e-05 -1.67348e-05     -65.9132 
         -50      2.28857 -9.53031e-05 -1.72254e-05     -65.9129 
         -50      2.35539 -9.75963e-05  -1.7473e-05     -65.9125 
         -50      2.42317 -9.95189e-05 -1.73341e-05     -65.9122 
         -50      2.49191 -0.000100683 -1.66829e-05     -65.9118 
         -50      2.56161 -0.000100733 -1.54472e-05     -65.9114 
         -50      2.63226 -9.94297e-05 -1.36599e-05      -65.911 
         -50      2.70389 -9.67679e-05  -1.1525e-05     -65.9106 
         -50      2.77648 -9.38322e-05 -9.01879e-06     -65.9102 
         -50      2.85002 -9.18021e-05  -6.3456e-06     -65.9097 
         -50      2.92453  -8.9808e-05 -4.18935e-06     -65.9093 
         -50            3 -8.80405e-05 -2.31652e-06     -65.9088 
         -25            0 -1.04977e-19 -2.09009e-23     -63.2496 
         -25      0.00048 -9.81897e-06 -1.99038e-09     -63.2496 
         -25     0.001922 -3.46935e-05 -7.44409e-09     -63.2496 
         -25     0.004326 -6.31691e-05  -1.5052e-08     -63.2496 
         -25      0.00769 -8.30405e-05 -2.34066e-08     -63.2496 
         -25     0.012017 -8.79996e-05 -3.18137e-08     -63.2496 
         -25     0.017304 -8.09823e-05 -4.07802e-08     -63.2496 
         -25     0.023553 -7.19406e-05 -5.19977e-08     -63.2496 
         -25     0.030763 -7.04512e-05 -6.77261e-08     -63.2496 
         -25     0.038936 -7.75977e-05 -9.00049e-08     -63.2496 
         -25     0.048069 -8.42531e-05 -1.20258e-07     -63.2496 
         -25     0.058163 -8.13101e-05 -1.59888e-07     -63.2496 
         -25     0.069219 -7.66107e-05 -2.11359e-07     -63.2496 
         -25     0.081236 -8.69802e-05  -2.7703e-07     -63.2496 
         -25     0.094215 -7.99602e-05 -3.55208e-07     -63.2496 
         -25     0.108155 -8.21112e-05 -4.52192e-07     -63.2496 
         -25     0.123056 -8.11322e-05 -5.67449e-07     -63.2496 
         -25     0.138918 -7.94911e-05 -7.02658e-07     -63.2496 
         -25     0.155744 -7.81729e-05 -8.59207e-07     -63.2496 
         -25     0.173529 -7.69745e-05 -1.03801e-06     -63.2496 
         -25     0.192276 -7.52466e-05 -1.23962e-06     -63.2496 
         -25     0.211984 -7.28073e-05 -1.46415e-06     -63.2496 
         -25     0.232655 -7.03855e-05 -1.71143e-06     -63.2496 
         -25     0.254285 -6.84622e-05 -1.98109e-06     -63.2496 
         -25     0.276877 -6.55192e-05 -2.27292e-06     -63.2496 
         -25     0.300431 -6.30376e-05 -2.58451e-06     -63.2496 
         -25     0.324946 -6.04325e-05 -2.91548e-06     -63.2496 
         -25     0.350424 -5.78278e-05 -3.26538e-06     -63.2496 
         -25     0.376861 -5.53049e-05 -3.63277e-06     -63.2495 
         -25      0.40426 -5.29069e-05 -4.01583e-06     -63.2495 
         -25     0.432621 -5.06507e-05 -4.41261e-06     -63.2495 
         -25     0.461945 -4.85412e-05 -4.82161e-06     -63.2495 
         -25     0.492228 -4.65861e-05 -5.24189e-06     -63.2495 
         -25     0.523472 -4.48044e-05 -5.67302e-06     -63.2495 
         -25     0.555678 -4.32242e-05 -6.11403e-06     -63.2495 
         -25     0.588845 -4.18557e-05 -6.56114e-06     -63.2495 
         -25     0.622976  -4.0633e-05 -7.00682e-06     -63.2494 
         -25     0.658066  -3.9617e-05  -7.4768e-06     -63.2494 
         -25     0.694117 -3.87779e-05 -7.92968e-06     -63.2494 
         -25      0.73113 -3.81025e-05 -8.37838e-06     -63.2494 
         -25     0.769107 -3.75791e-05 -8.82947e-06     -63.2494 
         -25     0.808042 -3.71981e-05 -9.28403e-06     -63.2493 
         -25     0.847939 -3.69521e-05 -9.73932e-06     -63.2493 
         -25     0.888797 -3.68363e-05 -1.01903e-05     -63.2493 
         -25      0.93062 -3.68487e-05 -1.06315e-05     -63.2492 
         -25       0.9734 -3.69894e-05 -1.10588e-05     -63.2492 
         -25      1.01714 -3.72606e-05 -1.14709e-05     -63.2492 
         -25      1.06185 -3.76647e-05 -1.18697e-05     -63.2491 
         -25      1.10751 -3.82036e-05 -1.22598e-05     -63.2491 
         -25      1.15414 -3.88755e-05 -1.26457e-05      -63.249 
         -25      1.20173 -3.96725e-05 -1.30271e-05      -63.249 
         -25      1.25028 -4.05762e-05 -1.33893e-05     -63.2489 
         -25      1.29979 -4.15527e-05 -1.36909e-05     -63.2489 
         -25      1.35026 -4.26157e-05 -1.39611e-05     -63.2488 
         -25       1.4017 -4.39167e-05 -1.43157e-05     -63.2488 
         -25      1.45409 -4.53448e-05 -1.46169e-05     -63.2487 
         -25      1.50745 -4.68349e-05 -1.48638e-05     -63.2486 
         -25      1.56176 -4.83443e-05 -1.50597e-05     -63.2486 
         -25      1.61705 -4.98519e-05 -1.52109e-05     -63.2485 
         -25      1.67329 -5.13555e-05 -1.53265e-05     -63.2484 
         -25      1.73049 -5.28696e-05 -1.54174e-05     -63.2483 
         -25      1.78865 -5.44211e-05 -1.54952e-05     -63.2482 
         -25      1.84778 -5.60456e-05 -1.55712e-05     -63.2481 
         -25      1.90786 -5.77813e-05 -1.56552e-05     -63.2481 
         -25      1.96891 -5.96651e-05  -1.5754e-05     -63.2479 
         -25      2.03092  -6.1725e-05   -1.587e-05     -63.2478 
         -25      2.09389 -6.39756e-05 -1.59998e-05     -63.2477 
         -25      2.15782 -6.64101e-05 -1.61327e-05     -63.2476 
         -25      2.22272 -6.89963e-05 -1.62492e-05     -63.2475 
         -25      2.28857 -7.16704e-05 -1.63199e-05     -63.2474 
         -25      2.35539  -7.4333e-05 -1.63045e-05     -63.2472 
         -25      2.42317 -7.68464e-05 -1.61506e-05     -63.2471 
         -25      2.49191  -7.9033e-05  -1.5794e-05      -63.247 
         -25      2.56161 -8.06782e-05 -1.51583e-05     -63.2468 
         -25      2.63226 -8.15347e-05 -1.41562e-05     -63.2466 
         -25      2.70389 -8.13314e-05 -1.26905e-05     -63.2465 
         -25      2.77648  -8.0252e-05 -1.01914e-05     -63.2463 
         -25      2.85002 -7.88648e-05 -9.34538e-06     -63.2461 
         -25      2.92453 -7.74623e-05 -8.12237e-06      -63.246 
         -25            3 -7.60551e-05 -6.48679e-06     -63.2458 
           0            0   -8.717e-20 -1.00588e-23     -61.1529 
           0      0.00048 -8.15028e-06 -9.64874e-10     -61.1529 
           0     0.001922 -2.87607e-05 -3.69376e-09     -61.1529 
           0     0.004326 -5.22327e-05 -7.80173e-09     -61.1529 
           0      0.00769 -6.83401e-05 -1.30031e-08     -61.1529 
           0     0.012017 -7.18004e-05 -1.94817e-08     -61.1529 
           0     0.017304 -6.50823e-05 -2.80927e-08     -61.1529 
           0     0.023553 -5.65365e-05 -4.03267e-08     -61.1529 
           0     0.030763 -5.42034e-05 -5.79733e-08     -61.1529 
           0     0.038936 -5.90077e-05 -8.27128e-08     -61.1529 
           0     0.048069 -6.33203e-05  -1.1588e-07     -61.1529 
           0     0.058163 -5.95306e-05 -1.58733e-07     -61.1529 
           0     0.069219 -5.42348e-05 -2.12945e-07     -61.1529 
           0     0.081236 -6.15593e-05 -2.80019e-07     -61.1529 
           0     0.094215 -5.43244e-05 -3.59394e-07     -61.1529 
           0     0.108155 -5.48154e-05 -4.54162e-07     -61.1529 
           0     0.123056  -5.2745e-05 -5.64057e-07     -61.1529 
           0     0.138918 -5.02015e-05  -6.8973e-07     -61.1529 
           0     0.155744 -4.80266e-05  -8.3155e-07     -61.1529 
           0     0.173529 -4.60628e-05 -9.89512e-07     -61.1529 
           0     0.192276 -4.37736e-05  -1.1634e-06     -61.1529 
           0     0.211984 -4.10096e-05 -1.35272e-06     -61.1529 
           0     0.232655 -3.83805e-05 -1.55682e-06     -61.1529 
           0     0.254285 -3.62844e-05 -1.77482e-06     -61.1529 
           0     0.276877 -3.34402e-05 -2.00566e-06     -61.1529 
           0     0.300431 -3.10783e-05 -2.24836e-06     -61.1529 
           0     0.324946 -2.86957e-05 -2.50176e-06     -61.1529 
           0     0.350424 -2.63824e-05 -2.76477e-06     -61.1529 
           0     0.376861  -2.4193e-05  -3.0363e-06     -61.1529 
           0      0.40426 -2.21509e-05 -3.31543e-06     -61.1529 
           0     0.432621 -2.02597e-05 -3.60136e-06     -61.1529 
           0     0.461945 -1.85158e-05 -3.89344e-06     -61.1529 
           0     0.492228 -1.69215e-05 -4.19114e-06     -61.1529 
           0     0.523472 -1.54932e-05 -4.49415e-06     -61.1529 
           0     0.555678 -1.42587e-05 -4.80233e-06     -61.1529 
           0     0.588845 -1.32352e-05 -5.11565e-06     -61.1529 
           0     0.622976 -1.23805e-05  -5.4343e-06     -61.1528 
           0     0.658066 -1.17647e-05 -5.75787e-06     -61.1528 
           0     0.694117 -1.13686e-05 -6.08694e-06     -61.1528 
           0      0.73113  -1.1204e-05 -6.42156e-06     -61.1528 
           0     0.769107 -1.12755e-05 -6.76155e-06     -61.1528 
           0     0.808042 -1.15811e-05 -7.10645e-06     -61.1528 
           0     0.847939 -1.21119e-05 -7.45561e-06     -61.1528 
           0     0.888797 -1.28531e-05 -7.80802e-06     -61.1528 
           0      0.93062 -1.37849e-05 -8.16241e-06     -61.1527 
           0       0.9734 -1.48826e-05  -8.5171e-06     -61.1527 
           0      1.01714 -1.61194e-05 -8.87025e-06     -61.1527 
           0      1.06185 -1.74661e-05 -9.21968e-06     -61.1527 
           0      1.10751 -1.88937e-05 -9.56315e-06     -61.1527 
           0      1.15414 -2.03739e-05 -9.89838e-06     -61.1527 
           0      1.20173 -2.18799e-05 -1.02232e-05     -61.1526 
           0      1.25028 -2.33869e-05  -1.0536e-05     -61.1526 
           0      1.29979 -2.48714e-05 -1.08359e-05     -61.1526 
           0      1.35026 -2.63753e-05 -1.11308e-05     -61.1526 
           0       1.4017 -2.81294e-05 -1.14013e-05     -61.1525 
           0      1.45409 -3.00401e-05 -1.16367e-05     -61.1525 
           0      1.50745 -3.20204e-05 -1.18491e-05     -61.1525 
           0      1.56176 -3.40004e-05 -1.20458e-05     -61.1524 
           0      1.61705 -3.59274e-05 -1.22303e-05     -61.1524 
           0      1.67329 -3.77649e-05 -1.24026e-05     -61.1524 
           0      1.73049 -3.94927e-05 -1.25604e-05     -61.1523 
           0      1.78865 -4.11048e-05    -1.27e-05     -61.1523 
           0      1.84778 -4.26083e-05 -1.28169e-05     -61.1522 
           0      1.90786 -4.40203e-05 -1.29077e-05     -61.1522 
           0      1.96891 -4.53669e-05 -1.29707e-05     -61.1521 
           0      2.03092 -4.66802e-05 -1.30073e-05     -61.1521 
           0      2.09389 -4.79958e-05 -1.30228e-05      -61.152 
           0      2.15782 -4.93505e-05 -1.30277e-05      -61.152 
           0      2.22272  -5.0781e-05 -1.30377e-05     -61.1519 
           0      2.28857 -5.23218e-05 -1.30741e-05     -61.1519 
           0      2.35539 -5.40053e-05 -1.31637e-05     -61.1518 
           0      2.42317 -5.58625e-05  -1.3337e-05     -61.1517 
           0      2.49191 -5.79248e-05 -1.36269e-05     -61.1517 
           0      2.56161 -6.02289e-05  -1.4065e-05     -61.1516 
           0      2.63226 -6.28236e-05 -1.46781e-05     -61.1515 
           0      2.70389 -6.57791e-05 -1.54812e-05     -61.1514 
           0      2.77648 -6.90694e-05 -1.65438e-05     -61.1513 
           0      2.85002 -7.25262e-05 -1.78644e-05     -61.1513 
           0      2.92453 -7.60614e-05 -1.92355e-05     -61.1512 
           0            3 -7.94163e-05 -2.05872e-05     -61.1511 
          20            0 -8.18647e-20 -6.01788e-24      -59.676 
          20      0.00048 -7.66175e-06 -5.74686e-10      -59.676 
          20     0.001922 -2.71243e-05 -2.16942e-09      -59.676 
          20     0.004326 -4.95802e-05 -4.46872e-09      -59.676 
          20      0.00769 -6.56435e-05 -7.17747e-09      -59.676 
          20     0.012017 -7.04613e-05 -1.02661e-08      -59.676 
          20     0.017304 -6.62841e-05  -1.4124e-08      -59.676 
          20     0.023553 -6.07552e-05 -1.95709e-08      -59.676 
          20     0.030763 -6.12265e-05 -2.76928e-08      -59.676 
          20     0.038936 -6.85191e-05 -3.96281e-08      -59.676 
          20     0.048069 -7.56014e-05  -5.6456e-08      -59.676 
          20     0.058163 -7.54559e-05 -7.93714e-08      -59.676 
          20     0.069219 -7.40933e-05 -1.09989e-07      -59.676 
          20     0.081236 -8.44275e-05 -1.49988e-07      -59.676 
          20     0.094215 -8.14832e-05 -1.99964e-07      -59.676 
          20     0.108155 -8.56583e-05 -2.62852e-07      -59.676 
          20     0.123056 -8.74732e-05 -3.39648e-07      -59.676 
          20     0.138918 -8.88037e-05 -4.31977e-07      -59.676 
          20     0.155744 -9.03866e-05 -5.41341e-07      -59.676 
          20     0.173529 -9.20458e-05 -6.69001e-07      -59.676 
          20     0.192276 -9.32652e-05 -8.16049e-07      -59.676 
          20     0.211984 -9.38897e-05 -9.83319e-07      -59.676 
          20     0.232655 -9.44679e-05 -1.17145e-06      -59.676 
          20     0.254285 -9.53594e-05 -1.38085e-06      -59.676 
          20     0.276877 -9.53909e-05 -1.61178e-06      -59.676 
          20     0.300431 -9.56972e-05 -1.86396e-06      -59.676 
          20     0.324946  -9.5827e-05  -2.1373e-06      -59.676 
          20     0.350424 -9.58757e-05 -2.43155e-06      -59.676 
          20     0.376861 -9.59064e-05 -2.74612e-06      -59.676 
          20      0.40426 -9.59537e-05 -3.08033e-06      -59.676 
          20     0.432621 -9.60316e-05 -3.43331e-06      -59.676 
          20     0.461945 -9.61431e-05 -3.80413e-06      -59.676 
          20     0.492228 -9.62912e-05 -4.19174e-06      -59.676 
          20     0.523472 -9.64853e-05 -4.59502e-06      -59.676 
          20     0.555678 -9.67375e-05 -5.01262e-06      -59.676 
          20     0.588845 -9.70429e-05 -5.44259e-06      -59.676 
          20     0.622976 -9.73346e-05 -5.88215e-06      -59.676 
          20     0.658066 -9.76359e-05 -6.33328e-06      -59.676 
          20     0.694117 -9.78995e-05 -6.79039e-06      -59.676 
          20      0.73113 -9.80874e-05  -7.2508e-06      -59.676 
          20     0.769107 -9.81633e-05 -7.71186e-06      -59.676 
          20     0.808042 -9.80937e-05 -8.17086e-06      -59.676 
          20     0.847939 -9.78508e-05 -8.62533e-06      -59.676 
          20     0.888797 -9.74132e-05 -9.07288e-06     -59.6759 
          20      0.93062 -9.67686e-05 -9.51138e-06     -59.6759 
          20       0.9734 -9.59143e-05 -9.93883e-06     -59.6759 
          20      1.01714 -9.48576e-05 -1.03536e-05     -59.6759 
          20      1.06185 -9.36154e-05 -1.07544e-05     -59.6759 
          20      1.10751 -9.22118e-05 -1.11402e-05     -59.6759 
          20      1.15414 -9.06739e-05 -1.15104e-05     -59.6759 
          20      1.20173 -8.90254e-05 -1.18645e-05     -59.6759 
          20      1.25028 -8.72763e-05 -1.22023e-05     -59.6758 
          20      1.29979 -8.54093e-05  -1.2524e-05     -59.6758 
          20      1.35026 -8.34249e-05 -1.28234e-05     -59.6758 
          20       1.4017 -8.15213e-05 -1.31088e-05     -59.6758 
          20      1.45409 -7.96449e-05 -1.33829e-05     -59.6758 
          20      1.50745 -7.77499e-05 -1.36336e-05     -59.6758 
          20      1.56176 -7.58054e-05 -1.38528e-05     -59.6757 
          20      1.61705 -7.37945e-05 -1.40364e-05     -59.6757 
          20      1.67329 -7.17141e-05 -1.41834e-05     -59.6757 
          20      1.73049 -6.95728e-05 -1.42958e-05     -59.6757 
          20      1.78865 -6.73895e-05 -1.43771e-05     -59.6756 
          20      1.84778  -6.5191e-05 -1.44321e-05     -59.6756 
          20      1.90786 -6.30101e-05 -1.44657e-05     -59.6756 
          20      1.96891 -6.08815e-05 -1.44821e-05     -59.6756 
          20      2.03092 -5.88399e-05 -1.44837e-05     -59.6755 
          20      2.09389 -5.69157e-05 -1.44705e-05     -59.6755 
          20      2.15782 -5.51328e-05 -1.44392e-05     -59.6755 
          20      2.22272 -5.35044e-05  -1.4383e-05     -59.6754 
          20      2.28857 -5.20309e-05 -1.42914e-05     -59.6754 
          20      2.35539 -5.06973e-05 -1.41504e-05     -59.6754 
          20      2.42317 -4.94716e-05 -1.39436e-05     -59.6753 
          20      2.49191 -4.83049e-05 -1.36537e-05     -59.6753 
          20      2.56161 -4.71316e-05 -1.32652e-05     -59.6752 
          20      2.63226 -4.58729e-05 -1.27677e-05     -59.6752 
          20      2.70389 -4.44409e-05 -1.21608e-05     -59.6751 
          20      2.77648 -4.26848e-05 -1.15459e-05     -59.6751 
          20      2.85002 -4.10707e-05  -1.1245e-05      -59.675 
          20      2.92453  -3.9728e-05 -1.05059e-05      -59.675 
          20            3 -3.89083e-05 -1.02402e-05     -59.6749 
          40            0 -7.63218e-20 -3.72706e-24     -58.2994 
          40      0.00048 -7.13893e-06 -3.60337e-10     -58.2994 
          40     0.001922 -2.52261e-05 -1.41449e-09     -58.2994 
          40     0.004326 -4.59381e-05 -3.12755e-09     -58.2994 
          40      0.00769 -6.04047e-05 -5.58559e-09     -58.2994 
          40     0.012017 -6.40382e-05 -9.15095e-09     -58.2994 
          40     0.017304 -5.89646e-05 -1.45548e-08     -58.2994 
          40     0.023553 -5.24055e-05 -2.29059e-08     -58.2994 
          40     0.030763 -5.13081e-05 -3.55788e-08     -58.2994 
          40     0.038936 -5.64491e-05 -5.40736e-08     -58.2994 
          40     0.048069 -6.11877e-05 -7.99172e-08     -58.2994 
          40     0.058163 -5.88992e-05 -1.14757e-07     -58.2994 
          40     0.069219  -5.5275e-05 -1.60511e-07     -58.2994 
          40     0.081236  -6.2534e-05 -2.19104e-07     -58.2994 
          40     0.094215 -5.70924e-05 -2.91723e-07     -58.2994 
          40     0.108155 -5.82509e-05 -3.80869e-07     -58.2994 
          40     0.123056 -5.70772e-05 -4.87685e-07     -58.2994 
          40     0.138918 -5.53736e-05 -6.13492e-07     -58.2994 
          40     0.155744 -5.38678e-05   -7.593e-07     -58.2994 
          40     0.173529  -5.2427e-05 -9.25665e-07     -58.2994 
          40     0.192276 -5.05961e-05  -1.1128e-06     -58.2994 
          40     0.211984 -4.82602e-05 -1.32047e-06     -58.2994 
          40     0.232655 -4.59664e-05 -1.54807e-06     -58.2994 
          40     0.254285 -4.40807e-05 -1.79462e-06     -58.2994 
          40     0.276877  -4.1514e-05 -2.05894e-06     -58.2994 
          40     0.300431 -3.93547e-05 -2.33934e-06     -58.2994 
          40     0.324946 -3.71862e-05 -2.63407e-06     -58.2994 
          40     0.350424 -3.51031e-05 -2.94143e-06     -58.2994 
          40     0.376861 -3.31656e-05 -3.25956e-06     -58.2994 
          40      0.40426 -3.14026e-05 -3.58662e-06     -58.2994 
          40     0.432621  -2.9821e-05 -3.92078e-06     -58.2994 
          40     0.461945 -2.84163e-05 -4.26031e-06     -58.2994 
          40     0.492228 -2.71843e-05 -4.60354e-06     -58.2994 
          40     0.523472 -2.61282e-05 -4.94903e-06     -58.2994 
          40     0.555678 -2.52575e-05 -5.29537e-06     -58.2994 
          40     0.588845 -2.45691e-05 -5.64105e-06     -58.2994 
          40     0.622976  -2.4006e-05 -5.98445e-06     -58.2994 
          40     0.658066 -2.36097e-05 -6.32608e-06     -58.2994 
          40     0.694117 -2.33412e-05 -6.66175e-06     -58.2994 
          40      0.73113 -2.31915e-05 -6.99202e-06     -58.2994 
          40     0.769107 -2.31521e-05 -7.31672e-06     -58.2994 
          40     0.808042 -2.32162e-05 -7.63502e-06     -58.2994 
          40     0.847939 -2.33781e-05 -7.94577e-06     -58.2994 
          40     0.888797 -2.36335e-05 -8.24758e-06     -58.2994 
          40      0.93062 -2.39796e-05 -8.53919e-06     -58.2993 
          40       0.9734 -2.44146e-05 -8.81956e-06     -58.2993 
          40      1.01714 -2.49371e-05 -9.08823e-06     -58.2993 
          40      1.06185 -2.55458e-05 -9.34526e-06     -58.2993 
          40      1.10751 -2.62376e-05 -9.59122e-06     -58.2993 
          40      1.15414 -2.70068e-05 -9.82685e-06     -58.2993 
          40      1.20173 -2.78426e-05 -1.00523e-05     -58.2993 
          40      1.25028 -2.87269e-05 -1.02662e-05     -58.2993 
          40      1.29979 -2.96313e-05 -1.04638e-05     -58.2993 
          40      1.35026 -3.05714e-05  -1.0654e-05     -58.2993 
          40       1.4017 -3.16971e-05 -1.08332e-05     -58.2993 
          40      1.45409 -3.29523e-05 -1.09782e-05     -58.2992 
          40      1.50745 -3.43046e-05 -1.10991e-05     -58.2992 
          40      1.56176 -3.57253e-05 -1.12024e-05     -58.2992 
          40      1.61705 -3.71895e-05 -1.12909e-05     -58.2992 
          40      1.67329 -3.86758e-05  -1.1365e-05     -58.2992 
          40      1.73049 -4.01673e-05 -1.14228e-05     -58.2992 
          40      1.78865 -4.16506e-05 -1.14615e-05     -58.2992 
          40      1.84778 -4.31162e-05 -1.14774e-05     -58.2991 
          40      1.90786 -4.45573e-05 -1.14677e-05     -58.2991 
          40      1.96891 -4.59699e-05 -1.14302e-05     -58.2991 
          40      2.03092 -4.73516e-05 -1.13648e-05     -58.2991 
          40      2.09389 -4.87011e-05 -1.12728e-05     -58.2991 
          40      2.15782 -5.00158e-05 -1.11579e-05     -58.2991 
          40      2.22272 -5.12916e-05 -1.10249e-05      -58.299 
          40      2.28857 -5.25203e-05  -1.0879e-05      -58.299 
          40      2.35539 -5.36883e-05 -1.07235e-05      -58.299 
          40      2.42317 -5.47737e-05 -1.05574e-05      -58.299 
          40      2.49191  -5.5744e-05 -1.03708e-05     -58.2989 
          40      2.56161 -5.65536e-05   -1.014e-05     -58.2989 
          40      2.63226 -5.71404e-05  -9.8198e-06     -58.2989 
          40      2.70389 -5.74229e-05 -9.33463e-06     -58.2989 
          40      2.77648 -5.73423e-05  -8.8269e-06     -58.2988 
          40      2.85002 -5.70085e-05 -8.51078e-06     -58.2988 
          40      2.92453 -5.64775e-05 -8.07202e-06     -58.2988 
          40            3 -5.58274e-05 -7.59124e-06     -58.2987 
          60            0            0            0     -56.9847 
          60      0.00048  -7.1247e-06 -2.37598e-10     -56.9847 
          60     0.001922 -2.52849e-05 -1.05022e-09     -56.9847 
          60     0.004326 -4.64405e-05 -2.76947e-09     -56.9847 
          60      0.00769 -6.20111e-05 -6.04746e-09     -56.9847 
          60     0.012017 -6.75335e-05 -1.19706e-08     -56.9847 
          60     0.017304 -6.50007e-05 -2.21249e-08     -56.9847 
          60     0.023553 -6.13088e-05 -3.86212e-08     -56.9847 
          60     0.030763 -6.30819e-05 -6.40219e-08     -56.9847 
          60     0.038936 -7.09947e-05  -1.0126e-07     -56.9847 
          60     0.048069 -7.85711e-05 -1.53538e-07     -56.9847 
          60     0.058163 -7.93525e-05  -2.2438e-07     -56.9847 
          60     0.069219  -7.8751e-05 -3.17674e-07     -56.9847 
          60     0.081236  -8.8473e-05 -4.37422e-07     -56.9847 
          60     0.094215 -8.57339e-05 -5.87208e-07     -56.9847 
          60     0.108155 -8.90828e-05 -7.71407e-07     -56.9847 
          60     0.123056 -8.98746e-05 -9.93377e-07     -56.9847 
          60     0.138918 -8.98211e-05 -1.25636e-06     -56.9847 
          60     0.155744 -8.96124e-05 -1.56315e-06     -56.9847 
          60     0.173529 -8.91221e-05 -1.91577e-06     -56.9847 
          60     0.192276 -8.79258e-05  -2.3157e-06     -56.9847 
          60     0.211984 -8.59383e-05 -2.76358e-06     -56.9847 
          60     0.232655 -8.37214e-05 -3.25946e-06     -56.9847 
          60     0.254285 -8.16693e-05 -3.80259e-06     -56.9847 
          60     0.276877 -7.87787e-05 -4.39181e-06     -56.9847 
          60     0.300431 -7.61475e-05 -5.02511e-06     -56.9847 
          60     0.324946 -7.34228e-05 -5.70039e-06     -56.9847 
          60     0.350424 -7.07426e-05 -6.41534e-06     -56.9847 
          60     0.376861 -6.82089e-05 -7.16715e-06     -56.9847 
          60      0.40426 -6.58889e-05 -7.95305e-06     -56.9847 
          60     0.432621 -6.38223e-05 -8.77012e-06     -56.9847 
          60     0.461945 -6.20311e-05 -9.61556e-06     -56.9847 
          60     0.492228 -6.05303e-05 -1.04866e-05     -56.9847 
          60     0.523472 -5.93342e-05 -1.13805e-05     -56.9847 
          60     0.555678 -5.84555e-05 -1.22949e-05     -56.9847 
          60     0.588845 -5.78871e-05 -1.32264e-05     -56.9847 
          60     0.622976 -5.75606e-05  -1.4171e-05     -56.9847 
          60     0.658066 -5.74895e-05  -1.5128e-05     -56.9847 
          60     0.694117 -5.76145e-05  -1.6092e-05     -56.9847 
          60      0.73113 -5.78861e-05 -1.70595e-05     -56.9847 
          60     0.769107 -5.82534e-05 -1.80266e-05     -56.9847 
          60     0.808042 -5.86663e-05 -1.89893e-05     -56.9847 
          60     0.847939 -5.90785e-05 -1.99437e-05     -56.9847 
          60     0.888797 -5.94496e-05 -2.08856e-05     -56.9847 
          60      0.93062 -5.97472e-05 -2.18116e-05     -56.9847 
          60       0.9734 -5.99487e-05 -2.27178e-05     -56.9847 
          60      1.01714 -6.00419e-05 -2.36014e-05     -56.9847 
          60      1.06185 -6.00246e-05 -2.44597e-05     -56.9847 
          60      1.10751 -5.99018e-05 -2.52907e-05     -56.9847 
          60      1.15414 -5.96812e-05  -2.6093e-05     -56.9846 
          60      1.20173 -5.93648e-05 -2.68652e-05     -56.9846 
          60      1.25028 -5.89369e-05 -2.76067e-05     -56.9846 
          60      1.29979 -5.83467e-05 -2.83167e-05     -56.9846 