Variables = x, y, u, v, p

Zone, I=2080, F=POINT
         -50            0            0            0      47.8775 
         -50      0.00048  2.67168e-05  4.06215e-09      47.8775 
         -50     0.001922  9.55615e-05  1.54656e-08      47.8775 
         -50     0.004326    0.0001779  3.22218e-08      47.8775 
         -50      0.00769   0.00024213  5.21895e-08      47.8775 
         -50     0.012017  0.000269647  7.42922e-08      47.8775 
         -50     0.017304  0.000263607  9.91493e-08      47.8775 
         -50     0.023553  0.000245248  1.28935e-07      47.8775 
         -50     0.030763  0.000237969  1.66285e-07      47.8775 
         -50     0.038936  0.000248518  2.13071e-07      47.8775 
         -50     0.048069  0.000260768  2.69995e-07      47.8775 
         -50     0.058163   0.00025511  3.38046e-07      47.8775 
         -50     0.069219  0.000244718  4.20914e-07      47.8775 
         -50     0.081236  0.000265466  5.23673e-07      47.8775 
         -50     0.094215  0.000256175  6.44322e-07      47.8775 
         -50     0.108155  0.000262487  7.90243e-07      47.8775 
         -50     0.123056  0.000264238  9.62246e-07      47.8775 
         -50     0.138918  0.000265087  1.16356e-06      47.8775 
         -50     0.155744  0.000266478  1.39688e-06      47.8775 
         -50     0.173529  0.000268082  1.66425e-06      47.8775 
         -50     0.192276  0.000268907  1.96735e-06      47.8775 
         -50     0.211984  0.000268668   2.3075e-06      47.8775 
         -50     0.232655  0.000268442  2.68584e-06      47.8775 
         -50     0.254285  0.000268937  3.10282e-06      47.8775 
         -50     0.276877  0.000267876  3.55818e-06      47.8775 
         -50     0.300431  0.000267475  4.05286e-06      47.8774 
         -50     0.324946  0.000266856  4.58578e-06      47.8774 
         -50     0.350424  0.000266204  5.15625e-06      47.8774 
         -50     0.376861  0.000265637  5.76378e-06      47.8774 
         -50      0.40426  0.000265215  6.40799e-06      47.8774 
         -50     0.432621  0.000264956    7.088e-06      47.8774 
         -50     0.461945  0.000264855  7.80217e-06      47.8773 
         -50     0.492228  0.000264906  8.54766e-06      47.8773 
         -50     0.523472  0.000265111  9.32076e-06      47.8773 
         -50     0.555678  0.000265478  1.01174e-05      47.8773 
         -50     0.588845  0.000265977  1.09345e-05      47.8772 
         -50     0.622976  0.000266455  1.17729e-05      47.8772 
         -50     0.658066  0.000266956  1.26199e-05      47.8772 
         -50     0.694117  0.000267359  1.34715e-05      47.8771 
         -50      0.73113   0.00026757  1.43243e-05      47.8771 
         -50     0.769107  0.000267514  1.51738e-05       47.877 
         -50     0.808042  0.000267136  1.60151e-05       47.877 
         -50     0.847939  0.000266401  1.68432e-05      47.8769 
         -50     0.888797  0.000265299   1.7654e-05      47.8769 
         -50      0.93062  0.000263843  1.84441e-05      47.8768 
         -50       0.9734  0.000262073   1.9212e-05      47.8768 
         -50      1.01714  0.000260047  1.99581e-05      47.8767 
         -50      1.06185  0.000257841  2.06843e-05      47.8766 
         -50      1.10751  0.000255539  2.13941e-05      47.8765 
         -50      1.15414  0.000253223  2.20908e-05      47.8765 
         -50      1.20173  0.000250962  2.27756e-05      47.8764 
         -50      1.25028  0.000248786  2.34443e-05      47.8763 
         -50      1.29979  0.000246672  2.40824e-05      47.8762 
         -50      1.35026  0.000244514  2.47389e-05      47.8761 
         -50       1.4017  0.000242969  2.53927e-05       47.876 
         -50      1.45409  0.000242033  2.59453e-05      47.8758 
         -50      1.50745  0.000241375  2.64413e-05      47.8757 
         -50      1.56176  0.000240741  2.69071e-05      47.8756 
         -50      1.61705  0.000239952  2.73533e-05      47.8754 
         -50      1.67329  0.000238895  2.77766e-05      47.8753 
         -50      1.73049  0.000237518  2.81634e-05      47.8751 
         -50      1.78865  0.000235817  2.84931e-05       47.875 
         -50      1.84778  0.000233826   2.8742e-05      47.8748 
         -50      1.90786  0.000231603  2.88874e-05      47.8746 
         -50      1.96891  0.000229217  2.89117e-05      47.8744 
         -50      2.03092  0.000226737  2.88064e-05      47.8743 
         -50      2.09389  0.000224217  2.85748e-05       47.874 
         -50      2.15782  0.000221695  2.82354e-05      47.8738 
         -50      2.22272  0.000219181   2.7822e-05      47.8736 
         -50      2.28857  0.000216666   2.7384e-05      47.8734 
         -50      2.35539  0.000214127  2.69823e-05      47.8731 
         -50      2.42317  0.000211551  2.66845e-05      47.8729 
         -50      2.49191  0.000208965  2.65543e-05      47.8726 
         -50      2.56161   0.00020649  2.66377e-05      47.8723 
         -50      2.63226  0.000204401   2.6943e-05       47.872 
         -50      2.70389  0.000203227  2.74149e-05      47.8717 
         -50      2.77648  0.000203176  2.83171e-05      47.8714 
         -50      2.85002  0.000203056  2.96311e-05      47.8711 
         -50      2.92453  0.000203228  3.06654e-05      47.8708 
         -50            3  0.000203497  3.15327e-05      47.8704 
         -25            0  2.04151e-19  1.65954e-23      45.9338 
         -25      0.00048  1.91593e-05  1.58134e-09      45.9338 
         -25     0.001922  6.84066e-05  5.91823e-09      45.9338 
         -25     0.004326  0.000126904  1.19258e-08      45.9338 
         -25      0.00769  0.000171666  1.82428e-08      45.9338 
         -25     0.012017  0.000189193  2.36885e-08      45.9338 
         -25     0.017304  0.000181856  2.74973e-08      45.9338 
         -25     0.023553   0.00016521  2.92424e-08      45.9338 
         -25     0.030763    0.0001564  2.84089e-08      45.9338 
         -25     0.038936  0.000160439  2.39134e-08      45.9338 
         -25     0.048069  0.000165684  1.39895e-08      45.9338 
         -25     0.058163  0.000157947 -3.22209e-09      45.9338 
         -25     0.069219  0.000146921 -2.86627e-08      45.9338 
         -25     0.081236  0.000158826 -6.27831e-08      45.9338 
         -25     0.094215  0.000149157 -1.08791e-07      45.9338 
         -25     0.108155  0.000151218 -1.66061e-07      45.9338 
         -25     0.123056  0.000150351 -2.36383e-07      45.9338 
         -25     0.138918  0.000149235  -3.2032e-07      45.9338 
         -25     0.155744  0.000148914 -4.18323e-07      45.9338 
         -25     0.173529  0.000149125 -5.30644e-07      45.9337 
         -25     0.192276  0.000149107 -6.57399e-07      45.9337 
         -25     0.211984  0.000148598 -7.98459e-07      45.9337 
         -25     0.232655  0.000148322 -9.53494e-07      45.9337 
         -25     0.254285  0.000148727 -1.12199e-06      45.9337 
         -25     0.276877  0.000148084 -1.30338e-06      45.9337 
         -25     0.300431  0.000147937 -1.49743e-06      45.9337 
         -25     0.324946  0.000147583 -1.70357e-06      45.9337 
         -25     0.350424  0.000147096 -1.92109e-06      45.9337 
         -25     0.376861   0.00014651 -2.14942e-06      45.9337 
         -25      0.40426  0.000145829 -2.38815e-06      45.9337 
         -25     0.432621  0.000145034 -2.63684e-06      45.9337 
         -25     0.461945  0.000144108 -2.89496e-06      45.9337 
         -25     0.492228  0.000143045 -3.16168e-06      45.9337 
         -25     0.523472  0.000141864 -3.43599e-06      45.9337 
         -25     0.555678  0.000140604 -3.71672e-06      45.9337 
         -25     0.588845  0.000139295 -4.00284e-06      45.9336 
         -25     0.622976  0.000137896 -4.29323e-06      45.9336 
         -25     0.658066   0.00013652 -4.58009e-06      45.9336 
         -25     0.694117  0.000135152  -4.8754e-06      45.9336 
         -25      0.73113   0.00013384 -5.16874e-06      45.9336 
         -25     0.769107  0.000132623 -5.45366e-06      45.9336 
         -25     0.808042  0.000131532 -5.72701e-06      45.9336 
         -25     0.847939  0.000130587 -5.98821e-06      45.9335 
         -25     0.888797  0.000129802  -6.2381e-06      45.9335 
         -25      0.93062  0.000129182 -6.47786e-06      45.9335 
         -25       0.9734  0.000128724 -6.70782e-06      45.9335 
         -25      1.01714  0.000128423  -6.9268e-06      45.9334 
         -25      1.06185  0.000128269 -7.13152e-06      45.9334 
         -25      1.10751  0.000128256 -7.31716e-06      45.9334 
         -25      1.15414  0.000128381 -7.47882e-06      45.9333 
         -25      1.20173  0.000128654  -7.6147e-06      45.9333 
         -25      1.25028  0.000129098 -7.73152e-06      45.9333 
         -25      1.29979   0.00012976 -7.85267e-06      45.9332 
         -25      1.35026  0.000130612 -7.96901e-06      45.9332 
         -25       1.4017  0.000131493 -8.00914e-06      45.9331 
         -25      1.45409   0.00013252 -8.03495e-06      45.9331 
         -25      1.50745  0.000133704 -8.04596e-06      45.9331 
         -25      1.56176  0.000135035 -8.04227e-06       45.933 
         -25      1.61705  0.000136478 -8.02461e-06      45.9329 
         -25      1.67329   0.00013798 -7.99437e-06      45.9329 
         -25      1.73049  0.000139475  -7.9535e-06      45.9328 
         -25      1.78865  0.000140888 -7.90453e-06      45.9328 
         -25      1.84778   0.00014214 -7.85048e-06      45.9327 
         -25      1.90786  0.000143156 -7.79471e-06      45.9326 
         -25      1.96891  0.000143868 -7.74075e-06      45.9326 
         -25      2.03092  0.000144225 -7.69207e-06      45.9325 
         -25      2.09389  0.000144194 -7.65181e-06      45.9324 
         -25      2.15782  0.000143769 -7.62237e-06      45.9323 
         -25      2.22272   0.00014297 -7.60499e-06      45.9322 
         -25      2.28857  0.000141847 -7.59917e-06      45.9321 
         -25      2.35539   0.00014048 -7.60202e-06       45.932 
         -25      2.42317  0.000138968 -7.60746e-06      45.9319 
         -25      2.49191  0.000137427  -7.6053e-06      45.9318 
         -25      2.56161  0.000135972 -7.58017e-06      45.9317 
         -25      2.63226  0.000134698 -7.51026e-06      45.9316 
         -25      2.70389  0.000133648 -7.36581e-06      45.9315 
         -25      2.77648  0.000132923 -7.45409e-06      45.9314 
         -25      2.85002   0.00013288 -6.60982e-06      45.9312 
         -25      2.92453  0.000133144 -5.62022e-06      45.9311 
         -25            3  0.000133572 -4.65707e-06       45.931 
           0            0   1.7134e-19  7.98105e-24      44.4065 
           0      0.00048  1.60807e-05  7.65008e-10      44.4065 
           0     0.001922  5.74217e-05  2.91801e-09      44.4065 
           0     0.004326   0.00010655  6.09514e-09      44.4065 
           0      0.00769  0.000144189  9.89273e-09      44.4065 
           0     0.012017  0.000159012  1.40715e-08      44.4065 
           0     0.017304  0.000152992  1.86447e-08      44.4065 
           0     0.023553  0.000139158  2.38184e-08      44.4065 
           0     0.030763  0.000131865  2.97539e-08      44.4065 
           0     0.038936  0.000135307  3.63109e-08      44.4065 
           0     0.048069  0.000139715  4.29548e-08      44.4065 
           0     0.058163   0.00013319  4.90222e-08      44.4065 
           0     0.069219  0.000123856  5.41807e-08      44.4065 
           0     0.081236  0.000133697  5.82027e-08      44.4065 
           0     0.094215  0.000125418  5.94004e-08      44.4065 
           0     0.108155  0.000126947  5.77836e-08      44.4065 
           0     0.123056  0.000126017  5.20768e-08      44.4065 
           0     0.138918  0.000124891  4.14836e-08      44.4065 
           0     0.155744  0.000124463  2.51807e-08      44.4065 
           0     0.173529  0.000124533  2.36809e-09      44.4065 
           0     0.192276   0.00012448 -2.76974e-08      44.4065 
           0     0.211984  0.000124097 -6.56413e-08      44.4065 
           0     0.232655  0.000124004 -1.11953e-07      44.4065 
           0     0.254285  0.000124581 -1.66987e-07      44.4065 
           0     0.276877  0.000124382 -2.31044e-07      44.4065 
           0     0.300431  0.000124703 -3.04397e-07      44.4065 
           0     0.324946  0.000124946 -3.87001e-07      44.4065 
           0     0.350424  0.000125166 -4.78727e-07      44.4065 
           0     0.376861  0.000125384 -5.79416e-07      44.4065 
           0      0.40426  0.000125589 -6.88867e-07      44.4065 
           0     0.432621  0.000125757  -8.0674e-07      44.4065 
           0     0.461945  0.000125859 -9.32502e-07      44.4065 
           0     0.492228   0.00012588 -1.06536e-06      44.4065 
           0     0.523472  0.000125825  -1.2043e-06      44.4065 
           0     0.555678  0.000125716 -1.34822e-06      44.4065 
           0     0.588845  0.000125569 -1.49612e-06      44.4065 
           0     0.622976  0.000125338 -1.64754e-06      44.4065 
           0     0.658066  0.000125101 -1.79956e-06      44.4065 
           0     0.694117  0.000124845 -1.95217e-06      44.4064 
           0      0.73113   0.00012459  -2.1041e-06      44.4064 
           0     0.769107   0.00012435 -2.25429e-06      44.4064 
           0     0.808042  0.000124133 -2.40195e-06      44.4064 
           0     0.847939  0.000123945 -2.54658e-06      44.4064 
           0     0.888797  0.000123784 -2.68795e-06      44.4064 
           0      0.93062  0.000123648 -2.82608e-06      44.4064 
           0       0.9734  0.000123528 -2.96118e-06      44.4064 
           0      1.01714  0.000123414 -3.09364e-06      44.4064 
           0      1.06185  0.000123295 -3.22382e-06      44.4064 
           0      1.10751  0.000123164 -3.35203e-06      44.4063 
           0      1.15414  0.000123015 -3.47827e-06      44.4063 
           0      1.20173   0.00012285 -3.60205e-06      44.4063 
           0      1.25028  0.000122679 -3.72212e-06      44.4063 
           0      1.29979  0.000122525 -3.83618e-06      44.4063 
           0      1.35026  0.000122408 -3.93932e-06      44.4062 
           0       1.4017  0.000122158 -4.04757e-06      44.4062 
           0      1.45409  0.000121808 -4.15851e-06      44.4062 
           0      1.50745  0.000121425 -4.26091e-06      44.4062 
           0      1.56176  0.000121041 -4.34873e-06      44.4062 
           0      1.61705  0.000120657 -4.42021e-06      44.4061 
           0      1.67329  0.000120253 -4.47673e-06      44.4061 
           0      1.73049  0.000119791 -4.52156e-06      44.4061 
           0      1.78865  0.000119232 -4.55851e-06       44.406 
           0      1.84778   0.00011854 -4.59053e-06       44.406 
           0      1.90786  0.000117695 -4.61835e-06       44.406 
           0      1.96891  0.000116701 -4.63936e-06      44.4059 
           0      2.03092  0.000115593 -4.64661e-06      44.4059 
           0      2.09389  0.000114444 -4.62839e-06      44.4059 
           0      2.15782  0.000113365 -4.56833e-06      44.4058 
           0      2.22272  0.000112504 -4.44624e-06      44.4058 
           0      2.28857  0.000112033 -4.24006e-06      44.4057 
           0      2.35539  0.000112138 -3.92908e-06      44.4057 
           0      2.42317  0.000112985 -3.49863e-06      44.4056 
           0      2.49191  0.000114687 -2.94696e-06      44.4056 
           0      2.56161  0.000117248 -2.29406e-06      44.4055 
           0      2.63226  0.000120497 -1.59351e-06      44.4055 
           0      2.70389  0.000123994 -9.47321e-07      44.4054 
           0      2.77648  0.000127219 -2.94058e-07      44.4054 
           0      2.85002  0.000130427  5.31749e-07      44.4053 
           0      2.92453  0.000133296  1.15277e-06      44.4052 
           0            3  0.000135734  1.56764e-06      44.4052 
          20            0  1.59345e-19  4.77162e-24      43.3305 
          20      0.00048  1.49623e-05  4.53135e-10      43.3305 
          20     0.001922  5.35158e-05  1.67766e-09      43.3305 
          20     0.004326    9.962e-05  3.31382e-09      43.3305 
          20      0.00769  0.000135574  4.90914e-09      43.3305 
          20     0.012017  0.000150965  6.07533e-09      43.3305 
          20     0.017304  0.000147576  6.59047e-09      43.3305 
          20     0.023553  0.000137324  6.41435e-09      43.3305 
          20     0.030763  0.000133342   5.6065e-09      43.3305 
          20     0.038936  0.000139428  4.22474e-09      43.3305 
          20     0.048069  0.000146561  2.32334e-09      43.3305 
          20     0.058163  0.000143766  1.42441e-10      43.3305 
          20     0.069219  0.000138432 -1.59317e-09      43.3305 
          20     0.081236  0.000150665 -1.80589e-09      43.3305 
          20     0.094215  0.000146181 -1.90847e-11      43.3305 
          20     0.108155  0.000150547  5.48953e-09      43.3305 
          20     0.123056  0.000152452  1.58547e-08      43.3305 
          20     0.138918  0.000153929  3.26042e-08      43.3305 
          20     0.155744  0.000155767   5.7283e-08      43.3305 
          20     0.173529   0.00015776  9.13801e-08      43.3305 
          20     0.192276   0.00015933  1.36305e-07      43.3305 
          20     0.211984  0.000160295  1.93328e-07      43.3305 
          20     0.232655   0.00016124  2.63558e-07      43.3305 
          20     0.254285  0.000162544   3.4784e-07      43.3305 
          20     0.276877  0.000162917  4.46711e-07      43.3305 
          20     0.300431  0.000163589  5.60587e-07      43.3305 
          20     0.324946   0.00016406  6.89443e-07      43.3305 
          20     0.350424  0.000164427  8.33012e-07      43.3305 
          20     0.376861  0.000164752  9.90783e-07      43.3305 
          20      0.40426  0.000165065  1.16207e-06      43.3305 
          20     0.432621  0.000165376  1.34593e-06      43.3305 
          20     0.461945  0.000165679  1.54123e-06      43.3305 
          20     0.492228  0.000165973   1.7466e-06      43.3305 
          20     0.523472  0.000166263  1.96058e-06      43.3305 
          20     0.555678  0.000166558   2.1817e-06      43.3305 
          20     0.588845   0.00016685  2.40869e-06      43.3305 
          20     0.622976   0.00016707  2.64045e-06      43.3305 
          20     0.658066  0.000167253  2.87231e-06      43.3305 
          20     0.694117  0.000167353  3.10704e-06      43.3305 
          20      0.73113  0.000167351  3.34248e-06      43.3305 
          20     0.769107  0.000167226  3.57705e-06      43.3305 
          20     0.808042  0.000166967  3.80966e-06      43.3305 
          20     0.847939  0.000166564  4.03973e-06      43.3305 
          20     0.888797  0.000166013  4.26695e-06      43.3305 
          20      0.93062  0.000165312   4.4912e-06      43.3305 
          20       0.9734  0.000164463  4.71235e-06      43.3304 
          20      1.01714  0.000163469  4.93025e-06      43.3304 
          20      1.06185  0.000162334  5.14455e-06      43.3304 
          20      1.10751  0.000161062  5.35483e-06      43.3304 
          20      1.15414  0.000159655  5.56072e-06      43.3304 
          20      1.20173  0.000158113  5.76223e-06      43.3304 
          20      1.25028  0.000156435  5.96048e-06      43.3304 
          20      1.29979  0.000154615  6.15867e-06      43.3304 
          20      1.35026  0.000152664  6.33871e-06      43.3304 
          20       1.4017  0.000150615  6.50072e-06      43.3304 
          20      1.45409  0.000148475  6.67376e-06      43.3303 
          20      1.50745  0.000146258   6.8433e-06      43.3303 
          20      1.56176  0.000143971  6.99893e-06      43.3303 
          20      1.61705  0.000141613  7.13401e-06      43.3303 
          20      1.67329  0.000139175  7.24519e-06      43.3303 
          20      1.73049  0.000136648  7.33189e-06      43.3303 
          20      1.78865  0.000134019  7.39564e-06      43.3302 
          20      1.84778  0.000131279  7.43928e-06      43.3302 
          20      1.90786  0.000128423  7.46622e-06      43.3302 
          20      1.96891  0.000125453  7.47968e-06      43.3302 
          20      2.03092  0.000122379  7.48196e-06      43.3302 
          20      2.09389  0.000119225  7.47384e-06      43.3301 
          20      2.15782  0.000116026  7.45419e-06      43.3301 
          20      2.22272   0.00011283  7.41984e-06      43.3301 
          20      2.28857  0.000109693  7.36588e-06      43.3301 
          20      2.35539  0.000106682  7.28642e-06        43.33 
          20      2.42317  0.000103863  7.17604e-06        43.33 
          20      2.49191  0.000101299  7.03204e-06        43.33 
          20      2.56161  9.90302e-05  6.85763e-06      43.3299 
          20      2.63226  9.70656e-05  6.66638e-06      43.3299 
          20      2.70389  9.53579e-05  6.48799e-06      43.3299 
          20      2.77648  9.38497e-05   6.3457e-06      43.3298 
          20      2.85002  9.27157e-05  6.17551e-06      43.3298 
          20      2.92453  9.18576e-05  5.82387e-06      43.3298 
          20            3  9.13875e-05  5.74033e-06      43.3297 
          40            0  1.50995e-19  2.95507e-24      42.3274 
          40      0.00048  1.41794e-05   2.8342e-10      42.3274 
          40     0.001922  5.07282e-05  1.08415e-09      42.3274 
          40     0.004326  9.44756e-05  2.28428e-09      42.3274 
          40      0.00769  0.000128676  3.78708e-09      42.3274 
          40     0.012017   0.00014347    5.627e-09      42.3274 
          40     0.017304  0.000140521  8.04449e-09      42.3274 
          40     0.023553  0.000131074  1.15107e-08      42.3274 
          40     0.030763  0.000127514  1.66827e-08      42.3274 
          40     0.038936   0.00013341  2.43473e-08      42.3274 
          40     0.048069  0.000140209  3.54054e-08      42.3274 
          40     0.058163  0.000137513  5.09831e-08      42.3274 
          40     0.069219  0.000132286  7.25896e-08      42.3274 
          40     0.081236  0.000143516  1.01999e-07      42.3274 
          40     0.094215  0.000138786  1.40629e-07      42.3274 
          40     0.108155  0.000142255  1.90618e-07      42.3274 
          40     0.123056  0.000143234  2.53678e-07      42.3274 
          40     0.138918   0.00014365  3.31635e-07      42.3274 
          40     0.155744   0.00014426  4.26171e-07      42.3274 
          40     0.173529  0.000144885  5.38703e-07      42.3274 
          40     0.192276  0.000145001   6.7043e-07      42.3274 
          40     0.211984  0.000144459  8.22231e-07      42.3274 
          40     0.232655  0.000143834    9.947e-07      42.3274 
          40     0.254285  0.000143509  1.18801e-06      42.3274 
          40     0.276877  0.000142289  1.40205e-06      42.3274 
          40     0.300431  0.000141359  1.63656e-06      42.3274 
          40     0.324946  0.000140268  1.89071e-06      42.3274 
          40     0.350424  0.000139125  2.16357e-06      42.3274 
          40     0.376861  0.000138006  2.45407e-06      42.3274 
          40      0.40426  0.000136956  2.76108e-06      42.3274 
          40     0.432621  0.000135997   3.0833e-06      42.3274 
          40     0.461945  0.000135137  3.41931e-06      42.3274 
          40     0.492228  0.000134387  3.76743e-06      42.3274 
          40     0.523472  0.000133761  4.12594e-06      42.3274 
          40     0.555678  0.000133278  4.49309e-06      42.3274 
          40     0.588845  0.000132938  4.86731e-06      42.3274 
          40     0.622976  0.000132678  5.24735e-06      42.3274 
          40     0.658066  0.000132537  5.62811e-06      42.3274 
          40     0.694117  0.000132468  6.01186e-06      42.3274 
          40      0.73113  0.000132442  6.39501e-06      42.3274 
          40     0.769107  0.000132436  6.77477e-06      42.3274 
          40     0.808042  0.000132425  7.14889e-06      42.3274 
          40     0.847939  0.000132389  7.51583e-06      42.3274 
          40     0.888797  0.000132313   7.8744e-06      42.3274 
          40      0.93062  0.000132186  8.22371e-06      42.3274 
          40       0.9734  0.000132003  8.56291e-06      42.3274 
          40      1.01714  0.000131763  8.89128e-06      42.3274 
          40      1.06185   0.00013147  9.20802e-06      42.3274 
          40      1.10751  0.000131131  9.51244e-06      42.3274 
          40      1.15414   0.00013075  9.80428e-06      42.3274 
          40      1.20173  0.000130328  1.00842e-05      42.3273 
          40      1.25028  0.000129852  1.03549e-05      42.3273 
          40      1.29979  0.000129292  1.06224e-05      42.3273 
          40      1.35026  0.000128634  1.08739e-05      42.3273 
          40       1.4017  0.000128011   1.1091e-05      42.3273 
          40      1.45409  0.000127362  1.13014e-05      42.3273 
          40      1.50745  0.000126648  1.14989e-05      42.3273 
          40      1.56176   0.00012584  1.16787e-05      42.3273 
          40      1.61705  0.000124925   1.1837e-05      42.3273 
          40      1.67329  0.000123898  1.19713e-05      42.3273 
          40      1.73049  0.000122765  1.20805e-05      42.3273 
          40      1.78865  0.000121544  1.21643e-05      42.3272 
          40      1.84778  0.000120256  1.22236e-05      42.3272 
          40      1.90786  0.000118931  1.22601e-05      42.3272 
          40      1.96891  0.000117602  1.22762e-05      42.3272 
          40      2.03092  0.000116303  1.22748e-05      42.3272 
          40      2.09389  0.000115067  1.22593e-05      42.3272 
          40      2.15782  0.000113926  1.22333e-05      42.3272 
          40      2.22272  0.000112907  1.22004e-05      42.3272 
          40      2.28857  0.000112033  1.21643e-05      42.3271 
          40      2.35539   0.00011132  1.21285e-05      42.3271 
          40      2.42317  0.000110778  1.20967e-05      42.3271 
          40      2.49191  0.000110416  1.20723e-05      42.3271 
          40      2.56161  0.000110241  1.20592e-05      42.3271 
          40      2.63226  0.000110264  1.20619e-05       42.327 
          40      2.70389  0.000110509  1.20864e-05       42.327 
          40      2.77648  0.000110952  1.21514e-05       42.327 
          40      2.85002  0.000111495  1.22413e-05       42.327 
          40      2.92453  0.000112134  1.22981e-05       42.327 
          40            3   0.00011277  1.23042e-05      42.3269 
          60            0            0            0      41.3693 
          60      0.00048  1.37252e-05  1.82321e-10      41.3693 
          60     0.001922  4.91265e-05  7.33467e-10      41.3693 
          60     0.004326  9.15774e-05  1.68753e-09      41.3693 
          60      0.00769  0.000124929  3.17057e-09      41.3693 
          60     0.012017  0.000139668  5.48017e-09      41.3693 
          60     0.017304   0.00013738  9.14125e-09      41.3693 
          60     0.023553  0.000128883   1.4935e-08      41.3693 
          60     0.030763  0.000126096  2.38772e-08      41.3693 
          60     0.038936  0.000132436  3.71917e-08      41.3693 
          60     0.048069  0.000139639  5.62935e-08      41.3693 
          60     0.058163  0.000137662  8.28606e-08      41.3693 
          60     0.069219  0.000133198  1.18917e-07      41.3693 
          60     0.081236   0.00014453   1.6673e-07      41.3693 
          60     0.094215  0.000140402  2.28388e-07      41.3693 
          60     0.108155  0.000144085  3.06447e-07      41.3693 
          60     0.123056  0.000145269  4.03145e-07      41.3693 
          60     0.138918  0.000145808  5.20718e-07      41.3693 
          60     0.155744  0.000146431  6.61204e-07      41.3693 
          60     0.173529  0.000146969  8.26274e-07      41.3693 
          60     0.192276  0.000146921   1.0173e-06      41.3693 
          60     0.211984  0.000146154  1.23523e-06      41.3693 
          60     0.232655  0.000145234   1.4806e-06      41.3693 
          60     0.254285  0.000144543  1.75345e-06      41.3693 
          60     0.276877  0.000142942  2.05348e-06      41.3693 
          60     0.300431  0.000141588  2.37994e-06      41.3693 
          60     0.324946  0.000140056  2.73179e-06      41.3693 
          60     0.350424  0.000138467  3.10775e-06      41.3693 
          60     0.376861  0.000136902  3.50624e-06      41.3693 
          60      0.40426  0.000135414  3.92556e-06      41.3693 
          60     0.432621  0.000134031  4.36386e-06      41.3693 
          60     0.461945  0.000132767  4.81923e-06      41.3693 
          60     0.492228  0.000131633  5.28967e-06      41.3693 
          60     0.523472  0.000130647  5.77324e-06      41.3693 
          60     0.555678  0.000129827  6.26794e-06      41.3693 
          60     0.588845  0.000129175   6.7715e-06      41.3693 
          60     0.622976   0.00012863  7.28139e-06      41.3693 
          60     0.658066  0.000128226  7.79614e-06      41.3693 
          60     0.694117  0.000127919   8.3122e-06      41.3693 
          60      0.73113  0.000127682  8.82758e-06      41.3693 
          60     0.769107  0.000127487  9.34007e-06      41.3693 
          60     0.808042  0.000127311  9.84727e-06      41.3693 
          60     0.847939  0.000127132  1.03469e-05      41.3693 
          60     0.888797  0.000126935  1.08367e-05      41.3693 
          60      0.93062  0.000126708  1.13148e-05      41.3693 
          60       0.9734  0.000126447  1.17795e-05      41.3693 
          60      1.01714  0.000126151  1.22295e-05      41.3693 
          60      1.06185  0.000125825  1.26641e-05      41.3693 
          60      1.10751  0.000125477  1.30831e-05      41.3693 
          60      1.15414  0.000125114  1.34865e-05      41.3693 
          60      1.20173  0.000124736  1.38744e-05      41.3693 
          60      1.25028   0.00012433  1.42467e-05      41.3693 
          60      1.29979  0.000123862  1.46022e-05      41.3693 