Variables = x, y, u, v, p

Zone, I=416, F=POINT
         -50            0            0            0    -0.374548 
         -50     0.013333  7.16171e-05 -1.60406e-09    -0.374548 
         -50     0.053333  7.34665e-05 -1.03132e-07    -0.374547 
         -50         0.12  8.83842e-05 -4.88173e-07    -0.374547 
         -50     0.213332  0.000104914 -1.14593e-06    -0.374546 
         -50     0.333332  0.000115863  -1.8701e-06    -0.374545 
         -50         0.48  0.000120273 -2.51822e-06    -0.374544 
         -50     0.653331  0.000118057 -3.17855e-06    -0.374542 
         -50     0.853332  0.000109031 -3.95414e-06     -0.37454 
         -50         1.08  9.56744e-05 -4.78791e-06    -0.374537 
         -50      1.33333  7.94102e-05 -5.48303e-06    -0.374533 
         -50      1.61333  5.90998e-05 -5.97438e-06    -0.374529 
         -50         1.92  4.73145e-05 -5.42797e-06    -0.374523 
         -50      2.25333  3.78586e-05 -4.84004e-06    -0.374516 
         -50      2.61333  4.54346e-05  2.59976e-06    -0.374508 
         -50            3  6.22806e-05  1.45536e-05    -0.374498 
         -25            0  6.17488e-20   2.4991e-25     -0.36321 
         -25     0.013333  5.77048e-05  2.00662e-08     -0.36321 
         -25     0.053333  6.66958e-05  2.80018e-07     -0.36321 
         -25         0.12  7.19919e-05  1.29994e-06     -0.36321 
         -25     0.213332  6.25012e-05  3.61863e-06     -0.36321 
         -25     0.333332  4.50785e-05   7.4051e-06    -0.363209 
         -25         0.48  3.25739e-05  1.24713e-05    -0.363209 
         -25     0.653331  3.16824e-05  1.85214e-05    -0.363208 
         -25     0.853332  3.95836e-05  2.50671e-05    -0.363207 
         -25         1.08  4.67402e-05  3.12693e-05    -0.363206 
         -25      1.33333  4.92871e-05  3.63735e-05    -0.363204 
         -25      1.61333  5.15041e-05  3.98288e-05    -0.363202 
         -25         1.92  4.60605e-05  4.05013e-05      -0.3632 
         -25      2.25333  4.19047e-05  3.98516e-05    -0.363196 
         -25      2.61333  4.55563e-05  3.65937e-05    -0.363193 
         -25            3  4.04455e-05  2.84329e-05    -0.363188 
           0            0  4.82887e-20   1.1743e-25    -0.354273 
           0     0.013333  3.93106e-05  1.80322e-08    -0.354273 
           0     0.053333  2.42008e-05  2.37496e-07    -0.354273 
           0         0.12  4.70845e-06  9.48813e-07    -0.354273 
           0     0.213332 -1.66323e-05  2.21404e-06    -0.354273 
           0     0.333332 -3.30619e-05  3.80855e-06    -0.354273 
           0         0.48 -4.17085e-05  5.52361e-06    -0.354272 
           0     0.653331 -4.23694e-05  7.39127e-06    -0.354272 
           0     0.853332 -3.38397e-05  9.54885e-06    -0.354271 
           0         1.08  -1.8755e-05  1.18781e-05    -0.354271 
           0      1.33333 -2.90689e-06  1.40053e-05    -0.354269 
           0      1.61333  1.66595e-05  1.55903e-05    -0.354268 
           0         1.92  3.60216e-05  1.64206e-05    -0.354265 
           0      2.25333  4.61752e-05  1.62922e-05    -0.354262 
           0      2.61333  5.28579e-05  1.62984e-05    -0.354259 
           0            3   6.0565e-05   1.7208e-05    -0.354255 
          20            0  4.38204e-20  6.92325e-26    -0.348006 
          20     0.013333   3.4809e-05  1.56564e-08    -0.348006 
          20     0.053333  1.81512e-05  2.07776e-07    -0.348006 
          20         0.12 -1.32045e-06  8.09876e-07    -0.348006 
          20     0.213332 -1.81414e-05  1.78788e-06    -0.348006 
          20     0.333332 -2.52764e-05  2.80448e-06    -0.348005 
          20         0.48 -2.32481e-05  3.57013e-06    -0.348005 
          20     0.653331 -1.71224e-05  4.08327e-06    -0.348005 
          20     0.853332 -9.24933e-06  4.49281e-06    -0.348005 
          20         1.08  -4.4815e-07  4.82981e-06    -0.348004 
          20      1.33333  8.85572e-06  5.00556e-06    -0.348003 
          20      1.61333  2.14277e-05  4.95105e-06    -0.348002 
          20         1.92  3.27531e-05  4.64415e-06       -0.348 
          20      2.25333  4.11271e-05   4.1762e-06    -0.347998 
          20      2.61333  4.53577e-05  3.42266e-06    -0.347995 
          20            3  4.61979e-05  4.39387e-06    -0.347992 
          40            0  4.18013e-20  4.30884e-26    -0.342222 
          40     0.013333  3.37002e-05   2.0205e-08    -0.342222 
          40     0.053333  1.82468e-05  2.79465e-07    -0.342222 
          40         0.12  -4.2763e-06  1.13998e-06    -0.342222 
          40     0.213332 -3.03724e-05  2.70147e-06    -0.342222 
          40     0.333332 -5.12207e-05  4.71771e-06    -0.342222 
          40         0.48 -6.26534e-05  6.94722e-06    -0.342222 
          40     0.653331 -6.40436e-05  9.43289e-06    -0.342222 
          40     0.853332 -5.42569e-05  1.23381e-05    -0.342222 
          40         1.08 -3.77255e-05  1.54937e-05    -0.342221 
          40      1.33333 -2.28765e-05  1.83576e-05     -0.34222 
          40      1.61333 -4.60283e-06  2.05509e-05    -0.342219 
          40         1.92   1.5515e-05  2.18026e-05    -0.342218 
          40      2.25333  3.48818e-05  2.22963e-05    -0.342215 
          40      2.61333  5.69305e-05  2.19944e-05    -0.342213 
          40            3  6.84968e-05  2.09957e-05     -0.34221 
          60            0            0            0    -0.336694 
          60     0.013333  3.60757e-05  1.22119e-09    -0.336694 
          60     0.053333  3.49699e-05  8.62773e-09    -0.336694 
          60         0.12  3.99724e-05  3.49545e-09    -0.336694 
          60     0.213332  4.80146e-05  -5.7623e-08    -0.336694 
          60     0.333332  5.63146e-05 -1.61031e-07    -0.336694 
          60         0.48  6.28436e-05 -1.97958e-07    -0.336694 
          60     0.653331  6.70982e-05  -3.6436e-08    -0.336693 
          60     0.853332  6.95095e-05  3.99647e-07    -0.336693 
          60         1.08  6.85082e-05  1.03657e-06    -0.336693 
          60      1.33333  6.17291e-05  1.66593e-06    -0.336693 
          60      1.61333  5.01113e-05  2.16387e-06    -0.336693 
          60         1.92  3.54507e-05   2.5159e-06    -0.336692 
          60      2.25333  2.35231e-05  2.81852e-06    -0.336692 
          60      2.61333  2.00468e-05  3.29945e-06    -0.336692 
          60            3  2.08071e-05  3.15594e-06    -0.336691 
          80            0            0            0    -0.331388 
          80     0.013333  2.97626e-05  3.05287e-09    -0.331388 
          80     0.053333  1.31342e-05  3.86284e-08    -0.331388 
          80         0.12 -4.83238e-06  1.39931e-07    -0.331388 
          80     0.213332 -2.15828e-05  2.61551e-07    -0.331388 
          80     0.333332 -3.34674e-05  2.49879e-07    -0.331388 
          80         0.48 -3.99503e-05 -8.01497e-08    -0.331388 
          80     0.653331 -4.34844e-05 -8.19516e-07    -0.331388 
          80     0.853332 -4.42583e-05 -1.87647e-06    -0.331388 
          80         1.08 -3.91698e-05 -2.97693e-06    -0.331388 
          80      1.33333 -2.78803e-05 -3.95209e-06    -0.331388 
          80      1.61333 -1.30108e-05 -4.74784e-06    -0.331387 
          80         1.92  1.96177e-06 -5.31255e-06    -0.331387 
          80      2.25333  1.38876e-05 -5.74971e-06    -0.331386 
          80      2.61333  1.93055e-05 -6.16954e-06    -0.331385 
          80            3  1.76058e-05 -5.88559e-06    -0.331384 
         100            0  4.16801e-20  1.42422e-26     -0.32613 
         100     0.013333  3.90215e-05  1.23828e-08     -0.32613 
         100     0.053333  4.51781e-05  1.94534e-07     -0.32613 
         100         0.12  4.81519e-05  9.30763e-07     -0.32613 
         100     0.213332  4.05808e-05  2.60311e-06     -0.32613 
         100     0.333332  2.83836e-05  5.27246e-06     -0.32613 
         100         0.48  2.07128e-05  8.68499e-06     -0.32613 
         100     0.653331   2.0469e-05   1.2533e-05     -0.32613 
         100     0.853332  2.44795e-05  1.65054e-05    -0.326129 
         100         1.08  2.74319e-05  2.02335e-05    -0.326129 
         100      1.33333  2.69577e-05  2.34387e-05    -0.326129 
         100      1.61333  2.68187e-05  2.59022e-05    -0.326129 
         100         1.92  2.63469e-05  2.72577e-05    -0.326129 
         100      2.25333  2.70136e-05  2.74975e-05    -0.326129 
         100      2.61333  3.09535e-05  2.66805e-05    -0.326129 
         100            3  3.56204e-05   2.4892e-05    -0.326129 
         150            0           -0           -0    -0.313084 
         150     0.013333  2.43389e-05  1.21315e-08    -0.313084 
         150     0.053333 -4.35904e-06  1.58588e-07    -0.313084 
         150         0.12 -3.88567e-05    5.719e-07    -0.313084 
         150     0.213332 -6.92996e-05  1.11298e-06    -0.313084 
         150     0.333332 -8.77069e-05  1.43331e-06    -0.313085 
         150         0.48 -9.51028e-05  1.30739e-06    -0.313085 
         150     0.653331 -9.63033e-05  8.22996e-07    -0.313085 
         150     0.853332 -9.08735e-05  3.40779e-07    -0.313085 
         150         1.08 -7.55754e-05  2.38587e-07    -0.313085 
         150      1.33333 -5.35957e-05  4.94131e-07    -0.313084 
         150      1.61333  -2.7399e-05  7.98701e-07    -0.313084 
         150         1.92 -1.11059e-06  1.20285e-06    -0.313082 
         150      2.25333   2.1413e-05   1.5352e-06    -0.313081 
         150      2.61333  4.15417e-05  1.84052e-06    -0.313079 
         150            3  5.31602e-05  2.18444e-06    -0.313077 
         200            0           -0           -0     -0.29961 
         200     0.013333  3.40928e-05 -3.13154e-08     -0.29961 
         200     0.053333  4.24064e-05 -4.64922e-07     -0.29961 
         200         0.12  7.72072e-05 -2.05113e-06     -0.29961 
         200     0.213332  0.000130913 -5.28428e-06     -0.29961 
         200     0.333332  0.000181466 -9.92562e-06     -0.29961 
         200         0.48  0.000212388 -1.52902e-05     -0.29961 
         200     0.653331  0.000221371 -2.09116e-05     -0.29961 
         200     0.853332  0.000212066 -2.67271e-05     -0.29961 
         200         1.08  0.000189613 -3.26384e-05     -0.29961 
         200      1.33333  0.000162836 -3.81842e-05     -0.29961 
         200      1.61333  0.000129287 -4.27675e-05    -0.299611 
         200         1.92  9.41435e-05 -4.59063e-05    -0.299612 
         200      2.25333  6.33335e-05 -4.73706e-05    -0.299614 
         200      2.61333  3.26946e-05 -4.69568e-05    -0.299616 
         200            3  1.28303e-05 -4.49977e-05    -0.299619 
         250            0            0            0    -0.285664 
         250     0.013333  3.04744e-05 -2.06056e-08    -0.285664 
         250     0.053333  2.55595e-05 -3.02071e-07    -0.285664 
         250         0.12  3.34581e-05 -1.30393e-06    -0.285664 
         250     0.213332  4.89669e-05 -3.26411e-06    -0.285664 
         250     0.333332   6.0108e-05 -5.95774e-06    -0.285664 
         250         0.48  6.04943e-05 -9.01631e-06    -0.285664 
         250     0.653331  5.12974e-05  -1.2347e-05    -0.285664 
         250     0.853332  3.58558e-05 -1.60428e-05    -0.285664 
         250         1.08  2.03393e-05 -1.99131e-05    -0.285664 
         250      1.33333  1.33283e-05 -2.33927e-05    -0.285664 
         250      1.61333  1.14803e-05 -2.60603e-05    -0.285665 
         250         1.92  1.12624e-05 -2.77367e-05    -0.285666 
         250      2.25333  1.25927e-05 -2.83978e-05    -0.285666 
         250      2.61333  1.46019e-05 -2.78753e-05    -0.285668 
         250            3  1.80609e-05 -2.63834e-05    -0.285669 
         300            0           -0           -0     -0.27091 
         300     0.013333  4.60322e-05 -5.48524e-08     -0.27091 
         300     0.053333  9.07703e-05 -7.88414e-07     -0.27091 
         300         0.12  0.000179388 -3.31568e-06     -0.27091 
         300     0.213332  0.000283893 -8.05158e-06     -0.27091 
         300     0.333332  0.000361804 -1.41517e-05     -0.27091 
         300         0.48  0.000393845 -2.03506e-05    -0.270909 
         300     0.653331   0.00038932 -2.61228e-05    -0.270909 
         300     0.853332   0.00036103 -3.18442e-05    -0.270909 
         300         1.08  0.000314757 -3.79465e-05    -0.270909 
         300      1.33333  0.000261515 -4.40194e-05     -0.27091 
         300      1.61333   0.00020295 -4.91229e-05    -0.270912 
         300         1.92  0.000142194 -5.28657e-05    -0.270914 
         300      2.25333  8.39137e-05 -5.48288e-05    -0.270918 
         300      2.61333  2.58305e-05 -5.48445e-05    -0.270923 
         300            3 -1.30536e-05 -5.28229e-05    -0.270929 
         350            0  1.12186e-20  4.45176e-27    -0.255885 
         350     0.013333 -3.70444e-05  -2.5317e-08    -0.255885 
         350     0.053333 -0.000209936 -4.87618e-07    -0.255885 
         350         0.12   -0.0003796 -2.90247e-06    -0.255885 
         350     0.213332 -0.000455446 -9.90474e-06    -0.255885 
         350     0.333332 -0.000421104 -2.37557e-05    -0.255885 
         350         0.48 -0.000334188 -4.47715e-05    -0.255885 
         350     0.653331 -0.000260915 -7.15172e-05    -0.255886 
         350     0.853332 -0.000225382 -0.000101925    -0.255886 
         350         1.08 -0.000207867 -0.000133657    -0.255885 
         350      1.33333  -0.00017388 -0.000164328    -0.255885 
         350      1.61333 -0.000125239 -0.000191953    -0.255883 
         350         1.92 -7.17788e-05 -0.000214555    -0.255881 
         350      2.25333 -1.78851e-05 -0.000230846    -0.255877 
         350      2.61333  2.92733e-05 -0.000239237    -0.255872 
         350            3   6.7274e-05 -0.000238883    -0.255866 
         400            0           -0           -0    -0.240122 
         400     0.013333  7.25664e-05  1.06976e-07    -0.240122 
         400     0.053333    0.0001407  1.63996e-06    -0.240122 
         400         0.12  0.000149348  7.61924e-06    -0.240122 
         400     0.213332  5.19298e-05  2.09826e-05    -0.240122 
         400     0.333332 -0.000104695  4.25006e-05    -0.240122 
         400         0.48 -0.000239195  7.06428e-05    -0.240122 
         400     0.653331 -0.000305843  0.000103426    -0.240122 
         400     0.853332  -0.00030051  0.000139715    -0.240122 
         400         1.08 -0.000244239  0.000178446    -0.240122 
         400      1.33333 -0.000181133  0.000217233    -0.240122 
         400      1.61333 -0.000126249  0.000252774    -0.240122 
         400         1.92 -7.93968e-05  0.000282423    -0.240121 
         400      2.25333 -3.77478e-05  0.000304291    -0.240119 
         400      2.61333  1.05675e-05  0.000316392    -0.240116 
         400            3  4.31632e-05  0.000317492    -0.240113 
         450            0           -0           -0    -0.223572 
         450     0.013333  5.64922e-05 -6.78508e-08    -0.223572 
         450     0.053333    0.0001313 -9.56225e-07    -0.223572 
         450         0.12    0.0002617 -3.90782e-06    -0.223572 
         450     0.213332  0.000405281 -9.17792e-06    -0.223572 
         450     0.333332  0.000508795 -1.55902e-05    -0.223572 
         450         0.48   0.00055368 -2.17442e-05    -0.223572 
         450     0.653331  0.000556258 -2.73358e-05    -0.223571 
         450     0.853332  0.000531023 -3.32736e-05    -0.223571 
         450         1.08  0.000474947 -4.07413e-05    -0.223571 
         450      1.33333  0.000394021 -4.97594e-05    -0.223572 
         450      1.61333  0.000307515 -5.88729e-05    -0.223574 
         450         1.92  0.000227887 -6.69183e-05    -0.223577 
         450      2.25333  0.000152071 -7.31963e-05    -0.223581 
         450      2.61333  7.09575e-05 -7.73144e-05    -0.223588 
         450            3  1.88449e-06 -7.89261e-05    -0.223596 
         500            0           -0           -0    -0.206727 
         500     0.013333 -6.49934e-06 -2.71173e-08    -0.206727 
         500     0.053333 -0.000101726 -4.63186e-07    -0.206727 
         500         0.12 -0.000184852 -2.45231e-06    -0.206727 
         500     0.213332 -0.000207322 -7.64066e-06    -0.206727 
         500     0.333332 -0.000168536 -1.71514e-05    -0.206727 
         500         0.48 -0.000108545 -3.08326e-05    -0.206727 
         500     0.653331 -6.67982e-05 -4.76705e-05    -0.206727 
         500     0.853332 -5.58986e-05 -6.65456e-05    -0.206727 
         500         1.08 -6.19639e-05 -8.62159e-05    -0.206727 
         500      1.33333 -5.82493e-05 -0.000105131    -0.206727 
         500      1.61333 -3.97317e-05  -0.00012201    -0.206727 
         500         1.92 -1.69162e-05 -0.000136153    -0.206726 
         500      2.25333  6.63579e-06 -0.000147007    -0.206725 
         500      2.61333  2.95974e-05 -0.000153627    -0.206723 
         500            3  5.21181e-05 -0.000155286    -0.206721 
         550            0           -0           -0     -0.18895 
         550     0.013333   4.4245e-05  3.47266e-08     -0.18895 
         550     0.053333  6.10762e-05  5.25363e-07     -0.18895 
         550         0.12  6.28178e-05  2.39476e-06     -0.18895 
         550     0.213332  3.63399e-05  6.45066e-06     -0.18895 
         550     0.333332  -2.7679e-06  1.27784e-05     -0.18895 
         550         0.48 -3.13656e-05  2.08318e-05     -0.18895 
         550     0.653331 -3.94712e-05  3.00863e-05     -0.18895 
         550     0.853332 -2.78909e-05  4.04102e-05     -0.18895 
         550         1.08 -2.07341e-06  5.17187e-05     -0.18895 
         550      1.33333  2.38405e-05  6.33394e-05     -0.18895 
         550      1.61333  3.79629e-05  7.40875e-05     -0.18895 
         550         1.92  4.24204e-05  8.31745e-05     -0.18895 
         550      2.25333  4.45939e-05  9.02236e-05    -0.188949 
         550      2.61333  4.88472e-05   9.4766e-05    -0.188948 
         550            3  5.17299e-05  9.63607e-05    -0.188947 
         600            0           -0           -0    -0.170449 
         600     0.013333  4.60603e-05 -2.80381e-08    -0.170449 
         600     0.053333  8.49016e-05 -3.96015e-07    -0.170449 
         600         0.12  0.000153049 -1.61952e-06    -0.170449 
         600     0.213332  0.000227591 -3.78373e-06    -0.170449 
         600     0.333332  0.000281397 -6.31757e-06    -0.170449 
         600         0.48  0.000304338 -8.51651e-06    -0.170449 
         600     0.653331  0.000304783 -1.01881e-05    -0.170449 
         600     0.853332  0.000292423 -1.17375e-05    -0.170449 
         600         1.08    0.0002678 -1.37367e-05    -0.170449 
         600      1.33333  0.000231622 -1.63377e-05    -0.170449 
         600      1.61333  0.000191469 -1.90984e-05     -0.17045 
         600         1.92  0.000153425 -2.15501e-05    -0.170451 
         600      2.25333  0.000115722 -2.34973e-05    -0.170453 
         600      2.61333  7.53642e-05 -2.48045e-05    -0.170455 
         600            3  3.89325e-05 -2.54017e-05    -0.170459 
         650            0            0            0     -0.15157 
         650     0.013333 -2.27309e-05  4.60372e-10     -0.15157 
         650     0.053333 -0.000166244 -8.02842e-08     -0.15157 
         650         0.12 -0.000318935 -9.52946e-07     -0.15157 
         650     0.213332  -0.00040121  -4.4478e-06     -0.15157 
         650     0.333332  -0.00038102 -1.26807e-05     -0.15157 
         650         0.48 -0.000297134 -2.64071e-05     -0.15157 
         650     0.653331 -0.000213197 -4.44732e-05     -0.15157 
         650     0.853332 -0.000159324 -6.47407e-05    -0.151571 
         650         1.08 -0.000123114  -8.5141e-05    -0.151571 
         650      1.33333  -8.2912e-05 -0.000104364    -0.151571 
         650      1.61333  -4.1718e-05 -0.000122088     -0.15157 
         650         1.92 -8.10925e-06 -0.000138101    -0.151568 
         650      2.25333  2.10612e-05 -0.000151769    -0.151566 
         650      2.61333  4.78683e-05 -0.000161986    -0.151562 
         650            3  7.11125e-05  -0.00016782    -0.151557 
         700            0           -0           -0    -0.131346 
         700     0.013333  0.000192958 -4.48038e-08    -0.131346 
         700     0.053333  0.000616467 -4.71348e-07    -0.131346 
         700         0.12   0.00114755 -7.63151e-07    -0.131346 
         700     0.213332    0.0015649  2.40292e-06    -0.131346 
         700     0.333332   0.00172949  1.41578e-05    -0.131345 
         700         0.48   0.00167426  3.77868e-05    -0.131345 
         700     0.653331   0.00153519   7.2558e-05    -0.131344 
         700     0.853332   0.00141311  0.000114765    -0.131344 
         700         1.08   0.00130946   0.00015966    -0.131343 
         700      1.33333   0.00117107  0.000203106    -0.131344 
         700      1.61333  0.000985933  0.000243085    -0.131347 
         700         1.92  0.000786015   0.00027913    -0.131352 
         700      2.25333  0.000581143  0.000310494    -0.131361 
         700      2.61333  0.000365035  0.000335054    -0.131374 
         700            3  0.000149932  0.000350676    -0.131391 
         750            0           -0           -0    -0.112135 
         750     0.013333 -8.20709e-05  1.72173e-07    -0.112135 
         750     0.053333 -0.000436077  2.43195e-06    -0.112135 
         750         0.12 -0.000983977  9.96609e-06    -0.112135 
         750     0.213332  -0.00157732  2.33731e-05    -0.112135 
         750     0.333332  -0.00202297  3.91178e-05    -0.112135 
         750         0.48  -0.00223229  5.23619e-05    -0.112136 
         750     0.653331  -0.00225831  6.08842e-05    -0.112137 
         750     0.853332  -0.00218922  6.62574e-05    -0.112138 
         750         1.08  -0.00204888  7.22843e-05    -0.112138 
         750      1.33333   -0.0018181  8.20032e-05    -0.112137 
         750      1.61333  -0.00152065  9.49299e-05    -0.112135 
         750         1.92  -0.00121956  0.000108127    -0.112129 
         750      2.25333 -0.000921938  0.000119399    -0.112119 
         750      2.61333 -0.000600188  0.000128207    -0.112103 
         750            3 -0.000276495  0.000134104    -0.112082 
         800            0            0            0   -0.0904639 
         800     0.013333 -1.32689e-05 -1.33015e-07    -0.090464 
         800     0.053333 -9.60255e-05 -2.01724e-06    -0.090464 
         800         0.12 -9.21657e-05 -9.26519e-06   -0.0904641 
         800     0.213332  5.24416e-05 -2.53283e-05   -0.0904641 
         800     0.333332  0.000281646 -5.11921e-05   -0.0904641 
         800         0.48  0.000491369 -8.51809e-05   -0.0904641 
         800     0.653331  0.000616752 -0.000124958   -0.0904639 
         800     0.853332  0.000646643 -0.000169408   -0.0904637 
         800         1.08   0.00058933 -0.000218511   -0.0904635 
         800      1.33333  0.000472495 -0.000271373   -0.0904636 
         800      1.61333  0.000351555 -0.000324645   -0.0904642 
         800         1.92  0.000268664 -0.000374183   -0.0904657 
         800      2.25333  0.000207203 -0.000417289   -0.0904683 
         800      2.61333  0.000137592 -0.000451872   -0.0904724 
         800            3  7.04098e-05 -0.000475459   -0.0904781 
         850            0            0            0   -0.0688453 
         850     0.013333  8.86594e-05 -2.26188e-08   -0.0688453 
         850     0.053333  0.000239299 -2.88868e-07   -0.0688453 
         850         0.12  0.000446112 -9.60913e-07   -0.0688453 
         850     0.213332  0.000637557 -1.43661e-06   -0.0688453 
         850     0.333332  0.000756018 -3.39354e-07   -0.0688452 
         850         0.48  0.000790916  3.62369e-06   -0.0688451 
         850     0.653331  0.000772636   1.0853e-05   -0.0688449 
         850     0.853332  0.000738062   2.0834e-05   -0.0688448 
         850         1.08  0.000703491  3.25741e-05   -0.0688447 
         850      1.33333   0.00066091   4.4858e-05    -0.068845 
         850      1.61333  0.000594396  5.64076e-05   -0.0688458 
         850         1.92  0.000504763   6.6461e-05   -0.0688475 
         850      2.25333  0.000405209  7.49954e-05   -0.0688504 
         850      2.61333  0.000299216  8.18434e-05   -0.0688547 
         850            3   0.00018804  8.65013e-05   -0.0688608 
         900            0            0            0   -0.0468217 
         900     0.013333  7.81895e-05  8.33204e-08   -0.0468217 
         900     0.053333  0.000164625  1.30829e-06   -0.0468217 
         900         0.12  0.000196605  6.30844e-06   -0.0468216 
         900     0.213332  0.000102688  1.81709e-05   -0.0468216 
         900     0.333332 -9.02508e-05  3.84875e-05   -0.0468215 
         900         0.48  -0.00028726  6.63179e-05   -0.0468215 
         900     0.653331  -0.00041009  9.92365e-05   -0.0468215 
         900     0.853332 -0.000439959  0.000135128   -0.0468215 
         900         1.08  -0.00040189  0.000172629   -0.0468216 
         900      1.33333 -0.000339529  0.000210298   -0.0468218 
         900      1.61333 -0.000285894  0.000246377   -0.0468218 
         900         1.92 -0.000243911  0.000279533   -0.0468217 
         900      2.25333 -0.000201108  0.000308699   -0.0468213 
         900      2.61333 -0.000149169  0.000332418   -0.0468206 
         900            3 -9.39911e-05  0.000348934   -0.0468195 
         950            0            0            0   -0.0240612 
         950     0.013333 -7.76075e-05  5.90614e-08   -0.0240612 
         950     0.053333 -0.000388474  7.73083e-07   -0.0240612 
         950         0.12 -0.000809855  2.72636e-06   -0.0240612 
         950     0.213332   -0.0012062  4.79421e-06   -0.0240613 
         950     0.333332  -0.00145749  4.07105e-06   -0.0240615 
         950         0.48  -0.00153984  -2.1399e-06   -0.0240619 
         950     0.653331  -0.00151943 -1.44991e-05   -0.0240624 
         950     0.853332  -0.00147219 -3.15412e-05    -0.024063 
         950         1.08  -0.00141777 -5.04589e-05   -0.0240634 
         950      1.33333  -0.00132049 -6.80652e-05   -0.0240633 
         950      1.61333  -0.00115772 -8.25185e-05   -0.0240622 
         950         1.92 -0.000964412 -9.43865e-05   -0.0240595 
         950      2.25333 -0.000768324  -0.00010476   -0.0240545 
         950      2.61333 -0.000561666 -0.000113466   -0.0240466 
         950            3 -0.000343115 -0.000119617   -0.0240354 
        1000            0            0            0            0 
        1000     0.013333  3.79311e-05 -2.18964e-06           -0 
        1000     0.053333  4.03845e-05 -9.56354e-06           -0 
        1000         0.12  1.65735e-05 -2.59374e-05 -1.68333e-18 
        1000     0.213332 -7.57175e-05 -5.38335e-05 -2.00769e-17 
        1000     0.333332 -5.21818e-05 -0.000117926 -1.10732e-17 
        1000         0.48   -0.0002758 -0.000163228           -0 
        1000     0.653331 -0.000321099 -0.000119357            0 
        1000     0.853332 -0.000153704  -0.00018321            0 
        1000         1.08 -0.000309938 -0.000262746            0 
        1000      1.33333 -0.000938982 -0.000238699  3.97728e-18 
        1000      1.61333  -0.00044509 -4.87241e-05           -0 
        1000         1.92 -0.000364024 -0.000134248 -7.04086e-18 
        1000      2.25333 -0.000446367 -0.000175224  4.79792e-18 
        1000      2.61333 -0.000622576  -2.0916e-05           -0 
        1000            3 -0.000145098 -2.56733e-05 -1.53438e-17 
