Variables = x, y, u, v, p

Zone, I=416, F=POINT
         -50            0            0            0      17.4901 
         -50     0.013333  -7.4185e-05  -1.2338e-08      17.4901 
         -50     0.053333 -5.99548e-05 -3.35825e-07      17.4901 
         -50         0.12 -4.70284e-05 -1.44481e-06      17.4901 
         -50     0.213332 -2.43351e-05 -3.63249e-06      17.4901 
         -50     0.333332 -3.87128e-06 -6.64527e-06      17.4901 
         -50         0.48  7.56714e-06 -1.00312e-05      17.4901 
         -50     0.653331  8.58023e-06 -1.35212e-05        17.49 
         -50     0.853332  1.77903e-06 -1.68072e-05      17.4899 
         -50         1.08 -8.47306e-06 -1.93966e-05      17.4898 
         -50      1.33333 -2.18217e-05 -2.10817e-05      17.4896 
         -50      1.61333 -3.79533e-05 -2.15469e-05      17.4894 
         -50         1.92 -5.32768e-05 -2.06189e-05      17.4891 
         -50      2.25333 -5.45519e-05 -1.73603e-05      17.4887 
         -50      2.61333  -4.4475e-05 -1.16952e-05      17.4881 
         -50            3 -3.85886e-05 -5.10147e-06      17.4875 
         -25            0 -6.59083e-20  3.24811e-24      16.7911 
         -25     0.013333 -4.91035e-05  6.35789e-09      16.7911 
         -25     0.053333   -3.168e-05  4.92869e-08      16.7911 
         -25         0.12 -2.78794e-05  3.06988e-07      16.7911 
         -25     0.213332 -3.31238e-05  9.93883e-07      16.7911 
         -25     0.333332 -4.57407e-05  2.18974e-06      16.7911 
         -25         0.48 -5.98611e-05  3.79042e-06      16.7911 
         -25     0.653331 -7.17361e-05  5.61275e-06      16.7911 
         -25     0.853332  -8.0339e-05  7.36578e-06       16.791 
         -25         1.08 -8.49088e-05  8.75325e-06       16.791 
         -25      1.33333 -8.34588e-05  9.60471e-06      16.7909 
         -25      1.61333 -7.93765e-05  9.84586e-06      16.7908 
         -25         1.92 -7.52411e-05  9.55859e-06      16.7907 
         -25      2.25333 -6.61765e-05  8.99979e-06      16.7905 
         -25      2.61333 -4.71587e-05  1.22535e-05      16.7903 
         -25            3 -2.42955e-05  1.99677e-05      16.7901 
           0            0 -5.40227e-20  1.57265e-24      16.2422 
           0     0.013333 -3.78162e-05  5.41009e-09      16.2422 
           0     0.053333 -1.38946e-05  6.20145e-08      16.2422 
           0         0.12  1.96884e-06  3.49587e-07      16.2422 
           0     0.213332  9.85112e-06  1.14336e-06      16.2422 
           0     0.333332  8.68506e-06  2.70326e-06      16.2422 
           0         0.48  4.75784e-06  5.16248e-06      16.2422 
           0     0.653331  3.67489e-06  8.46616e-06      16.2422 
           0     0.853332  3.82121e-06  1.22757e-05      16.2422 
           0         1.08 -2.02444e-06  1.60245e-05      16.2422 
           0      1.33333 -1.60837e-05  1.92691e-05      16.2421 
           0      1.61333 -3.12893e-05  2.17935e-05      16.2421 
           0         1.92 -4.03803e-05   2.3181e-05       16.242 
           0      2.25333   -4.434e-05   2.3677e-05       16.242 
           0      2.61333 -4.91647e-05  2.23526e-05      16.2419 
           0            3 -5.00092e-05  2.23009e-05      16.2417 
          20            0 -5.22286e-20  9.44979e-25      15.8559 
          20     0.013333 -4.10674e-05 -1.64073e-08      15.8559 
          20     0.053333 -3.03017e-05 -2.59183e-07      15.8559 
          20         0.12 -1.72786e-05 -1.12784e-06      15.8559 
          20     0.213332   2.6122e-06 -2.86161e-06      15.8559 
          20     0.333332  1.92921e-05 -5.31072e-06      15.8559 
          20         0.48  2.66694e-05 -8.16576e-06      15.8559 
          20     0.653331  2.42791e-05  -1.1257e-05      15.8559 
          20     0.853332    1.498e-05 -1.44777e-05      15.8559 
          20         1.08  3.35345e-06 -1.76008e-05      15.8558 
          20      1.33333 -7.53953e-06 -2.03457e-05      15.8558 
          20      1.61333 -2.38727e-05 -2.23126e-05      15.8558 
          20         1.92 -4.33962e-05 -2.34902e-05      15.8558 
          20      2.25333 -5.84409e-05 -2.31424e-05      15.8557 
          20      2.61333 -6.37342e-05 -2.12732e-05      15.8557 
          20            3 -5.72426e-05 -1.80063e-05      15.8556 
          40            0 -4.99135e-20   5.8536e-25       15.496 
          40     0.013333  -4.0327e-05 -1.17688e-08       15.496 
          40     0.053333 -3.53226e-05 -1.78647e-07       15.496 
          40         0.12 -3.23156e-05 -7.48452e-07       15.496 
          40     0.213332 -2.41242e-05  -1.8484e-06       15.496 
          40     0.333332 -1.47532e-05 -3.43864e-06       15.496 
          40         0.48 -7.43533e-06 -5.49924e-06       15.496 
          40     0.653331 -5.83924e-06 -8.13463e-06       15.496 
          40     0.853332 -1.15028e-05 -1.13663e-05       15.496 
          40         1.08 -1.84493e-05 -1.47897e-05      15.4959 
          40      1.33333 -2.04969e-05   -1.785e-05      15.4959 
          40      1.61333  -2.3242e-05  -2.0187e-05      15.4959 
          40         1.92 -2.68141e-05 -2.16326e-05      15.4959 
          40      2.25333 -3.18467e-05 -2.21714e-05      15.4959 
          40      2.61333 -4.49433e-05 -2.25784e-05      15.4958 
          40            3  -5.8432e-05 -2.25447e-05      15.4958 
          60            0            0            0      15.1524 
          60     0.013333 -3.62685e-05  1.69137e-08      15.1524 
          60     0.053333 -3.19285e-05  2.51009e-07      15.1524 
          60         0.12 -4.56573e-05  1.14095e-06      15.1524 
          60     0.213332 -6.89884e-05  2.99809e-06      15.1524 
          60     0.333332  -9.0706e-05  5.67867e-06      15.1524 
          60         0.48 -0.000101717  8.76062e-06      15.1524 
          60     0.653331 -0.000101619  1.19298e-05      15.1524 
          60     0.853332  -9.4188e-05  1.49728e-05      15.1524 
          60         1.08  -8.3137e-05  1.76417e-05      15.1524 
          60      1.33333 -6.94923e-05  1.97911e-05      15.1523 
          60      1.61333 -5.06394e-05  2.12015e-05      15.1523 
          60         1.92 -3.34184e-05  2.16632e-05      15.1523 
          60      2.25333 -2.18613e-05  2.09941e-05      15.1523 
          60      2.61333  -1.3245e-05  1.95277e-05      15.1523 
          60            3 -1.24448e-05  1.61911e-05      15.1523 
          80            0            0            0      14.8191 
          80     0.013333 -2.98214e-05  2.09304e-08      14.8191 
          80     0.053333 -1.16419e-05  3.12128e-07      14.8191 
          80         0.12 -8.67888e-06  1.40902e-06      14.8191 
          80     0.213332 -1.76573e-05  3.71947e-06      14.8191 
          80     0.333332 -2.97696e-05  7.20963e-06      14.8191 
          80         0.48 -3.52609e-05  1.16128e-05      14.8191 
          80     0.653331 -3.07768e-05  1.67627e-05      14.8191 
          80     0.853332 -1.92198e-05  2.24245e-05      14.8191 
          80         1.08 -1.01127e-05  2.79423e-05      14.8191 
          80      1.33333 -8.98417e-06  3.26366e-05      14.8191 
          80      1.61333 -6.48574e-06  3.61271e-05      14.8191 
          80         1.92 -3.26311e-06  3.79615e-05      14.8191 
          80      2.25333 -2.84924e-06  3.79874e-05      14.8191 
          80      2.61333 -4.76762e-06  3.64116e-05       14.819 
          80            3 -9.19628e-06  3.32882e-05       14.819 
         100            0 -4.52357e-20  1.43673e-25      14.4923 
         100     0.013333 -3.52948e-05  1.12081e-08      14.4923 
         100     0.053333 -3.01484e-05  1.58133e-07      14.4923 
         100         0.12 -3.61898e-05  6.59238e-07      14.4923 
         100     0.213332 -4.45289e-05  1.58055e-06      14.4923 
         100     0.333332 -5.04015e-05  2.77397e-06      14.4923 
         100         0.48 -5.15905e-05  4.10621e-06      14.4923 
         100     0.653331 -4.83694e-05  5.62757e-06      14.4923 
         100     0.853332 -4.10182e-05  7.41189e-06      14.4923 
         100         1.08 -3.33032e-05  9.24091e-06      14.4923 
         100      1.33333 -2.94254e-05  1.07533e-05      14.4923 
         100      1.61333 -2.45699e-05   1.1815e-05      14.4923 
         100         1.92 -1.65459e-05  1.22992e-05      14.4923 
         100      2.25333 -6.58291e-06  1.22824e-05      14.4923 
         100      2.61333 -1.82491e-07  1.14178e-05      14.4923 
         100            3 -9.33114e-07    1.013e-05      14.4923 
         150            0           -0           -0      13.6902 
         150     0.013333 -3.96931e-05 -3.62743e-08      13.6902 
         150     0.053333 -3.55575e-05 -5.47641e-07      13.6902 
         150         0.12 -1.48344e-05 -2.46839e-06      13.6902 
         150     0.213332  2.96773e-05 -6.51049e-06      13.6902 
         150     0.333332  7.61269e-05 -1.25313e-05      13.6902 
         150         0.48  0.000104836 -1.98002e-05      13.6902 
         150     0.653331  0.000111032 -2.77465e-05      13.6902 
         150     0.853332  9.91843e-05 -3.61049e-05      13.6902 
         150         1.08    7.866e-05 -4.44185e-05      13.6902 
         150      1.33333  6.02986e-05 -5.19318e-05      13.6902 
         150      1.61333  3.65102e-05 -5.79089e-05      13.6902 
         150         1.92  1.02514e-05 -6.16919e-05      13.6902 
         150      2.25333 -1.37938e-05 -6.29856e-05      13.6902 
         150      2.61333 -3.71905e-05  -6.1616e-05      13.6902 
         150            3 -4.70659e-05 -5.79596e-05      13.6902 
         200            0           -0           -0      12.8965 
         200     0.013333 -2.72451e-05 -2.58376e-08      12.8965 
         200     0.053333  3.36373e-06 -3.57066e-07      12.8965 
         200         0.12  4.23926e-05 -1.41146e-06      12.8965 
         200     0.213332  8.13754e-05 -3.16995e-06      12.8965 
         200     0.333332  0.000104684 -5.12717e-06      12.8965 
         200         0.48  0.000111076 -6.86074e-06      12.8965 
         200     0.653331   0.00010689 -8.45571e-06      12.8965 
         200     0.853332  9.35892e-05 -1.03806e-05      12.8965 
         200         1.08  7.08973e-05 -1.29272e-05      12.8965 
         200      1.33333  4.74397e-05 -1.56839e-05      12.8965 
         200      1.61333  2.42787e-05 -1.79767e-05      12.8965 
         200         1.92  1.52869e-06 -1.96674e-05      12.8965 
         200      2.25333 -1.96923e-05 -2.06451e-05      12.8965 
         200      2.61333  -4.1475e-05 -2.07665e-05      12.8965 
         200            3 -5.40187e-05  -2.0299e-05      12.8965 
         250            0            0            0      12.1041 
         250     0.013333 -2.23097e-05 -6.95346e-09      12.1041 
         250     0.053333   1.5809e-05 -7.22473e-08      12.1041 
         250         0.12  5.30937e-05 -1.27325e-07      12.1041 
         250     0.213332  7.87829e-05  2.26052e-07      12.1041 
         250     0.333332  8.70193e-05  1.44482e-06      12.1041 
         250         0.48  8.64138e-05  3.59276e-06      12.1041 
         250     0.653331   8.5455e-05  6.28454e-06      12.1041 
         250     0.853332  8.24923e-05  8.91335e-06      12.1041 
         250         1.08  7.08577e-05  1.09407e-05      12.1041 
         250      1.33333  5.16333e-05  1.23036e-05      12.1041 
         250      1.61333  3.07242e-05  1.32574e-05      12.1041 
         250         1.92  1.09719e-05   1.3708e-05      12.1041 
         250      2.25333 -6.21021e-06  1.37228e-05      12.1041 
         250      2.61333  -2.3348e-05  1.31252e-05      12.1041 
         250            3 -3.83883e-05   1.1962e-05      12.1041 
         300            0           -0           -0      11.3105 
         300     0.013333  1.16306e-05  2.66898e-08      11.3105 
         300     0.053333  0.000125776  4.82588e-07      11.3105 
         300         0.12  0.000223602  2.69533e-06      11.3105 
         300     0.213332  0.000250938  8.71317e-06      11.3105 
         300     0.333332  0.000207628  1.99795e-05      11.3105 
         300         0.48    0.0001426  3.63082e-05      11.3105 
         300     0.653331  9.96749e-05  5.63714e-05      11.3105 
         300     0.853332  8.71583e-05  7.85312e-05      11.3105 
         300         1.08  8.27099e-05  0.000100902      11.3105 
         300      1.33333  6.18177e-05  0.000121767      11.3105 
         300      1.61333  3.48721e-05  0.000139981      11.3105 
         300         1.92  8.40917e-06  0.000154222      11.3105 
         300      2.25333 -1.73971e-05  0.000163553      11.3105 
         300      2.61333 -3.92026e-05   0.00016699      11.3105 
         300            3 -5.88969e-05  0.000164103      11.3105 
         350            0  -3.9038e-20 -1.30567e-26      10.5157 
         350     0.013333 -2.09954e-05 -3.81384e-08      10.5157 
         350     0.053333  2.91997e-05 -5.35012e-07      10.5157 
         350         0.12  0.000103112 -2.18389e-06      10.5157 
         350     0.213332  0.000187187 -5.17105e-06      10.5157 
         350     0.333332  0.000254616 -8.97529e-06      10.5157 
         350         0.48  0.000294721 -1.29322e-05      10.5157 
         350     0.653331  0.000312358 -1.68277e-05      10.5157 
         350     0.853332  0.000310605 -2.10753e-05      10.5157 
         350         1.08  0.000283017 -2.64178e-05      10.5157 
         350      1.33333  0.000231873  -3.2951e-05      10.5157 
         350      1.61333  0.000170055 -3.96777e-05      10.5157 
         350         1.92  0.000109588 -4.56923e-05      10.5157 
         350      2.25333  5.25879e-05 -5.04244e-05      10.5157 
         350      2.61333 -6.27801e-06 -5.34617e-05      10.5157 
         350            3 -5.01986e-05 -5.46163e-05      10.5157 
         400            0           -0           -0      9.71937 
         400     0.013333 -1.22189e-05    4.613e-08      9.71937 
         400     0.053333  3.52987e-05  7.30683e-07      9.71937 
         400         0.12  4.36418e-05  3.54088e-06      9.71937 
         400     0.213332 -1.04955e-05  1.01679e-05      9.71937 
         400     0.333332 -0.000105002  2.13049e-05      9.71937 
         400         0.48 -0.000190773  3.61853e-05      9.71937 
         400     0.653331 -0.000237255  5.34133e-05      9.71937 
         400     0.853332 -0.000243881  7.18795e-05      9.71937 
         400         1.08  -0.00022657   9.0713e-05      9.71937 
         400      1.33333 -0.000204401  0.000108936      9.71937 
         400      1.61333 -0.000177276  0.000125501      9.71937 
         400         1.92 -0.000147157  0.000139328      9.71937 
         400      2.25333 -0.000116525  0.000149475      9.71937 
         400      2.61333 -7.94739e-05  0.000154934      9.71937 
         400            3 -4.70899e-05  0.000155161      9.71937 
         450            0           -0           -0      8.92155 
         450     0.013333 -3.73532e-05 -9.27176e-08      8.92155 
         450     0.053333  -1.3166e-05 -1.37368e-06      8.92155 
         450         0.12  7.09514e-05 -6.08241e-06      8.92155 
         450     0.213332  0.000218902 -1.58626e-05      8.92155 
         450     0.333332  0.000373653 -3.04281e-05      8.92155 
         450         0.48  0.000480682   -4.814e-05      8.92155 
         450     0.653331  0.000524677 -6.77118e-05      8.92155 
         450     0.853332  0.000512419 -8.90282e-05      8.92155 
         450         1.08  0.000452711 -0.000112302      8.92155 
         450      1.33333  0.000369371 -0.000136537      8.92155 
         450      1.61333  0.000282426 -0.000159433      8.92155 
         450         1.92  0.000200683 -0.000179112      8.92155 
         450      2.25333  0.000121005 -0.000194261      8.92155 
         450      2.61333  3.19319e-05 -0.000203639      8.92154 
         450            3 -4.40335e-05 -0.000206373      8.92154 
         500            0           -0           -0      8.12098 
         500     0.013333 -6.93925e-05  4.50768e-08      8.12098 
         500     0.053333  -0.00016542  6.14314e-07      8.12098 
         500         0.12 -0.000310109  2.35258e-06      8.12098 
         500     0.213332 -0.000443332  4.93829e-06      8.12098 
         500     0.333332 -0.000515368  6.93223e-06      8.12098 
         500         0.48 -0.000519948  6.97584e-06      8.12098 
         500     0.653331 -0.000487425  4.89416e-06      8.12098 
         500     0.853332 -0.000443819  1.62416e-06      8.12098 
         500         1.08 -0.000391825 -1.58757e-06      8.12098 
         500      1.33333 -0.000328024 -4.10074e-06      8.12098 
         500      1.61333 -0.000258984 -6.17685e-06      8.12098 
         500         1.92 -0.000192441 -8.09797e-06      8.12098 
         500      2.25333 -0.000126924  -9.9408e-06      8.12099 
         500      2.61333 -5.88873e-05 -1.15292e-05      8.12099 
         500            3 -2.96741e-07 -1.26983e-05        8.121 
         550            0           -0           -0      7.31881 
         550     0.013333  3.62373e-05 -5.56349e-08      7.31881 
         550     0.053333  0.000240516 -7.41605e-07      7.31881 
         550         0.12   0.00051429 -2.72782e-06      7.31881 
         550     0.213332  0.000770745 -5.30662e-06      7.31881 
         550     0.333332  0.000928655 -6.29134e-06      7.31881 
         550         0.48  0.000976352   -3.628e-06      7.31881 
         550     0.653331  0.000959195  3.15944e-06      7.31881 
         550     0.853332  0.000919931  1.29084e-05      7.31881 
         550         1.08  0.000861025   2.3555e-05      7.31881 
         550      1.33333  0.000764035  3.33029e-05      7.31881 
         550      1.61333  0.000632269  4.16624e-05      7.31881 
         550         1.92  0.000487962  4.87647e-05      7.31881 
         550      2.25333  0.000337735   5.4785e-05       7.3188 
         550      2.61333  0.000177346  5.91958e-05      7.31879 
         550            3  2.69969e-05  6.15994e-05      7.31878 
         600            0           -0           -0      6.51367 
         600     0.013333 -4.35259e-05  7.07771e-08      6.51367 
         600     0.053333 -8.35314e-05  1.04291e-06      6.51367 
         600         0.12 -0.000191685  4.58397e-06      6.51367 
         600     0.213332 -0.000349387  1.18694e-05      6.51367 
         600     0.333332  -0.00050493  2.25932e-05      6.51367 
         600         0.48 -0.000610981  3.53665e-05      6.51367 
         600     0.653331 -0.000657016  4.89888e-05      6.51367 
         600     0.853332 -0.000655116  6.32038e-05      6.51367 
         600         1.08  -0.00061487  7.83836e-05      6.51367 
         600      1.33333 -0.000543974  9.46107e-05      6.51367 
         600      1.61333 -0.000454714  0.000111044      6.51367 
         600         1.92 -0.000364744  0.000126333      6.51367 
         600      2.25333 -0.000275733  0.000139255      6.51368 
         600      2.61333 -0.000177517  0.000148889      6.51368 
         600            3 -8.36482e-05  0.000154457      6.51369 
         650            0            0            0      5.70712 
         650     0.013333 -4.15901e-05 -5.41297e-08      5.70712 
         650     0.053333  -3.9907e-05 -8.07687e-07      5.70712 
         650         0.12 -8.11747e-06 -3.61459e-06      5.70712 
         650     0.213332  6.57759e-05 -9.54311e-06      5.70712 
         650     0.333332  0.000150254  -1.8528e-05      5.70712 
         650         0.48  0.000210087 -2.96269e-05      5.70712 
         650     0.653331  0.000232835 -4.20583e-05      5.70712 
         650     0.853332  0.000221829 -5.57874e-05      5.70712 
         650         1.08  0.000182355 -7.10314e-05      5.70712 
         650      1.33333  0.000130144 -8.71986e-05      5.70712 
         650      1.61333  8.63046e-05 -0.000102733      5.70712 
         650         1.92  5.53416e-05 -0.000116412      5.70712 
         650      2.25333  2.76157e-05 -0.000127627      5.70712 
         650      2.61333  -4.1985e-06 -0.000135721      5.70712 
         650            3 -3.33268e-05 -0.000139983      5.70712 
         700            0           -0           -0      4.89824 
         700     0.013333 -3.89914e-05  5.03671e-09      4.89824 
         700     0.053333 -4.62024e-05  5.45837e-08      4.89824 
         700         0.12 -5.99739e-05  1.08063e-07      4.89824 
         700     0.213332 -6.32806e-05  -1.2212e-07      4.89824 
         700     0.333332 -5.35522e-05 -9.83052e-07      4.89824 
         700         0.48 -4.00529e-05 -2.49176e-06      4.89824 
         700     0.653331 -3.43698e-05 -4.25533e-06      4.89824 
         700     0.853332 -3.72922e-05 -5.68054e-06      4.89824 
         700         1.08 -3.72996e-05 -6.11785e-06      4.89824 
         700      1.33333 -2.44662e-05 -5.19539e-06      4.89824 
         700      1.61333 -8.00842e-06 -3.35799e-06      4.89824 
         700         1.92 -1.48425e-06 -1.41416e-06      4.89824 
         700      2.25333 -1.71935e-06  3.66683e-07      4.89824 
         700      2.61333 -2.72199e-06  2.03735e-06      4.89825 
         700            3 -5.35723e-06  3.55866e-06      4.89825 
         750            0           -0           -0      4.08747 
         750     0.013333 -5.06777e-06  4.07288e-08      4.08747 
         750     0.053333  6.16698e-05   6.5066e-07      4.08747 
         750         0.12   9.7688e-05  3.19552e-06      4.08747 
         750     0.213332  6.97987e-05  9.33371e-06      4.08747 
         750     0.333332 -9.73628e-06  1.99241e-05      4.08747 
         750         0.48 -9.21082e-05  3.44435e-05      4.08747 
         750     0.653331 -0.000138264  5.16227e-05      4.08747 
         750     0.853332 -0.000139924  7.03972e-05      4.08747 
         750         1.08  -0.00011252  8.99338e-05      4.08747 
         750      1.33333 -8.45977e-05  0.000109071      4.08747 
         750      1.61333 -7.33676e-05  0.000126565      4.08747 
         750         1.92  -7.0898e-05  0.000141864      4.08748 
         750      2.25333  -6.6943e-05  0.000154678      4.08748 
         750      2.61333 -5.92726e-05  0.000164233      4.08748 
         750            3 -5.13527e-05  0.000169684      4.08748 
         800            0            0            0      3.27461 
         800     0.013333 -0.000112227  -2.0726e-08      3.27461 
         800     0.053333 -0.000301953 -4.02819e-07      3.27461 
         800         0.12 -0.000512556 -2.44958e-06      3.27461 
         800     0.213332 -0.000629129 -8.61735e-06      3.27461 
         800     0.333332  -0.00061154 -2.13849e-05      3.27461 
         800         0.48 -0.000507743 -4.15894e-05      3.27461 
         800     0.653331 -0.000398476 -6.80705e-05      3.27461 
         800     0.853332  -0.00033138 -9.87478e-05      3.27461 
         800         1.08  -0.00030382 -0.000131514      3.27461 
         800      1.33333  -0.00028262 -0.000164319      3.27461 
         800      1.61333 -0.000243973  -0.00019536      3.27461 
         800         1.92 -0.000192977 -0.000223576      3.27461 
         800      2.25333 -0.000141398 -0.000248235      3.27461 
         800      2.61333 -9.21813e-05 -0.000268022      3.27462 
         800            3 -4.35854e-05 -0.000281342      3.27462 
         850            0            0            0      2.46032 
         850     0.013333  3.62171e-05  -1.3678e-07      2.46032 
         850     0.053333  0.000269722 -1.98435e-06      2.46032 
         850         0.12  0.000658952 -8.49882e-06      2.46032 
         850     0.213332   0.00112624  -2.1171e-05      2.46032 
         850     0.333332   0.00152119 -3.81816e-05      2.46032 
         850         0.48   0.00174012 -5.57134e-05      2.46032 
         850     0.653331   0.00178902 -7.10173e-05      2.46032 
         850     0.853332   0.00173218 -8.40555e-05      2.46032 
         850         1.08   0.00161201 -9.66434e-05      2.46032 
         850      1.33333   0.00143982 -0.000110301      2.46032 
         850      1.61333   0.00123348 -0.000124661      2.46032 
         850         1.92   0.00102142 -0.000138153      2.46032 
         850      2.25333  0.000804886 -0.000149439      2.46031 
         850      2.61333  0.000567503 -0.000157897       2.4603 
         850            3  0.000320073 -0.000162908      2.46029 
         900            0            0            0      1.64265 
         900     0.013333  0.000131596  7.59821e-08      1.64265 
         900     0.053333  0.000543717  1.30249e-06      1.64265 
         900         0.12   0.00096867  7.00294e-06      1.64265 
         900     0.213332   0.00119181  2.24706e-05      1.64265 
         900     0.333332   0.00114056  5.24541e-05      1.64265 
         900         0.48  0.000918682  9.82622e-05      1.64265 
         900     0.653331  0.000689563  0.000157572      1.64265 
         900     0.853332  0.000554283  0.000226678      1.64265 
         900         1.08  0.000519552  0.000302017      1.64265 
         900      1.33333   0.00052243  0.000379705      1.64265 
         900      1.61333  0.000492042    0.0004553      1.64265 
         900         1.92  0.000412489  0.000525311      1.64265 
         900      2.25333  0.000313083  0.000587584      1.64265 
         900      2.61333  0.000213531  0.000639354      1.64264 
         900            3   0.00010833  0.000677005      1.64264 
         950            0            0            0     0.821661 
         950     0.013333 -5.96351e-05  2.17933e-07     0.821661 
         950     0.053333  -0.00019393  3.25186e-06     0.821661 
         950         0.12 -0.000550132  1.45765e-05     0.821662 
         950     0.213332  -0.00110758  3.86446e-05     0.821662 
         950     0.333332   -0.0016981   7.5298e-05     0.821662 
         950         0.48  -0.00213034  0.000120078     0.821661 
         950     0.653331  -0.00232997  0.000168074     0.821661 
         950     0.853332  -0.00233511  0.000217223      0.82166 
         950         1.08  -0.00220426  0.000268206      0.82166 
         950      1.33333  -0.00197797  0.000321801     0.821661 
         950      1.61333  -0.00170142  0.000376459     0.821662 
         950         1.92   -0.0014265  0.000428815     0.821666 
         950      2.25333  -0.00115757  0.000475566     0.821673 
         950      2.61333 -0.000865911  0.000514126     0.821684 
         950            3  -0.00055726  0.000542392       0.8217 
        1000            0            0            0            0 
        1000     0.013333   1.6022e-05 -2.01201e-05           -0 
        1000     0.053333  4.82411e-05  -8.7765e-05           -0 
        1000         0.12 -0.000260228 -0.000234411  6.80325e-17 
        1000     0.213332  -0.00128005 -0.000443669  8.09754e-16 
        1000     0.333332  -0.00109953 -0.000845233  4.48379e-16 
        1000         0.48  -0.00246783  -0.00117033           -0 
        1000     0.653331  -0.00282578 -0.000860233            0 
        1000     0.853332  -0.00159157  -0.00132411            0 
        1000         1.08  -0.00292672  -0.00187519            0 
        1000      1.33333  -0.00808566  -0.00149919  5.68841e-16 
        1000      1.61333   -0.0031725  0.000364964           -0 
        1000         1.92  -0.00211263  -0.00013451  9.87381e-16 
        1000      2.25333  -0.00237074 -0.000373963   1.1025e-15 
        1000      2.61333  -0.00303742  0.000330278           -0 
        1000            3 -0.000744178  0.000314257  9.66043e-16 
