Variables = x, y, u, v, p

Zone, I=416, F=POINT
         -50            0            0            0     -25.5576 
         -50     0.013333  -0.00012578 -4.53811e-08     -25.5576 
         -50     0.053333 -0.000136772 -2.49809e-07     -25.5576 
         -50         0.12 -0.000146443 -9.26356e-07     -25.5576 
         -50     0.213332 -0.000150286  -2.4005e-06     -25.5575 
         -50     0.333332 -0.000150819 -4.78863e-06     -25.5575 
         -50         0.48 -0.000152868 -8.00279e-06     -25.5575 
         -50     0.653331 -0.000157971 -1.18222e-05     -25.5574 
         -50     0.853332 -0.000161133 -1.58309e-05     -25.5573 
         -50         1.08 -0.000156319 -1.94506e-05     -25.5571 
         -50      1.33333 -0.000145601 -2.23816e-05     -25.5568 
         -50      1.61333 -0.000135528 -2.44137e-05     -25.5565 
         -50         1.92 -0.000124902 -2.49523e-05      -25.556 
         -50      2.25333 -0.000115847 -2.54908e-05     -25.5554 
         -50      2.61333 -0.000116852 -2.54188e-05     -25.5547 
         -50            3 -0.000113028 -1.79166e-05     -25.5538 
         -25            0 -1.00946e-19 -9.68909e-24     -24.5209 
         -25     0.013333 -8.57391e-05 -1.28484e-08     -24.5209 
         -25     0.053333 -7.98519e-05 -1.72432e-08     -24.5209 
         -25         0.12 -7.42426e-05  2.63866e-08     -24.5209 
         -25     0.213332 -7.01518e-05  1.45124e-07     -24.5209 
         -25     0.333332 -6.67616e-05   3.3146e-07     -24.5209 
         -25         0.48 -6.32791e-05   5.9296e-07     -24.5208 
         -25     0.653331 -6.01569e-05  9.32897e-07     -24.5208 
         -25     0.853332 -5.91077e-05  1.21209e-06     -24.5208 
         -25         1.08 -6.12761e-05  1.27781e-06     -24.5207 
         -25      1.33333 -6.54522e-05  1.07348e-06     -24.5206 
         -25      1.61333 -7.31781e-05  6.25037e-07     -24.5204 
         -25         1.92 -8.13148e-05  2.31012e-07     -24.5203 
         -25      2.25333 -8.02744e-05  7.14843e-08       -24.52 
         -25      2.61333 -7.50936e-05 -3.44845e-07     -24.5198 
         -25            3 -8.10353e-05 -6.22966e-06     -24.5194 
           0            0 -8.47291e-20 -4.66782e-24     -23.7051 
           0     0.013333 -7.18194e-05 -1.56597e-08     -23.7051 
           0     0.053333 -6.44323e-05 -1.43258e-07     -23.7051 
           0         0.12 -5.24645e-05 -5.47796e-07     -23.7051 
           0     0.213332  -3.9207e-05 -1.27802e-06      -23.705 
           0     0.333332 -2.84877e-05 -2.22745e-06      -23.705 
           0         0.48 -2.18549e-05 -3.28182e-06      -23.705 
           0     0.653331 -2.03201e-05 -4.45793e-06      -23.705 
           0     0.853332 -2.48654e-05 -5.84079e-06      -23.705 
           0         1.08 -3.30092e-05 -7.33178e-06      -23.705 
           0      1.33333 -4.02438e-05 -8.65045e-06     -23.7049 
           0      1.61333 -4.78853e-05 -9.60336e-06     -23.7048 
           0         1.92  -5.4467e-05 -1.01271e-05     -23.7048 
           0      2.25333 -6.05023e-05 -1.03214e-05     -23.7047 
           0      2.61333 -6.81159e-05  -1.0472e-05     -23.7045 
           0            3 -7.19249e-05 -9.00434e-06     -23.7043 
          20            0 -7.93151e-20 -2.79156e-24     -23.1299 
          20     0.013333 -6.98673e-05 -1.40624e-08     -23.1299 
          20     0.053333 -7.20693e-05 -1.68194e-07     -23.1299 
          20         0.12 -6.83639e-05 -7.66634e-07     -23.1299 
          20     0.213332 -5.73287e-05 -2.09018e-06     -23.1299 
          20     0.333332 -4.48953e-05 -4.13195e-06     -23.1299 
          20         0.48 -3.71437e-05 -6.61369e-06     -23.1299 
          20     0.653331  -3.5145e-05 -9.23774e-06     -23.1299 
          20     0.853332 -3.66173e-05 -1.17953e-05     -23.1299 
          20         1.08 -3.96138e-05 -1.41078e-05     -23.1298 
          20      1.33333 -4.26872e-05 -1.60018e-05     -23.1298 
          20      1.61333 -4.71275e-05  -1.7243e-05     -23.1298 
          20         1.92 -5.24279e-05 -1.76837e-05     -23.1297 
          20      2.25333 -5.34167e-05 -1.69825e-05     -23.1297 
          20      2.61333 -5.10214e-05  -1.6143e-05     -23.1296 
          20            3  -5.5158e-05 -1.55979e-05     -23.1295 
          40            0 -7.83108e-20 -1.72924e-24     -22.5935 
          40     0.013333 -7.45972e-05 -1.55511e-08     -22.5935 
          40     0.053333 -9.70665e-05  -2.2497e-07     -22.5935 
          40         0.12 -0.000112996 -1.13036e-06     -22.5935 
          40     0.213332  -0.00010999 -3.36141e-06     -22.5935 
          40     0.333332  -9.2924e-05 -7.23295e-06     -22.5935 
          40         0.48 -7.58626e-05 -1.25922e-05     -22.5935 
          40     0.653331 -6.84745e-05 -1.90639e-05     -22.5935 
          40     0.853332 -6.95105e-05 -2.60972e-05     -22.5935 
          40         1.08 -7.00721e-05 -3.28998e-05     -22.5935 
          40      1.33333 -6.48641e-05 -3.87573e-05     -22.5935 
          40      1.61333 -5.96089e-05 -4.32159e-05     -22.5935 
          40         1.92  -5.3209e-05 -4.55356e-05     -22.5934 
          40      2.25333 -4.76245e-05 -4.59532e-05     -22.5934 
          40      2.61333 -4.85899e-05 -4.52452e-05     -22.5933 
          40            3 -5.99954e-05  -4.5543e-05     -22.5933 
          60            0            0            0     -22.0811 
          60     0.013333 -7.58755e-05  1.07845e-08     -22.0811 
          60     0.053333 -0.000113781   1.4599e-07     -22.0811 
          60         0.12 -0.000161628  4.41118e-07     -22.0811 
          60     0.213332 -0.000198653  5.01425e-07     -22.0811 
          60     0.333332 -0.000213902 -3.15513e-07     -22.0811 
          60         0.48 -0.000213408 -2.35703e-06     -22.0811 
          60     0.653331 -0.000207414 -5.43016e-06     -22.0811 
          60     0.853332 -0.000196383 -8.93608e-06     -22.0811 
          60         1.08 -0.000175471 -1.22174e-05     -22.0811 
          60      1.33333  -0.00014642 -1.49999e-05     -22.0811 
          60      1.61333 -0.000111471 -1.72388e-05     -22.0811 
          60         1.92 -7.65106e-05 -1.85355e-05     -22.0811 
          60      2.25333 -4.87696e-05 -1.90475e-05      -22.081 
          60      2.61333 -2.58112e-05 -1.85336e-05      -22.081 
          60            3 -1.33389e-05 -1.78529e-05      -22.081 
          80            0            0            0     -21.5838 
          80     0.013333 -6.30702e-05  2.98761e-08     -21.5838 
          80     0.053333  -7.7121e-05  4.40362e-07     -21.5838 
          80         0.12 -0.000109258  1.85237e-06     -21.5838 
          80     0.213332 -0.000149997  4.50094e-06     -21.5838 
          80     0.333332 -0.000181469  7.98622e-06     -21.5838 
          80         0.48 -0.000195428  1.17724e-05     -21.5838 
          80     0.653331 -0.000193567  1.57235e-05     -21.5838 
          80     0.853332 -0.000177747  1.99978e-05     -21.5838 
          80         1.08 -0.000152744   2.4481e-05     -21.5838 
          80      1.33333 -0.000128241   2.8574e-05     -21.5838 
          80      1.61333 -9.91898e-05  3.17055e-05     -21.5838 
          80         1.92 -7.09904e-05  3.34404e-05     -21.5838 
          80      2.25333  -4.7264e-05  3.38277e-05     -21.5838 
          80      2.61333 -2.61272e-05  3.25492e-05     -21.5837 
          80            3 -1.90556e-05  3.03447e-05     -21.5837 
         100            0 -6.53791e-20 -4.56857e-25     -21.0962 
         100     0.013333 -5.14245e-05  2.13057e-08     -21.0962 
         100     0.053333 -3.65052e-05  3.30903e-07     -21.0962 
         100         0.12 -3.20994e-05   1.5065e-06     -21.0962 
         100     0.213332 -4.38267e-05  4.02422e-06     -21.0962 
         100     0.333332 -6.21311e-05  7.91354e-06     -21.0962 
         100         0.48 -7.51348e-05   1.2918e-05     -21.0962 
         100     0.653331 -7.70436e-05  1.88443e-05     -21.0962 
         100     0.853332 -6.84676e-05  2.54774e-05     -21.0962 
         100         1.08 -5.80884e-05  3.22073e-05     -21.0962 
         100      1.33333 -5.50683e-05  3.82183e-05     -21.0962 
         100      1.61333 -5.20469e-05  4.29043e-05     -21.0962 
         100         1.92 -4.95729e-05  4.56801e-05     -21.0962 
         100      2.25333 -5.07467e-05   4.6332e-05     -21.0962 
         100      2.61333 -5.14238e-05  4.50504e-05     -21.0962 
         100            3 -5.15157e-05  4.16945e-05     -21.0961 
         150            0           -0           -0     -19.9003 
         150     0.013333 -5.40267e-05  2.23187e-09     -19.9003 
         150     0.053333 -4.45919e-05  4.82181e-08     -19.9003 
         150         0.12  -3.7771e-05  2.87642e-07     -19.9003 
         150     0.213332 -3.81821e-05  9.39362e-07     -19.9003 
         150     0.333332 -4.30101e-05  2.09355e-06     -19.9003 
         150         0.48 -4.63624e-05  3.61453e-06     -19.9003 
         150     0.653331  -4.6422e-05  5.25146e-06     -19.9003 
         150     0.853332 -4.62428e-05  6.72783e-06     -19.9003 
         150         1.08  -4.8887e-05  7.84117e-06     -19.9003 
         150      1.33333 -5.26955e-05  8.63537e-06     -19.9003 
         150      1.61333 -5.54217e-05  9.18289e-06     -19.9003 
         150         1.92 -5.73089e-05  9.37109e-06     -19.9003 
         150      2.25333  -5.6955e-05  9.25501e-06     -19.9003 
         150      2.61333   -5.416e-05  8.77691e-06     -19.9003 
         150            3 -5.27086e-05  7.78454e-06     -19.9002 
         200            0           -0           -0     -18.7193 
         200     0.013333 -7.17744e-05 -1.57435e-10     -18.7193 
         200     0.053333 -0.000105965  -3.8283e-08     -18.7193 
         200         0.12 -0.000140833 -4.01255e-07     -18.7193 
         200     0.213332 -0.000156665 -1.71629e-06     -18.7193 
         200     0.333332 -0.000151248 -4.50806e-06     -18.7193 
         200         0.48 -0.000138595 -8.73511e-06     -18.7193 
         200     0.653331 -0.000130858 -1.38745e-05     -18.7193 
         200     0.853332 -0.000126466 -1.91913e-05     -18.7193 
         200         1.08 -0.000116744 -2.39814e-05     -18.7193 
         200      1.33333 -0.000100766 -2.80171e-05     -18.7193 
         200      1.61333 -8.48117e-05 -3.13786e-05     -18.7193 
         200         1.92 -7.03056e-05 -3.36132e-05     -18.7193 
         200      2.25333 -5.82893e-05 -3.46986e-05     -18.7193 
         200      2.61333 -4.72768e-05 -3.43316e-05     -18.7193 
         200            3 -3.73277e-05 -3.26551e-05     -18.7192 
         250            0            0            0     -17.5437 
         250     0.013333 -7.44524e-05 -2.76321e-08     -17.5437 
         250     0.053333 -0.000109085 -4.40235e-07     -17.5437 
         250         0.12  -0.00012924 -2.14159e-06     -17.5437 
         250     0.213332 -0.000115581 -6.13927e-06     -17.5437 
         250     0.333332 -7.89561e-05 -1.28136e-05     -17.5437 
         250         0.48 -4.45042e-05 -2.17511e-05     -17.5437 
         250     0.653331 -2.84114e-05 -3.22936e-05     -17.5437 
         250     0.853332 -3.14837e-05  -4.3873e-05     -17.5437 
         250         1.08 -4.21637e-05 -5.57058e-05     -17.5437 
         250      1.33333 -4.50522e-05 -6.67454e-05     -17.5437 
         250      1.61333 -4.54752e-05 -7.61046e-05     -17.5437 
         250         1.92  -4.6199e-05 -8.30002e-05     -17.5437 
         250      2.25333 -4.60368e-05 -8.69701e-05     -17.5437 
         250      2.61333 -4.76722e-05 -8.75909e-05     -17.5437 
         250            3 -4.65787e-05 -8.48363e-05     -17.5437 
         300            0           -0           -0     -16.3704 
         300     0.013333 -6.50783e-05  -1.4213e-08     -16.3704 
         300     0.053333 -7.96628e-05 -2.28628e-07     -16.3704 
         300         0.12 -8.61518e-05 -1.11781e-06     -16.3704 
         300     0.213332 -7.67089e-05 -3.18711e-06     -16.3704 
         300     0.333332 -5.93846e-05 -6.54204e-06     -16.3704 
         300         0.48 -4.77516e-05 -1.08334e-05     -16.3704 
         300     0.653331 -4.79116e-05 -1.56324e-05     -16.3704 
         300     0.853332 -5.62909e-05 -2.06003e-05     -16.3704 
         300         1.08 -6.33996e-05 -2.52737e-05     -16.3704 
         300      1.33333   -6.185e-05 -2.91573e-05     -16.3704 
         300      1.61333 -5.74379e-05 -3.20763e-05     -16.3704 
         300         1.92  -5.3882e-05 -3.39273e-05     -16.3704 
         300      2.25333 -5.07323e-05 -3.46023e-05     -16.3704 
         300      2.61333 -4.84829e-05 -3.40338e-05     -16.3704 
         300            3 -4.76956e-05 -3.22423e-05     -16.3704 
         350            0 -7.02082e-20 -5.98306e-27     -15.1981 
         350     0.013333 -6.68446e-05  -8.0983e-09     -15.1981 
         350     0.053333 -8.82652e-05 -1.33596e-07     -15.1981 
         350         0.12  -0.00010835 -6.76952e-07     -15.1981 
         350     0.213332 -0.000116229 -2.01703e-06     -15.1981 
         350     0.333332 -0.000112276 -4.35921e-06     -15.1981 
         350         0.48 -0.000104651 -7.63785e-06     -15.1981 
         350     0.653331  -0.00010082  -1.1677e-05     -15.1981 
         350     0.853332 -0.000103069 -1.63079e-05     -15.1981 
         350         1.08 -0.000107113 -2.11982e-05     -15.1981 
         350      1.33333 -0.000104026   -2.576e-05     -15.1981 
         350      1.61333 -9.41711e-05 -2.95421e-05     -15.1981 
         350         1.92 -8.24583e-05 -3.23824e-05     -15.1981 
         350      2.25333 -6.98244e-05 -3.41575e-05     -15.1981 
         350      2.61333 -5.74512e-05  -3.4722e-05     -15.1981 
         350            3 -4.84192e-05 -3.39595e-05     -15.1981 
         400            0           -0           -0     -14.0263 
         400     0.013333  -3.9407e-05  4.33943e-08     -14.0263 
         400     0.053333 -7.31436e-06   6.8662e-07     -14.0263 
         400         0.12 -8.50469e-06  3.31915e-06     -14.0263 
         400     0.213332 -6.65383e-05  9.48064e-06     -14.0263 
         400     0.333332 -0.000156112   1.9698e-05     -14.0263 
         400         0.48 -0.000230521  3.30961e-05     -14.0263 
         400     0.653331 -0.000264488  4.82652e-05     -14.0263 
         400     0.853332 -0.000262542  6.41144e-05     -14.0263 
         400         1.08 -0.000243335  7.98043e-05     -14.0263 
         400      1.33333 -0.000223186  9.45548e-05     -14.0263 
         400      1.61333 -0.000197785  0.000107706     -14.0263 
         400         1.92 -0.000167842  0.000118457     -14.0263 
         400      2.25333 -0.000136235  0.000126049     -14.0263 
         400      2.61333 -9.86134e-05   0.00012969     -14.0263 
         400            3  -6.5653e-05  0.000128982     -14.0263 
         450            0           -0           -0     -12.8548 
         450     0.013333 -1.44465e-05 -8.95754e-08     -12.8548 
         450     0.053333  0.000120118  -1.2551e-06     -12.8548 
         450         0.12    0.0003309 -5.07197e-06     -12.8548 
         450     0.213332  0.000551762   -1.168e-05     -12.8548 
         450     0.333332    0.0007047 -1.92198e-05     -12.8548 
         450         0.48  0.000765785  -2.5582e-05     -12.8548 
         450     0.653331  0.000763774 -3.02954e-05     -12.8548 
         450     0.853332  0.000724144 -3.46836e-05     -12.8548 
         450         1.08  0.000644291 -4.05209e-05     -12.8548 
         450      1.33333  0.000529811 -4.80394e-05     -12.8548 
         450      1.61333  0.000403199 -5.56191e-05     -12.8548 
         450         1.92  0.000279098 -6.21409e-05     -12.8548 
         450      2.25333  0.000155515 -6.69711e-05     -12.8548 
         450      2.61333  2.40646e-05   -6.984e-05     -12.8548 
         450            3 -8.81766e-05 -7.04931e-05     -12.8548 
         500            0           -0           -0     -11.6843 
         500     0.013333 -8.99185e-05 -2.22696e-08     -11.6843 
         500     0.053333  -0.00016616 -3.78572e-07     -11.6843 
         500         0.12 -0.000238679 -1.98478e-06     -11.6843 
         500     0.213332 -0.000267872 -6.09513e-06     -11.6843 
         500     0.333332 -0.000252981 -1.34677e-05     -11.6843 
         500         0.48 -0.000223317 -2.38998e-05     -11.6843 
         500     0.653331 -0.000206631 -3.66983e-05     -11.6843 
         500     0.853332 -0.000211703  -5.1187e-05     -11.6843 
         500         1.08 -0.000225775 -6.63757e-05     -11.6843 
         500      1.33333 -0.000221214 -8.06412e-05     -11.6843 
         500      1.61333 -0.000192566 -9.26744e-05     -11.6843 
         500         1.92 -0.000157774 -0.000102147     -11.6843 
         500      2.25333 -0.000124024 -0.000108965     -11.6843 
         500      2.61333 -9.04344e-05 -0.000112506     -11.6843 
         500            3 -5.93684e-05 -0.000112332     -11.6843 
         550            0           -0           -0     -10.5139 
         550     0.013333 -6.60743e-05 -9.23902e-09     -10.5139 
         550     0.053333 -8.30296e-05 -1.67036e-07     -10.5139 
         550         0.12 -8.89512e-05 -9.37564e-07     -10.5139 
         550     0.213332 -6.81735e-05 -3.04478e-06     -10.5139 
         550     0.333332 -2.65077e-05 -6.95629e-06     -10.5139 
         550         0.48  1.29365e-05 -1.24078e-05     -10.5139 
         550     0.653331   3.2574e-05 -1.85878e-05     -10.5139 
         550     0.853332  3.40846e-05 -2.46442e-05     -10.5139 
         550         1.08  3.13533e-05 -2.99053e-05     -10.5139 
         550      1.33333  3.36029e-05 -3.40494e-05     -10.5139 
         550      1.61333  3.35155e-05 -3.73038e-05     -10.5139 
         550         1.92  2.53139e-05 -3.99236e-05     -10.5139 
         550      2.25333  1.24912e-05 -4.17773e-05     -10.5139 
         550      2.61333 -3.55732e-06  -4.2614e-05     -10.5139 
         550            3 -2.16518e-05 -4.22774e-05     -10.5139 
         600            0           -0           -0     -9.34407 
         600     0.013333 -6.28568e-06  7.90191e-08     -9.34407 
         600     0.053333    0.0001005  1.25128e-06     -9.34407 
         600         0.12   0.00015914  6.08204e-06     -9.34407 
         600     0.213332  0.000100527   1.7598e-05     -9.34407 
         600     0.333332 -5.03156e-05  3.73211e-05     -9.34407 
         600         0.48 -0.000208086  6.43408e-05     -9.34407 
         600     0.653331  -0.00030634  9.64877e-05     -9.34407 
         600     0.853332 -0.000329987   0.00013193     -9.34407 
         600         1.08 -0.000300779  0.000169222     -9.34407 
         600      1.33333 -0.000259226  0.000206433     -9.34407 
         600      1.61333 -0.000226192   0.00024131     -9.34407 
         600         1.92 -0.000199496  0.000272089     -9.34407 
         600      2.25333  -0.00017163  0.000297325     -9.34407 
         600      2.61333 -0.000134683  0.000315168     -9.34407 
         600            3 -9.99774e-05  0.000323911     -9.34407 
         650            0            0            0     -8.17468 
         650     0.013333 -0.000125877  -4.6125e-08     -8.17468 
         650     0.053333 -0.000290003 -7.58643e-07     -8.17468 
         650         0.12  -0.00045501 -3.86436e-06     -8.17468 
         650     0.213332 -0.000537289 -1.17112e-05     -8.17468 
         650     0.333332 -0.000522881  -2.5934e-05     -8.17468 
         650         0.48 -0.000460304 -4.65739e-05     -8.17468 
         650     0.653331 -0.000407101 -7.26282e-05     -8.17468 
         650     0.853332 -0.000392976 -0.000103002     -8.17468 
         650         1.08 -0.000411907  -0.00013636     -8.17468 
         650      1.33333 -0.000423652 -0.000170328     -8.17468 
         650      1.61333 -0.000396163 -0.000202032     -8.17468 
         650         1.92 -0.000339223 -0.000229748     -8.17468 
         650      2.25333 -0.000272758 -0.000252672     -8.17468 
         650      2.61333 -0.000203456 -0.000269393     -8.17468 
         650            3 -0.000130322 -0.000278393     -8.17467 
         700            0           -0           -0     -7.00556 
         700     0.013333 -7.30868e-05  1.13664e-08     -7.00556 
         700     0.053333    -0.000116  1.46717e-07     -7.00556 
         700         0.12 -0.000172744  4.88666e-07     -7.00556 
         700     0.213332 -0.000217451  6.96529e-07     -7.00556 
         700     0.333332 -0.000228384 -1.29252e-09     -7.00556 
         700         0.48 -0.000206666 -2.22798e-06     -7.00556 
         700     0.653331 -0.000171642 -5.91711e-06     -7.00556 
         700     0.853332 -0.000138167 -1.03891e-05     -7.00556 
         700         1.08 -0.000107336 -1.49046e-05     -7.00556 
         700      1.33333 -7.96953e-05 -1.93038e-05     -7.00556 
         700      1.61333 -6.35339e-05 -2.40559e-05     -7.00556 
         700         1.92 -5.70149e-05 -2.92526e-05     -7.00555 
         700      2.25333 -5.12526e-05 -3.44346e-05     -7.00555 
         700      2.61333 -4.50225e-05 -3.91075e-05     -7.00555 
         700            3 -3.92638e-05 -4.29604e-05     -7.00555 
         750            0           -0           -0     -5.83678 
         750     0.013333 -2.66434e-05 -8.87977e-09     -5.83678 
         750     0.053333  5.41937e-05 -7.80696e-08     -5.83678 
         750         0.12  0.000148354  1.17435e-08     -5.83678 
         750     0.213332  0.000211432  1.15895e-06     -5.83678 
         750     0.333332  0.000224142  4.48903e-06     -5.83678 
         750         0.48  0.000206749  1.03542e-05     -5.83678 
         750     0.653331  0.000192534  1.80046e-05     -5.83678 
         750     0.853332  0.000193259  2.60781e-05     -5.83678 
         750         1.08  0.000190789  3.30763e-05     -5.83678 
         750      1.33333  0.000161892  3.79263e-05     -5.83678 
         750      1.61333  0.000113777  4.07892e-05     -5.83678 
         750         1.92  7.03999e-05  4.25927e-05     -5.83678 
         750      2.25333  3.36021e-05  4.37218e-05     -5.83678 
         750      2.61333 -4.86993e-06  4.39388e-05     -5.83679 
         750            3 -4.31647e-05  4.30397e-05     -5.83679 
         800            0            0            0      -4.6688 
         800     0.013333 -0.000172667  -2.7003e-08      -4.6688 
         800     0.053333 -0.000459445 -5.54773e-07      -4.6688 
         800         0.12 -0.000766088 -3.52619e-06      -4.6688 
         800     0.213332  -0.00092876 -1.27545e-05      -4.6688 
         800     0.333332 -0.000887319 -3.21319e-05      -4.6688 
         800         0.48 -0.000720094 -6.28814e-05      -4.6688 
         800     0.653331 -0.000554756 -0.000102952      -4.6688 
         800     0.853332 -0.000461054 -0.000148743      -4.6688 
         800         1.08 -0.000422845 -0.000196529      -4.6688 
         800      1.33333 -0.000381069 -0.000242987      -4.6688 
         800      1.61333 -0.000312103 -0.000286138      -4.6688 
         800         1.92 -0.000238221 -0.000325422      -4.6688 
         800      2.25333 -0.000170305 -0.000359989     -4.66879 
         800      2.61333 -0.000105387 -0.000387722     -4.66879 
         800            3 -4.24373e-05 -0.000406338     -4.66878 
         850            0            0            0     -3.50017 
         850     0.013333   9.2756e-05 -1.21749e-07     -3.50017 
         850     0.053333  0.000520667 -1.64301e-06     -3.50017 
         850         0.12   0.00112125 -6.17221e-06     -3.50017 
         850     0.213332   0.00169432 -1.24328e-05     -3.50017 
         850     0.333332   0.00205173 -1.57966e-05     -3.50017 
         850         0.48   0.00215349 -1.17466e-05     -3.50017 
         850     0.653331   0.00210065  6.25821e-07     -3.50017 
         850     0.853332   0.00200197  1.83714e-05     -3.50017 
         850         1.08   0.00187452  3.66169e-05     -3.50017 
         850      1.33333   0.00167415  5.11875e-05     -3.50017 
         850      1.61333   0.00140398  6.13042e-05     -3.50017 
         850         1.92   0.00112707  6.91262e-05     -3.50018 
         850      2.25333  0.000859271  7.62014e-05     -3.50018 
         850      2.61333  0.000575367  8.20327e-05      -3.5002 
         850            3  0.000283274  8.58731e-05     -3.50022 
         900            0            0            0     -2.33387 
         900     0.013333 -7.72383e-05  1.97247e-07     -2.33387 
         900     0.053333 -0.000190858  2.91898e-06     -2.33387 
         900         0.12 -0.000484125  1.29039e-05     -2.33387 
         900     0.213332 -0.000931139  3.35686e-05     -2.33387 
         900     0.333332  -0.00137644  6.40055e-05     -2.33387 
         900         0.48  -0.00166923  0.000100007     -2.33387 
         900     0.653331  -0.00177454  0.000137985     -2.33387 
         900     0.853332  -0.00173706  0.000177558     -2.33387 
         900         1.08  -0.00159134  0.000220644     -2.33387 
         900      1.33333  -0.00136142  0.000268057     -2.33387 
         900      1.61333  -0.00111099  0.000316787     -2.33387 
         900         1.92 -0.000903764  0.000362053     -2.33387 
         900      2.25333 -0.000721251  0.000401029     -2.33386 
         900      2.61333 -0.000521013  0.000432271     -2.33385 
         900            3 -0.000313809  0.000453815     -2.33384 
         950            0            0            0     -1.16674 
         950     0.013333   -0.0001713  -7.2317e-08     -1.16674 
         950     0.053333 -0.000446144 -1.18909e-06     -1.16674 
         950         0.12 -0.000724786  -6.0733e-06     -1.16674 
         950     0.213332 -0.000862613   -1.852e-05     -1.16674 
         950     0.333332 -0.000827826 -4.13246e-05     -1.16675 
         950         0.48  -0.00070105 -7.46549e-05     -1.16675 
         950     0.653331 -0.000587087 -0.000116697     -1.16675 
         950     0.853332 -0.000544789 -0.000165475     -1.16675 
         950         1.08 -0.000576649 -0.000219279     -1.16675 
         950      1.33333 -0.000630599 -0.000275296     -1.16675 
         950      1.61333 -0.000631541 -0.000329153     -1.16674 
         950         1.92 -0.000561034  -0.00037756     -1.16674 
         950      2.25333 -0.000463794 -0.000419518     -1.16674 
         950      2.61333 -0.000366989 -0.000453866     -1.16674 
         950            3 -0.000263521 -0.000478337     -1.16673 
        1000            0            0            0            0 
        1000     0.013333 -6.33498e-05  2.65419e-06           -0 
        1000     0.053333  -6.3606e-05  1.16024e-05           -0 
        1000         0.12 -1.84132e-05  3.11916e-05 -9.75356e-17 
        1000     0.213332  0.000118476  5.95044e-05 -1.15896e-15 
        1000     0.333332   8.6466e-05  0.000115838 -6.40141e-16 
        1000         0.48   0.00027005  0.000162957           -0 
        1000     0.653331  0.000249201  0.000142362            0 
        1000     0.853332  0.000177068  0.000248741            0 
        1000         1.08  0.000433715  0.000337146            0 
        1000      1.33333   0.00137988  0.000261561 -6.43413e-16 
        1000      1.61333  0.000483726 -9.95951e-05           -0 
        1000         1.92  0.000269484 -3.05239e-05 -1.28966e-15 
        1000      2.25333  0.000293265  9.15719e-07 -1.37178e-15 
        1000      2.61333  0.000383957 -0.000108211           -0 
        1000            3  5.02094e-05 -0.000114654 -1.33728e-15 
