Variables = x, y, u, v, p

Zone, I=416, F=POINT
         -50            0            0            0     -21.3617 
         -50     0.013333 -5.05919e-05 -3.42264e-08     -21.3617 
         -50     0.053333 -4.92734e-05 -1.80808e-07     -21.3617 
         -50         0.12 -3.69209e-05 -5.96186e-07     -21.3617 
         -50     0.213332 -2.25036e-05 -1.31221e-06     -21.3617 
         -50     0.333332 -1.09645e-05 -2.26524e-06     -21.3617 
         -50         0.48 -3.90541e-06 -3.39958e-06     -21.3616 
         -50     0.653331 -2.91908e-06 -4.78218e-06     -21.3615 
         -50     0.853332 -1.09656e-05 -6.65809e-06     -21.3614 
         -50         1.08 -2.59016e-05 -8.96835e-06     -21.3613 
         -50      1.33333 -4.02675e-05   -1.115e-05     -21.3611 
         -50      1.61333 -5.32887e-05 -1.32541e-05     -21.3608 
         -50         1.92 -6.99168e-05 -1.44185e-05     -21.3604 
         -50      2.25333 -8.59635e-05 -1.75346e-05     -21.3599 
         -50      2.61333 -0.000101468 -1.87648e-05     -21.3593 
         -50            3 -9.41964e-05 -7.63959e-06     -21.3586 
         -25            0 -3.17634e-20 -6.73976e-24     -20.4984 
         -25     0.013333 -2.97521e-05 -1.52892e-08     -20.4984 
         -25     0.053333 -1.03108e-05 -8.43348e-08     -20.4984 
         -25         0.12  1.95667e-05 -1.99332e-07     -20.4984 
         -25     0.213332  4.39671e-05 -1.04408e-07     -20.4984 
         -25     0.333332  5.65207e-05  6.25793e-07     -20.4984 
         -25         0.48   6.1896e-05  2.30913e-06     -20.4984 
         -25     0.653331  6.60034e-05  4.92879e-06     -20.4983 
         -25     0.853332  6.56964e-05  8.01601e-06     -20.4983 
         -25         1.08  5.38914e-05  1.09526e-05     -20.4982 
         -25      1.33333  3.23899e-05  1.34317e-05     -20.4981 
         -25      1.61333  4.91784e-06  1.52376e-05      -20.498 
         -25         1.92 -3.00913e-05  1.55377e-05     -20.4979 
         -25      2.25333 -6.18627e-05  1.52194e-05     -20.4977 
         -25      2.61333 -7.81809e-05  1.51325e-05     -20.4975 
         -25            3 -7.65529e-05  1.92719e-05     -20.4972 
           0            0  -2.5011e-20 -3.25209e-24     -19.8193 
           0     0.013333 -2.06897e-05 -1.04927e-08     -19.8193 
           0     0.053333    6.173e-06 -6.76154e-08     -19.8193 
           0         0.12   4.2119e-05 -9.74837e-08     -19.8193 
           0     0.213332   6.8319e-05  2.76914e-07     -19.8193 
           0     0.333332  7.89132e-05  1.52079e-06     -19.8193 
           0         0.48  8.04915e-05  3.82754e-06     -19.8193 
           0     0.653331  7.93026e-05  6.98031e-06     -19.8192 
           0     0.853332   7.2433e-05  1.03948e-05     -19.8192 
           0         1.08  5.51869e-05  1.34442e-05     -19.8192 
           0      1.33333  3.14091e-05   1.5904e-05     -19.8192 
           0      1.61333  4.27435e-06   1.7703e-05     -19.8191 
           0         1.92  -2.2577e-05  1.82747e-05      -19.819 
           0      2.25333 -4.40214e-05  1.80163e-05     -19.8189 
           0      2.61333 -5.66854e-05  1.67275e-05     -19.8188 
           0            3 -6.26864e-05  1.29418e-05     -19.8187 
          20            0  -2.6597e-20 -1.94684e-24     -19.3407 
          20     0.013333 -2.84334e-05 -9.75844e-09     -19.3407 
          20     0.053333  -2.7376e-05 -9.86007e-08     -19.3407 
          20         0.12 -2.02817e-05 -3.64056e-07     -19.3407 
          20     0.213332 -1.29379e-05 -8.04094e-07     -19.3407 
          20     0.333332  -8.1046e-06 -1.35783e-06     -19.3407 
          20         0.48 -6.03186e-06 -2.01984e-06     -19.3407 
          20     0.653331 -7.50703e-06 -2.89048e-06     -19.3406 
          20     0.853332 -1.41648e-05 -4.11355e-06     -19.3406 
          20         1.08 -2.37084e-05 -5.64959e-06     -19.3406 
          20      1.33333 -3.03208e-05 -7.17904e-06     -19.3406 
          20      1.61333  -3.6299e-05 -8.46033e-06     -19.3406 
          20         1.92 -4.14587e-05 -9.38573e-06     -19.3405 
          20      2.25333 -4.19525e-05 -9.78224e-06     -19.3405 
          20      2.61333 -4.05922e-05 -1.01175e-05     -19.3404 
          20            3 -4.04187e-05 -1.00021e-05     -19.3403 
          40            0 -2.61856e-20 -1.20637e-24     -18.8944 
          40     0.013333 -2.98233e-05  2.91531e-09     -18.8944 
          40     0.053333 -3.84166e-05  6.12576e-08     -18.8944 
          40         0.12 -4.69712e-05  2.50511e-07     -18.8944 
          40     0.213332 -5.56608e-05  5.60316e-07     -18.8944 
          40     0.333332 -6.22806e-05  8.82465e-07     -18.8944 
          40         0.48 -6.62255e-05  1.13288e-06     -18.8944 
          40     0.653331 -6.79563e-05  1.33386e-06     -18.8944 
          40     0.853332 -6.74485e-05  1.54754e-06     -18.8944 
          40         1.08 -6.54825e-05  1.74882e-06     -18.8944 
          40      1.33333 -6.27482e-05  1.87698e-06     -18.8944 
          40      1.61333 -5.65992e-05  1.96668e-06     -18.8944 
          40         1.92 -4.54964e-05  2.13006e-06     -18.8944 
          40      2.25333 -3.26404e-05  2.09207e-06     -18.8943 
          40      2.61333 -2.69803e-05  1.61378e-06     -18.8943 
          40            3 -2.77203e-05  1.65151e-06     -18.8942 
          60            0            0            0     -18.4682 
          60     0.013333  -2.7873e-05  6.29067e-10     -18.4682 
          60     0.053333 -3.29734e-05  1.91057e-08     -18.4682 
          60         0.12 -3.51435e-05  6.52357e-08     -18.4682 
          60     0.213332 -3.56924e-05  1.06033e-07     -18.4682 
          60     0.333332 -3.47133e-05  9.44086e-08     -18.4682 
          60         0.48 -3.30155e-05   2.3206e-08     -18.4682 
          60     0.653331 -3.16556e-05 -6.55761e-08     -18.4682 
          60     0.853332 -3.09664e-05 -1.05546e-07     -18.4682 
          60         1.08 -3.15264e-05  -7.7189e-08     -18.4682 
          60      1.33333 -3.46625e-05 -5.10603e-08     -18.4682 
          60      1.61333 -3.95625e-05 -3.29941e-08     -18.4682 
          60         1.92 -4.35232e-05 -4.95332e-08     -18.4682 
          60      2.25333 -4.45147e-05  6.34109e-08     -18.4681 
          60      2.61333 -4.31767e-05  3.35072e-09     -18.4681 
          60            3 -4.31531e-05 -1.21316e-07     -18.4681 
          80            0            0            0     -18.0546 
          80     0.013333 -2.46474e-05  8.84914e-10     -18.0546 
          80     0.053333 -2.42238e-05  3.01704e-08     -18.0546 
          80         0.12 -2.40992e-05  1.91165e-07     -18.0546 
          80     0.213332 -3.09019e-05   6.6366e-07     -18.0546 
          80     0.333332 -4.37883e-05   1.5728e-06     -18.0546 
          80         0.48 -5.74869e-05   2.8651e-06     -18.0546 
          80     0.653331 -6.79319e-05  4.37917e-06     -18.0546 
          80     0.853332 -7.33447e-05  6.00486e-06     -18.0546 
          80         1.08 -7.33963e-05  7.69909e-06     -18.0546 
          80      1.33333 -7.04536e-05  9.32983e-06     -18.0546 
          80      1.61333 -6.60345e-05  1.06997e-05     -18.0546 
          80         1.92 -6.35958e-05   1.1492e-05     -18.0546 
          80      2.25333 -6.39423e-05  1.18343e-05     -18.0546 
          80      2.61333 -5.94715e-05   1.1857e-05     -18.0545 
          80            3 -5.02478e-05  1.18485e-05     -18.0545 
         100            0 -1.96186e-20 -3.15469e-25     -17.6491 
         100     0.013333 -1.51196e-05 -1.55973e-08     -17.6491 
         100     0.053333   1.2894e-05 -2.00124e-07     -17.6491 
         100         0.12  5.45747e-05  -7.1541e-07     -17.6491 
         100     0.213332  8.99101e-05 -1.33964e-06     -17.6491 
         100     0.333332  0.000106404  -1.5285e-06     -17.6491 
         100         0.48  0.000106814 -9.10102e-07     -17.6491 
         100     0.653331  9.94238e-05  4.14928e-07     -17.6491 
         100     0.853332  8.63282e-05  2.02334e-06     -17.6491 
         100         1.08  6.61801e-05  3.55142e-06     -17.6491 
         100      1.33333  4.13969e-05  4.95702e-06     -17.6491 
         100      1.61333  1.22847e-05  6.25377e-06      -17.649 
         100         1.92 -1.66485e-05  7.21492e-06      -17.649 
         100      2.25333 -4.28552e-05  7.76524e-06      -17.649 
         100      2.61333  -6.7493e-05  7.84812e-06      -17.649 
         100            3 -8.20505e-05  6.98094e-06      -17.649 
         150            0           -0           -0     -16.6543 
         150     0.013333 -4.02025e-05  2.68238e-09     -16.6543 
         150     0.053333 -8.02262e-05  9.03784e-09     -16.6543 
         150         0.12 -0.000120749 -1.71771e-07     -16.6543 
         150     0.213332 -0.000143814 -1.09374e-06     -16.6543 
         150     0.333332 -0.000144365 -3.35293e-06     -16.6543 
         150         0.48 -0.000133562 -7.09997e-06     -16.6543 
         150     0.653331 -0.000123809 -1.19772e-05     -16.6543 
         150     0.853332 -0.000116467 -1.73622e-05     -16.6543 
         150         1.08 -0.000106179 -2.26697e-05     -16.6543 
         150      1.33333 -9.10285e-05 -2.76182e-05     -16.6543 
         150      1.61333 -7.39071e-05 -3.19591e-05     -16.6543 
         150         1.92 -5.70953e-05 -3.51402e-05     -16.6543 
         150      2.25333 -4.36749e-05 -3.69754e-05     -16.6543 
         150      2.61333 -3.27277e-05 -3.72602e-05     -16.6543 
         150            3 -2.64341e-05 -3.62815e-05     -16.6543 
         200            0           -0           -0     -15.6714 
         200     0.013333 -2.48461e-05 -1.57247e-08     -15.6714 
         200     0.053333 -2.29123e-05 -2.25286e-07     -15.6714 
         200         0.12 -1.05063e-05 -9.42906e-07     -15.6714 
         200     0.213332  4.75735e-06 -2.27043e-06     -15.6714 
         200     0.333332  1.33586e-05 -3.96925e-06     -15.6714 
         200         0.48  1.24684e-05 -5.76488e-06     -15.6714 
         200     0.653331  4.74015e-06 -7.65143e-06     -15.6714 
         200     0.853332 -7.46434e-06 -9.77823e-06     -15.6714 
         200         1.08 -2.01458e-05 -1.20589e-05     -15.6714 
         200      1.33333 -2.69355e-05 -1.40782e-05     -15.6714 
         200      1.61333 -3.10812e-05 -1.55429e-05     -15.6714 
         200         1.92 -3.50735e-05 -1.63936e-05     -15.6714 
         200      2.25333 -3.79018e-05 -1.65792e-05     -15.6714 
         200      2.61333 -4.04006e-05 -1.61365e-05     -15.6714 
         200            3 -4.33722e-05 -1.52611e-05     -15.6714 
         250            0            0            0     -14.6924 
         250     0.013333 -2.39843e-05 -4.56382e-08     -14.6924 
         250     0.053333 -1.09407e-05 -6.72316e-07     -14.6924 
         250         0.12  3.67978e-05 -2.94313e-06     -14.6924 
         250     0.213332  0.000109992 -7.54363e-06     -14.6924 
         250     0.333332  0.000179258 -1.41655e-05     -14.6924 
         250         0.48  0.000222277 -2.19379e-05     -14.6924 
         250     0.653331   0.00023558 -3.03141e-05     -14.6924 
         250     0.853332   0.00022299 -3.92951e-05     -14.6924 
         250         1.08  0.000190669 -4.88252e-05     -14.6924 
         250      1.33333  0.000152331 -5.82205e-05     -14.6924 
         250      1.61333  0.000107991 -6.64396e-05     -14.6924 
         250         1.92  6.23605e-05 -7.27313e-05     -14.6924 
         250      2.25333  1.96955e-05 -7.65762e-05     -14.6924 
         250      2.61333 -2.61488e-05 -7.76091e-05     -14.6924 
         250            3 -5.96733e-05 -7.59096e-05     -14.6924 
         300            0           -0           -0     -13.7144 
         300     0.013333 -2.49939e-05 -4.98553e-08     -13.7144 
         300     0.053333 -1.31107e-05 -7.40036e-07     -13.7144 
         300         0.12  3.62182e-05 -3.26341e-06     -13.7144 
         300     0.213332  0.000112426 -8.38742e-06     -13.7144 
         300     0.333332  0.000180181 -1.56797e-05     -13.7144 
         300         0.48   0.00021361 -2.40053e-05     -13.7144 
         300     0.653331  0.000212509 -3.26364e-05     -13.7144 
         300     0.853332  0.000187533 -4.15087e-05     -13.7144 
         300         1.08  0.000150905 -5.04522e-05     -13.7144 
         300      1.33333  0.000117511  -5.8677e-05     -13.7144 
         300      1.61333  8.35452e-05 -6.53269e-05     -13.7144 
         300         1.92  4.76191e-05 -6.99647e-05     -13.7144 
         300      2.25333  1.33591e-05 -7.22679e-05     -13.7144 
         300      2.61333 -2.14072e-05 -7.19078e-05     -13.7144 
         300            3 -4.56427e-05 -6.90114e-05     -13.7144 
         350            0 -3.83849e-20 -1.15462e-28     -12.7368 
         350     0.013333 -6.38713e-05 -4.69989e-08     -12.7368 
         350     0.053333 -0.000151085 -7.59794e-07     -12.7368 
         350         0.12 -0.000213202 -3.76524e-06     -12.7368 
         350     0.213332 -0.000207213 -1.10104e-05     -12.7368 
         350     0.333332 -0.000148066 -2.34116e-05     -12.7368 
         350         0.48 -8.46124e-05 -4.03552e-05     -12.7368 
         350     0.653331 -5.22648e-05 -6.05964e-05     -12.7368 
         350     0.853332 -5.58666e-05 -8.30114e-05     -12.7368 
         350         1.08 -7.41228e-05 -0.000106161     -12.7368 
         350      1.33333 -7.55692e-05 -0.000128083     -12.7368 
         350      1.61333 -6.41474e-05 -0.000147122     -12.7368 
         350         1.92 -5.05868e-05 -0.000162134     -12.7368 
         350      2.25333  -3.6706e-05 -0.000172217     -12.7368 
         350      2.61333 -2.71942e-05 -0.000176432     -12.7368 
         350            3 -1.83054e-05 -0.000174152     -12.7368 
         400            0           -0           -0     -11.7592 
         400     0.013333 -4.52573e-05  4.20039e-08     -11.7592 
         400     0.053333 -0.000110223  5.90707e-07     -11.7592 
         400         0.12  -0.00020825   2.4048e-06     -11.7592 
         400     0.213332 -0.000311667  5.60316e-06     -11.7592 
         400     0.333332 -0.000384015  9.36027e-06     -11.7592 
         400         0.48 -0.000412228  1.26435e-05     -11.7592 
         400     0.653331  -0.00040905  1.50718e-05     -11.7592 
         400     0.853332 -0.000388592  1.70507e-05     -11.7592 
         400         1.08 -0.000352115  1.93106e-05     -11.7592 
         400      1.33333 -0.000299549  2.21592e-05     -11.7592 
         400      1.61333 -0.000236966   2.5122e-05     -11.7592 
         400         1.92 -0.000173884  2.77058e-05     -11.7592 
         400      2.25333 -0.000112475  2.95383e-05     -11.7592 
         400      2.61333 -4.89598e-05  3.04761e-05     -11.7592 
         400            3   2.9821e-06  3.04767e-05     -11.7592 
         450            0           -0           -0     -10.7811 
         450     0.013333  2.44149e-05 -6.45446e-09     -10.7811 
         450     0.053333  0.000149967 -1.66413e-08     -10.7811 
         450         0.12  0.000298128  4.49977e-07     -10.7811 
         450     0.213332  0.000398206    2.817e-06     -10.7811 
         450     0.333332   0.00042121  8.73837e-06     -10.7811 
         450         0.48  0.000393772  1.88261e-05     -10.7811 
         450     0.653331   0.00035973  3.23458e-05     -10.7811 
         450     0.853332   0.00033777  4.78046e-05     -10.7811 
         450         1.08  0.000313952  6.34448e-05     -10.7811 
         450      1.33333  0.000268736   7.7888e-05     -10.7811 
         450      1.61333  0.000208745  9.06247e-05     -10.7811 
         450         1.92  0.000146533  0.000101235     -10.7811 
         450      2.25333  8.40312e-05  0.000109273     -10.7811 
         450      2.61333  1.98825e-05  0.000113945     -10.7811 
         450            3 -3.86413e-05  0.000114711     -10.7811 
         500            0           -0           -0     -9.80293 
         500     0.013333 -3.51067e-05 -4.08852e-08     -9.80293 
         500     0.053333 -5.22513e-05 -6.09966e-07     -9.80293 
         500         0.12 -4.50553e-05 -2.71846e-06     -9.80293 
         500     0.213332  -1.0818e-05 -7.11793e-06     -9.80293 
         500     0.333332  2.91895e-05  -1.3685e-05     -9.80293 
         500         0.48  5.36174e-05 -2.17468e-05     -9.80293 
         500     0.653331  5.65316e-05 -3.09174e-05     -9.80293 
         500     0.853332  3.90676e-05 -4.13571e-05     -9.80293 
         500         1.08  5.40439e-06  -5.3107e-05     -9.80293 
         500      1.33333 -2.63825e-05 -6.52241e-05     -9.80293 
         500      1.61333  -4.1814e-05 -7.61768e-05     -9.80293 
         500         1.92 -4.61601e-05 -8.51476e-05     -9.80293 
         500      2.25333 -4.72476e-05 -9.18567e-05     -9.80293 
         500      2.61333 -4.78136e-05 -9.57782e-05     -9.80293 
         500            3 -4.26203e-05 -9.65021e-05     -9.80294 
         550            0           -0           -0      -8.8244 
         550     0.013333 -8.46658e-05 -2.80416e-09      -8.8244 
         550     0.053333 -0.000236904  -1.3097e-07      -8.8244 
         550         0.12 -0.000400612 -1.18645e-06      -8.8244 
         550     0.213332 -0.000494398 -5.06201e-06      -8.8244 
         550     0.333332 -0.000486673 -1.38401e-05      -8.8244 
         550         0.48 -0.000415126 -2.82494e-05      -8.8244 
         550     0.653331 -0.000340257 -4.72882e-05      -8.8244 
         550     0.853332  -0.00029225 -6.91049e-05      -8.8244 
         550         1.08 -0.000261374 -9.17671e-05      -8.8244 
         550      1.33333 -0.000223963 -0.000113701      -8.8244 
         550      1.61333 -0.000178101 -0.000133997      -8.8244 
         550         1.92 -0.000131587 -0.000151951      -8.8244 
         550      2.25333 -8.52106e-05 -0.000166752     -8.82439 
         550      2.61333 -3.99998e-05 -0.000177213     -8.82439 
         550            3  2.03077e-06 -0.000182285     -8.82438 
         600            0           -0           -0      -7.8451 
         600     0.013333  5.36629e-05  2.16778e-08      -7.8451 
         600     0.053333  0.000248771  4.24231e-07      -7.8451 
         600         0.12  0.000465283  2.56142e-06      -7.8451 
         600     0.213332  0.000599812  8.83649e-06      -7.8451 
         600     0.333332  0.000620973  2.13869e-05      -7.8451 
         600         0.48  0.000575852  4.06594e-05     -7.84509 
         600     0.653331  0.000531043  6.55547e-05     -7.84509 
         600     0.853332  0.000519021  9.43663e-05     -7.84509 
         600         1.08  0.000522349  0.000124841     -7.84509 
         600      1.33333  0.000493825  0.000154154     -7.84509 
         600      1.61333  0.000420229  0.000180231      -7.8451 
         600         1.92  0.000328347  0.000202373      -7.8451 
         600      2.25333  0.000232323  0.000220152      -7.8451 
         600      2.61333  0.000132226  0.000232222     -7.84511 
         600            3   3.3418e-05  0.000237343     -7.84511 
         650            0            0            0     -6.86576 
         650     0.013333  5.64724e-06 -6.04878e-08     -6.86576 
         650     0.053333   0.00010102 -8.63691e-07     -6.86576 
         650         0.12  0.000258084 -3.57477e-06     -6.86576 
         650     0.213332  0.000423922 -8.38854e-06     -6.86576 
         650     0.333332  0.000529228 -1.38132e-05     -6.86576 
         650         0.48   0.00054555 -1.78311e-05     -6.86576 
         650     0.653331  0.000498414 -1.96879e-05     -6.86576 
         650     0.853332  0.000423277 -2.02682e-05     -6.86576 
         650         1.08  0.000335673 -2.08035e-05     -6.86576 
         650      1.33333  0.000250528 -2.12293e-05     -6.86576 
         650      1.61333  0.000186425 -2.03321e-05     -6.86576 
         650         1.92  0.000135863 -1.78224e-05     -6.86576 
         650      2.25333  8.28298e-05 -1.42397e-05     -6.86577 
         650      2.61333  2.48881e-05 -9.96892e-06     -6.86577 
         650            3 -2.94293e-05 -5.20608e-06     -6.86578 
         700            0           -0           -0     -5.88655 
         700     0.013333 -6.59074e-05  1.27579e-07     -5.88655 
         700     0.053333 -0.000213228  1.85513e-06     -5.88655 
         700         0.12 -0.000484516  7.98235e-06     -5.88655 
         700     0.213332 -0.000830588  2.00745e-05     -5.88655 
         700     0.333332  -0.00113884    3.686e-05     -5.88655 
         700         0.48  -0.00132709  5.54033e-05     -5.88655 
         700     0.653331  -0.00139471  7.36446e-05     -5.88655 
         700     0.853332  -0.00137899  9.17104e-05     -5.88655 
         700         1.08  -0.00129552  0.000111217     -5.88655 
         700      1.33333  -0.00114747  0.000133138     -5.88655 
         700      1.61333 -0.000964075  0.000156005     -5.88655 
         700         1.92 -0.000783842  0.000177252     -5.88655 
         700      2.25333 -0.000603886  0.000195141     -5.88654 
         700      2.61333 -0.000405228  0.000208715     -5.88653 
         700            3 -0.000208518  0.000216942     -5.88652 
         750            0           -0           -0     -4.90629 
         750     0.013333 -0.000103841 -3.07293e-08     -4.90629 
         750     0.053333 -0.000301823 -5.28573e-07     -4.90629 
         750         0.12  -0.00051524 -2.85901e-06     -4.90629 
         750     0.213332 -0.000646541 -9.25383e-06     -4.90629 
         750     0.333332 -0.000657194 -2.18539e-05     -4.90629 
         750         0.48 -0.000583056 -4.15169e-05     -4.90629 
         750     0.653331 -0.000490511 -6.75933e-05     -4.90629 
         750     0.853332 -0.000425695 -9.87098e-05     -4.90629 
         750         1.08  -0.00039834 -0.000133428     -4.90629 
         750      1.33333 -0.000388464  -0.00017012     -4.90629 
         750      1.61333 -0.000367512 -0.000206603     -4.90629 
         750         1.92 -0.000320526 -0.000240575     -4.90629 
         750      2.25333 -0.000256852 -0.000270411     -4.90628 
         750      2.61333 -0.000189192 -0.000294486     -4.90628 
         750            3 -0.000116781 -0.000311005     -4.90628 
         800            0            0            0     -3.92553 
         800     0.013333   -7.867e-06 -9.72645e-08     -3.92553 
         800     0.053333  6.67774e-05 -1.43692e-06     -3.92553 
         800         0.12  0.000239051 -6.33938e-06     -3.92553 
         800     0.213332  0.000486788 -1.64646e-05     -3.92553 
         800     0.333332    0.0007298 -3.13574e-05     -3.92553 
         800         0.48  0.000893632 -4.89309e-05     -3.92553 
         800     0.653331  0.000960735 -6.73303e-05     -3.92553 
         800     0.853332  0.000953102 -8.61756e-05     -3.92553 
         800         1.08  0.000889908  -0.00010617     -3.92553 
         800      1.33333  0.000784121 -0.000127642     -3.92553 
         800      1.61333  0.000658453 -0.000149519     -3.92553 
         800         1.92  0.000535899 -0.000170079     -3.92553 
         800      2.25333  0.000414175    -0.000188     -3.92554 
         800      2.61333  0.000279888 -0.000202281     -3.92554 
         800            3  0.000142681 -0.000211912     -3.92555 
         850            0            0            0     -2.94494 
         850     0.013333  3.65921e-05  3.51411e-08     -2.94494 
         850     0.053333  0.000185729  5.83725e-07     -2.94494 
         850         0.12   0.00034366  3.01868e-06     -2.94494 
         850     0.213332  0.000429345  9.31616e-06     -2.94494 
         850     0.333332   0.00042195  2.10149e-05     -2.94494 
         850         0.48  0.000360941  3.83407e-05     -2.94494 
         850     0.653331  0.000300794  6.04589e-05     -2.94494 
         850     0.853332  0.000273836  8.63311e-05     -2.94494 
         850         1.08  0.000281653  0.000114906     -2.94494 
         850      1.33333  0.000296555  0.000144539     -2.94494 
         850      1.61333  0.000284618  0.000172995     -2.94494 
         850         1.92  0.000241939  0.000198674     -2.94494 
         850      2.25333  0.000187689  0.000220914     -2.94494 
         850      2.61333  0.000132056  0.000238804     -2.94494 
         850            3  7.25905e-05   0.00025103     -2.94494 
         900            0            0            0      -1.9638 
         900     0.013333 -1.02647e-05 -2.80084e-09      -1.9638 
         900     0.053333  2.83891e-05 -3.40253e-08      -1.9638 
         900         0.12  8.10315e-05 -7.81288e-08      -1.9638 
         900     0.213332  0.000121495  1.31926e-07      -1.9638 
         900     0.333332  0.000127879  1.22129e-06      -1.9638 
         900         0.48  9.63666e-05  3.86653e-06      -1.9638 
         900     0.653331  4.21871e-05  8.27074e-06      -1.9638 
         900     0.853332  -1.5696e-05  1.40719e-05      -1.9638 
         900         1.08 -6.42657e-05  2.08958e-05      -1.9638 
         900      1.33333 -9.15566e-05  2.88948e-05     -1.96381 
         900      1.61333 -9.16836e-05  3.83393e-05     -1.96381 
         900         1.92 -8.00581e-05  4.86784e-05     -1.96381 
         900      2.25333 -7.18069e-05  5.88815e-05     -1.96381 
         900      2.61333 -6.56829e-05  6.82514e-05     -1.96381 
         900            3 -5.92936e-05  7.62783e-05     -1.96381 
         950            0            0            0    -0.982187 
         950     0.013333  2.32503e-05  1.16199e-07    -0.982187 
         950     0.053333  0.000108168  1.81396e-06    -0.982187 
         950         0.12  0.000107518  8.67727e-06    -0.982187 
         950     0.213332 -6.14478e-05  2.47785e-05    -0.982187 
         950     0.333332 -0.000353337  5.20335e-05    -0.982187 
         950         0.48 -0.000637809  8.89238e-05    -0.982187 
         950     0.653331 -0.000811173  0.000132054    -0.982187 
         950     0.853332 -0.000851093  0.000178645    -0.982187 
         950         1.08 -0.000792639  0.000227087    -0.982187 
         950      1.33333 -0.000695334  0.000275649    -0.982187 
         950      1.61333 -0.000607093  0.000322008    -0.982187 
         950         1.92 -0.000533906  0.000364607    -0.982187 
         950      2.25333 -0.000456055  0.000402287    -0.982185 
         950      2.61333 -0.000362517  0.000433132    -0.982184 
         950            3 -0.000260862  0.000455301    -0.982181 
        1000            0            0            0            0 
        1000     0.013333  2.53193e-05 -1.33612e-05           -0 
        1000     0.053333  8.83377e-05 -5.83336e-05           -0 
        1000         0.12 -6.19039e-05 -0.000157356 -8.14045e-17 
        1000     0.213332 -0.000668348 -0.000317754 -9.67113e-16 
        1000     0.333332 -0.000518218 -0.000678541 -5.33833e-16 
        1000         0.48  -0.00175559 -0.000948916           -0 
        1000     0.653331   -0.0018176 -0.000779224            0 
        1000     0.853332  -0.00125501  -0.00127041            0 
        1000         1.08  -0.00248173  -0.00171563            0 
        1000      1.33333  -0.00707536  -0.00135173  -4.0248e-16 
        1000      1.61333  -0.00276005   0.00038717           -0 
        1000         1.92  -0.00184418 -9.45298e-06 -9.81236e-16 
        1000      2.25333  -0.00211682 -0.000198618  -9.9473e-16 
        1000      2.61333  -0.00283961  0.000495296           -0 
        1000            3  -0.00074235  0.000527951 -1.07936e-15 
