Variables = x, y, u, v, p

Zone, I=2080, F=POINT
         -50            0            0            0     -46.9101 
         -50      0.00048 -2.64818e-05 -3.84567e-09     -46.9101 
         -50     0.001922  -9.4571e-05 -1.45881e-08     -46.9101 
         -50     0.004326 -0.000175558 -3.01198e-08     -46.9101 
         -50      0.00769 -0.000237902 -4.78592e-08     -46.9101 
         -50     0.012017 -0.000263333 -6.57346e-08     -46.9101 
         -50     0.017304 -0.000255568 -8.27215e-08     -46.9101 
         -50     0.023553 -0.000236364  -9.8801e-08     -46.9101 
         -50     0.030763 -0.000229197 -1.14177e-07     -46.9101 
         -50     0.038936 -0.000240197 -1.28364e-07     -46.9101 
         -50     0.048069 -0.000252195 -1.39872e-07     -46.9101 
         -50     0.058163 -0.000245055 -1.47213e-07     -46.9101 
         -50     0.069219 -0.000232938 -1.50559e-07     -46.9101 
         -50     0.081236 -0.000252944  -1.5043e-07     -46.9101 
         -50     0.094215  -0.00024128 -1.42052e-07     -46.9101 
         -50     0.108155 -0.000246304 -1.30603e-07     -46.9101 
         -50     0.123056 -0.000246514 -1.13986e-07     -46.9101 
         -50     0.138918 -0.000245913 -9.30975e-08     -46.9101 
         -50     0.155744   -0.0002461 -6.90082e-08     -46.9101 
         -50     0.173529 -0.000246736 -4.29487e-08     -46.9101 
         -50     0.192276 -0.000246742 -1.62712e-08     -46.9101 
         -50     0.211984 -0.000245772  9.53967e-09     -46.9101 
         -50     0.232655  -0.00024493   3.2898e-08     -46.9101 
         -50     0.254285 -0.000244913  5.21957e-08     -46.9101 
         -50     0.276877 -0.000243198  6.63043e-08     -46.9101 
         -50     0.300431 -0.000242111  7.38398e-08     -46.9101 
         -50     0.324946 -0.000240649  7.39055e-08       -46.91 
         -50     0.350424 -0.000238967  6.61857e-08       -46.91 
         -50     0.376861  -0.00023716  5.04078e-08       -46.91 
         -50      0.40426 -0.000235271  2.63104e-08       -46.91 
         -50     0.432621 -0.000233314 -6.38682e-09       -46.91 
         -50     0.461945 -0.000231294 -4.80222e-08       -46.91 
         -50     0.492228  -0.00022923 -9.90207e-08     -46.9099 
         -50     0.523472  -0.00022717 -1.59944e-07     -46.9099 
         -50     0.555678 -0.000225182 -2.31501e-07     -46.9099 
         -50     0.588845 -0.000223312 -3.14548e-07     -46.9099 
         -50     0.622976 -0.000221495 -4.09392e-07     -46.9098 
         -50     0.658066 -0.000219878 -5.10351e-07     -46.9098 
         -50     0.694117 -0.000218424 -6.28569e-07     -46.9097 
         -50      0.73113 -0.000217169 -7.60677e-07     -46.9097 
         -50     0.769107 -0.000216135   -9.049e-07     -46.9097 
         -50     0.808042 -0.000215326  -1.0607e-06     -46.9096 
         -50     0.847939 -0.000214736 -1.22838e-06     -46.9096 
         -50     0.888797 -0.000214345 -1.40854e-06     -46.9095 
         -50      0.93062 -0.000214124 -1.60157e-06     -46.9095 
         -50       0.9734 -0.000214041 -1.80707e-06     -46.9094 
         -50      1.01714 -0.000214059  -2.0236e-06     -46.9093 
         -50      1.06185 -0.000214146 -2.24851e-06     -46.9092 
         -50      1.10751 -0.000214275 -2.47827e-06     -46.9092 
         -50      1.15414 -0.000214425 -2.70943e-06     -46.9091 
         -50      1.20173 -0.000214583 -2.94022e-06      -46.909 
         -50      1.25028 -0.000214741  -3.1735e-06     -46.9089 
         -50      1.29979 -0.000214891 -3.42101e-06     -46.9088 
         -50      1.35026 -0.000214922 -3.70799e-06     -46.9087 
         -50       1.4017 -0.000214855 -3.96491e-06     -46.9086 
         -50      1.45409   -0.0002148 -4.18726e-06     -46.9085 
         -50      1.50745 -0.000214698 -4.40561e-06     -46.9084 
         -50      1.56176  -0.00021451 -4.63838e-06     -46.9082 
         -50      1.61705 -0.000214224 -4.89344e-06     -46.9081 
         -50      1.67329 -0.000213847 -5.17004e-06      -46.908 
         -50      1.73049 -0.000213405 -5.46125e-06     -46.9078 
         -50      1.78865 -0.000212934 -5.75652e-06     -46.9076 
         -50      1.84778 -0.000212482 -6.04438e-06     -46.9075 
         -50      1.90786   -0.0002121 -6.31519e-06     -46.9073 
         -50      1.96891 -0.000211837 -6.56382e-06     -46.9071 
         -50      2.03092 -0.000211735 -6.79176e-06     -46.9069 
         -50      2.09389 -0.000211829  -7.0087e-06     -46.9067 
         -50      2.15782 -0.000212135 -7.23304e-06     -46.9065 
         -50      2.22272 -0.000212658 -7.49129e-06     -46.9063 
         -50      2.28857 -0.000213382 -7.81549e-06     -46.9061 
         -50      2.35539 -0.000214279 -8.23861e-06     -46.9058 
         -50      2.42317 -0.000215311 -8.78714e-06     -46.9056 
         -50      2.49191  -0.00021644 -9.47006e-06     -46.9053 
         -50      2.56161 -0.000217642 -1.02642e-05     -46.9051 
         -50      2.63226  -0.00021893 -1.10945e-05     -46.9048 
         -50      2.70389 -0.000220379 -1.18081e-05     -46.9045 
         -50      2.77648 -0.000222064 -1.28232e-05     -46.9042 
         -50      2.85002 -0.000223864 -1.44815e-05     -46.9039 
         -50      2.92453 -0.000225694 -1.58246e-05     -46.9035 
         -50            3   -0.0002274 -1.70531e-05     -46.9032 
         -25            0 -2.05312e-19 -1.57711e-23     -45.0152 
         -25      0.00048 -1.92674e-05 -1.51081e-09     -45.0152 
         -25     0.001922  -6.8788e-05 -5.74889e-09     -45.0152 
         -25     0.004326 -0.000127625 -1.19341e-08     -45.0152 
         -25      0.00769 -0.000172782 -1.91132e-08     -45.0152 
         -25     0.012017 -0.000190943 -2.65211e-08     -45.0152 
         -25     0.017304 -0.000184836 -3.37578e-08     -45.0152 
         -25     0.023553  -0.00017035 -4.07347e-08     -45.0152 
         -25     0.030763 -0.000164635 -4.73266e-08     -45.0152 
         -25     0.038936 -0.000172193 -5.29737e-08     -45.0152 
         -25     0.048069 -0.000180537 -5.65243e-08     -45.0152 
         -25     0.058163  -0.00017502 -5.66031e-08     -45.0152 
         -25     0.069219 -0.000166016 -5.22533e-08     -45.0152 
         -25     0.081236 -0.000180631 -4.24445e-08     -45.0152 
         -25     0.094215 -0.000172375 -2.39001e-08     -45.0152 
         -25     0.108155  -0.00017656  2.97523e-09     -45.0152 
         -25     0.123056 -0.000177537  4.05927e-08     -45.0152 
         -25     0.138918 -0.000178249  9.02202e-08     -45.0152 
         -25     0.155744 -0.000179878  1.53048e-07     -45.0152 
         -25     0.173529 -0.000182181  2.30058e-07     -45.0152 
         -25     0.192276 -0.000184365  3.21981e-07     -45.0152 
         -25     0.211984 -0.000186158  4.29174e-07     -45.0152 
         -25     0.232655 -0.000188337  5.51662e-07     -45.0152 
         -25     0.254285 -0.000191369  6.89274e-07     -45.0152 
         -25     0.276877 -0.000193368  8.41929e-07     -45.0152 
         -25     0.300431 -0.000195978  1.00838e-06     -45.0152 
         -25     0.324946 -0.000198411  1.18788e-06     -45.0152 
         -25     0.350424 -0.000200722  1.37965e-06     -45.0152 
         -25     0.376861 -0.000202923  1.58267e-06     -45.0152 
         -25      0.40426 -0.000204992  1.79585e-06     -45.0152 
         -25     0.432621 -0.000206888  2.01798e-06     -45.0152 
         -25     0.461945 -0.000208569  2.24788e-06     -45.0152 
         -25     0.492228 -0.000210008  2.48441e-06     -45.0152 
         -25     0.523472 -0.000211204  2.72656e-06     -45.0152 
         -25     0.555678 -0.000212177  2.97342e-06     -45.0152 
         -25     0.588845 -0.000212936  3.22408e-06     -45.0151 
         -25     0.622976 -0.000213414  3.47637e-06     -45.0151 
         -25     0.658066 -0.000213696  3.72175e-06     -45.0151 
         -25     0.694117 -0.000213753  3.97764e-06     -45.0151 
         -25      0.73113 -0.000213604  4.23576e-06     -45.0151 
         -25     0.769107 -0.000213264  4.49122e-06     -45.0151 
         -25     0.808042 -0.000212753  4.74194e-06      -45.015 
         -25     0.847939 -0.000212085  4.98805e-06      -45.015 
         -25     0.888797 -0.000211278  5.23091e-06      -45.015 
         -25      0.93062 -0.000210351  5.47213e-06      -45.015 
         -25       0.9734 -0.000209322  5.71256e-06      -45.015 
         -25      1.01714 -0.000208214  5.95166e-06     -45.0149 
         -25      1.06185 -0.000207048  6.18693e-06     -45.0149 
         -25      1.10751  -0.00020585  6.41428e-06     -45.0149 
         -25      1.15414 -0.000204645  6.62913e-06     -45.0148 
         -25      1.20173 -0.000203452  6.82889e-06     -45.0148 
         -25      1.25028 -0.000202288  7.01736e-06     -45.0148 
         -25      1.29979 -0.000201154  7.21132e-06     -45.0147 
         -25      1.35026 -0.000200019  7.39019e-06     -45.0147 
         -25       1.4017 -0.000198734  7.53104e-06     -45.0146 
         -25      1.45409 -0.000197337  7.68897e-06     -45.0146 
         -25      1.50745 -0.000195897  7.83581e-06     -45.0146 
         -25      1.56176 -0.000194454  7.95551e-06     -45.0145 
         -25      1.61705 -0.000193023   8.0423e-06     -45.0144 
         -25      1.67329 -0.000191601  8.09857e-06     -45.0144 
         -25      1.73049 -0.000190171  8.13224e-06     -45.0143 
         -25      1.78865  -0.00018871  8.15391e-06     -45.0143 
         -25      1.84778 -0.000187194  8.17381e-06     -45.0142 
         -25      1.90786 -0.000185611   8.1987e-06     -45.0141 
         -25      1.96891  -0.00018396  8.22891e-06     -45.0141 
         -25      2.03092 -0.000182264  8.25581e-06      -45.014 
         -25      2.09389 -0.000180572   8.2598e-06     -45.0139 
         -25      2.15782 -0.000178962   8.2093e-06     -45.0138 
         -25      2.22272 -0.000177542  8.06103e-06     -45.0137 
         -25      2.28857 -0.000176445  7.76201e-06     -45.0137 
         -25      2.35539 -0.000175821  7.25374e-06     -45.0136 
         -25      2.42317 -0.000175822   6.4791e-06     -45.0135 
         -25      2.49191 -0.000176578  5.39297e-06     -45.0134 
         -25      2.56161 -0.000178166  3.97631e-06     -45.0133 
         -25      2.63226 -0.000180567  2.25575e-06     -45.0131 
         -25      2.70389 -0.000183608  3.28453e-07      -45.013 
         -25      2.77648 -0.000187182 -1.73747e-06     -45.0129 
         -25      2.85002 -0.000190134  -3.5646e-06     -45.0128 
         -25      2.92453 -0.000192443 -5.07857e-06     -45.0127 
         -25            3 -0.000194191 -6.28789e-06     -45.0125 
           0            0 -1.76162e-19 -7.59374e-24     -43.5258 
           0      0.00048 -1.65458e-05 -7.18889e-10     -43.5258 
           0     0.001922  -5.9233e-05 -2.63309e-09     -43.5258 
           0     0.004326 -0.000110484  -5.0817e-09     -43.5258 
           0      0.00769 -0.000150976 -7.18718e-09     -43.5258 
           0     0.012017 -0.000169496 -8.10597e-09     -43.5258 
           0     0.017304 -0.000168263 -7.22113e-09     -43.5258 
           0     0.023553 -0.000160522 -4.22796e-09     -43.5258 
           0     0.030763 -0.000160555  9.05331e-10     -43.5258 
           0     0.038936 -0.000172026  8.01772e-09     -43.5258 
           0     0.048069 -0.000184337  1.67215e-08     -43.5258 
           0     0.058163 -0.000185072  2.61635e-08     -43.5258 
           0     0.069219 -0.000182793  3.46752e-08     -43.5258 
           0     0.081236 -0.000200089  4.00169e-08     -43.5258 
           0     0.094215 -0.000197844  4.04818e-08     -43.5258 
           0     0.108155 -0.000205547   3.2116e-08     -43.5258 
           0     0.123056  -0.00020997  1.20127e-08     -43.5258 
           0     0.138918 -0.000213501 -2.34635e-08     -43.5258 
           0     0.155744 -0.000217073 -7.80206e-08     -43.5258 
           0     0.173529 -0.000220454 -1.55269e-07     -43.5258 
           0     0.192276  -0.00022298 -2.58653e-07     -43.5258 
           0     0.211984  -0.00022445 -3.91305e-07     -43.5258 
           0     0.232655 -0.000225569 -5.55976e-07     -43.5258 
           0     0.254285 -0.000226804 -7.54817e-07     -43.5258 
           0     0.276877 -0.000226666 -9.89426e-07     -43.5258 
           0     0.300431 -0.000226638  -1.2611e-06     -43.5258 
           0     0.324946  -0.00022617 -1.57011e-06     -43.5258 
           0     0.350424 -0.000225421 -1.91629e-06     -43.5258 
           0     0.376861 -0.000224507 -2.29898e-06     -43.5258 
           0      0.40426  -0.00022351 -2.71708e-06     -43.5258 
           0     0.432621 -0.000222481 -3.16897e-06     -43.5258 
           0     0.461945 -0.000221456 -3.65252e-06     -43.5258 
           0     0.492228 -0.000220466 -4.16502e-06     -43.5258 
           0     0.523472 -0.000219542 -4.70342e-06     -43.5258 
           0     0.555678 -0.000218716 -5.26439e-06     -43.5258 
           0     0.588845 -0.000217989 -5.84449e-06     -43.5258 
           0     0.622976 -0.000217279  -6.4407e-06     -43.5258 
           0     0.658066 -0.000216628  -7.0475e-06     -43.5258 
           0     0.694117  -0.00021597 -7.65976e-06     -43.5258 
           0      0.73113 -0.000215257 -8.27495e-06     -43.5257 
           0     0.769107 -0.000214446 -8.89006e-06     -43.5257 
           0     0.808042 -0.000213503 -9.50162e-06     -43.5257 
           0     0.847939   -0.0002124 -1.01063e-05     -43.5257 
           0     0.888797  -0.00021112 -1.07008e-05     -43.5257 
           0      0.93062 -0.000209652 -1.12827e-05     -43.5257 
           0       0.9734 -0.000207997 -1.18498e-05     -43.5257 
           0      1.01714  -0.00020616 -1.24012e-05     -43.5257 
           0      1.06185 -0.000204156 -1.29367e-05     -43.5257 
           0      1.10751 -0.000201997 -1.34569e-05     -43.5256 
           0      1.15414 -0.000199698 -1.39627e-05     -43.5256 
           0      1.20173 -0.000197264 -1.44541e-05     -43.5256 
           0      1.25028 -0.000194686 -1.49292e-05     -43.5256 
           0      1.29979  -0.00019193 -1.53816e-05     -43.5256 
           0      1.35026 -0.000188963 -1.57916e-05     -43.5256 
           0       1.4017 -0.000185947 -1.62032e-05     -43.5255 
           0      1.45409 -0.000182869 -1.66201e-05     -43.5255 
           0      1.50745 -0.000179707 -1.70116e-05     -43.5255 
           0      1.56176 -0.000176464 -1.73585e-05     -43.5255 
           0      1.61705 -0.000173169 -1.76521e-05     -43.5254 
           0      1.67329 -0.000169869 -1.78919e-05     -43.5254 
           0      1.73049 -0.000166626 -1.80842e-05     -43.5254 
           0      1.78865 -0.000163508 -1.82392e-05     -43.5254 
           0      1.84778 -0.000160583  -1.8369e-05     -43.5253 
           0      1.90786 -0.000157915 -1.84847e-05     -43.5253 
           0      1.96891  -0.00015555 -1.85938e-05     -43.5253 
           0      2.03092 -0.000153516 -1.86979e-05     -43.5252 
           0      2.09389 -0.000151813 -1.87913e-05     -43.5252 
           0      2.15782 -0.000150411 -1.88589e-05     -43.5251 
           0      2.22272 -0.000149246 -1.88769e-05     -43.5251 
           0      2.28857 -0.000148222 -1.88134e-05     -43.5251 
           0      2.35539 -0.000147214 -1.86312e-05      -43.525 
           0      2.42317 -0.000146081 -1.82931e-05      -43.525 
           0      2.49191 -0.000144678 -1.77694e-05     -43.5249 
           0      2.56161 -0.000142881 -1.70484e-05     -43.5249 
           0      2.63226 -0.000140618  -1.6152e-05     -43.5248 
           0      2.70389 -0.000137912 -1.51541e-05     -43.5247 
           0      2.77648 -0.000134889 -1.39482e-05     -43.5247 
           0      2.85002 -0.000131754 -1.25585e-05     -43.5246 
           0      2.92453 -0.000128803 -1.13623e-05     -43.5246 
           0            3 -0.000126208 -1.02897e-05     -43.5245 
          20            0 -1.61309e-19 -4.54169e-24     -42.4764 
          20      0.00048 -1.51499e-05 -4.12172e-10     -42.4764 
          20     0.001922 -5.42273e-05 -1.29063e-09     -42.4764 
          20     0.004326 -0.000101118 -1.60775e-09     -42.4764 
          20      0.00769 -0.000138119  1.89319e-10     -42.4764 
          20     0.012017 -0.000154975  5.99937e-09     -42.4764 
          20     0.017304 -0.000153768  1.78912e-08     -42.4764 
          20     0.023553 -0.000146701  3.80058e-08     -42.4764 
          20     0.030763 -0.000146933  6.84926e-08     -42.4764 
          20     0.038936 -0.000157878  1.11493e-07     -42.4764 
          20     0.048069  -0.00016986  1.68995e-07     -42.4764 
          20     0.058163 -0.000171529  2.42637e-07     -42.4764 
          20     0.069219 -0.000170775  3.33391e-07     -42.4764 
          20     0.081236 -0.000188353  4.41599e-07     -42.4764 
          20     0.094215 -0.000188375   5.6758e-07     -42.4764 
          20     0.108155   -0.0001979  7.09889e-07     -42.4764 
          20     0.123056 -0.000204771  8.67228e-07     -42.4764 
          20     0.138918 -0.000211148  1.03738e-06     -42.4764 
          20     0.155744 -0.000217845  1.21765e-06     -42.4764 
          20     0.173529 -0.000224595  1.40485e-06     -42.4764 
          20     0.192276 -0.000230729  1.59559e-06     -42.4764 
          20     0.211984 -0.000235999  1.78624e-06     -42.4764 
          20     0.232655 -0.000240986  1.97323e-06     -42.4764 
          20     0.254285 -0.000246054  2.15313e-06     -42.4764 
          20     0.276877 -0.000249774  2.32309e-06     -42.4764 
          20     0.300431 -0.000253452  2.47985e-06     -42.4764 
          20     0.324946 -0.000256535  2.62148e-06     -42.4764 
          20     0.350424 -0.000259124  2.74658e-06     -42.4764 
          20     0.376861 -0.000261294   2.8541e-06     -42.4764 
          20      0.40426 -0.000263089  2.94348e-06     -42.4764 
          20     0.432621 -0.000264536  3.01477e-06     -42.4764 
          20     0.461945 -0.000265653  3.06868e-06     -42.4764 
          20     0.492228 -0.000266457  3.10667e-06     -42.4764 
          20     0.523472 -0.000266974  3.13083e-06     -42.4764 
          20     0.555678 -0.000267229  3.14356e-06     -42.4764 
          20     0.588845 -0.000267226  3.14703e-06     -42.4764 
          20     0.622976 -0.000266899  3.14207e-06     -42.4764 
          20     0.658066 -0.000266294  3.13292e-06     -42.4764 
          20     0.694117 -0.000265363  3.12628e-06     -42.4763 
          20      0.73113 -0.000264081  3.12172e-06     -42.4763 
          20     0.769107 -0.000262432  3.11998e-06     -42.4763 
          20     0.808042  -0.00026041  3.12267e-06     -42.4763 
          20     0.847939 -0.000258018  3.13179e-06     -42.4763 
          20     0.888797 -0.000255271  3.14926e-06     -42.4763 
          20      0.93062 -0.000252197  3.17642e-06     -42.4763 
          20       0.9734 -0.000248833  3.21358e-06     -42.4763 
          20      1.01714 -0.000245227  3.25971e-06     -42.4763 
          20      1.06185 -0.000241432  3.31234e-06     -42.4763 
          20      1.10751 -0.000237504  3.36787e-06     -42.4763 
          20      1.15414 -0.000233497   3.4224e-06     -42.4763 
          20      1.20173 -0.000229453   3.4732e-06     -42.4763 
          20      1.25028 -0.000225392  3.52128e-06     -42.4763 
          20      1.29979 -0.000221297   3.5751e-06     -42.4762 
          20      1.35026 -0.000217118  3.62047e-06     -42.4762 
          20       1.4017 -0.000212558  3.63117e-06     -42.4762 
          20      1.45409 -0.000207593  3.64967e-06     -42.4762 
          20      1.50745 -0.000202349  3.67244e-06     -42.4762 
          20      1.56176 -0.000196931  3.69694e-06     -42.4762 
          20      1.61705 -0.000191427  3.72147e-06     -42.4762 
          20      1.67329 -0.000185905  3.74507e-06     -42.4761 
          20      1.73049 -0.000180416   3.7673e-06     -42.4761 
          20      1.78865 -0.000174991  3.78805e-06     -42.4761 
          20      1.84778 -0.000169645  3.80739e-06     -42.4761 
          20      1.90786 -0.000164385  3.82529e-06     -42.4761 
          20      1.96891 -0.000159201  3.84152e-06      -42.476 
          20      2.03092 -0.000154081  3.85549e-06      -42.476 
          20      2.09389 -0.000149009  3.86618e-06      -42.476 
          20      2.15782 -0.000143972   3.8722e-06      -42.476 
          20      2.22272 -0.000138965   3.8719e-06      -42.476 
          20      2.28857 -0.000133998  3.86371e-06     -42.4759 
          20      2.35539 -0.000129096  3.84667e-06     -42.4759 
          20      2.42317 -0.000124314   3.8212e-06     -42.4759 
          20      2.49191 -0.000119737  3.79017e-06     -42.4758 
          20      2.56161 -0.000115485  3.76038e-06     -42.4758 
          20      2.63226  -0.00011172  3.74443e-06     -42.4758 
          20      2.70389  -0.00010865  3.76317e-06     -42.4757 
          20      2.77648 -0.000106628  3.79628e-06     -42.4757 
          20      2.85002 -0.000104887  3.98893e-06     -42.4757 
          20      2.92453 -0.000103118  4.13246e-06     -42.4756 
          20            3  -0.00010135   4.5581e-06     -42.4756 
          40            0 -1.50858e-19 -2.81229e-24     -41.4981 
          40      0.00048  -1.4163e-05 -2.36224e-10     -41.4981 
          40     0.001922 -5.06329e-05 -4.95458e-10     -41.4981 
          40     0.004326  -9.4193e-05  5.35509e-10     -41.4981 
          40      0.00769 -0.000128135  4.92152e-09     -41.4981 
          40     0.012017 -0.000142802  1.53405e-08     -41.4981 
          40     0.017304 -0.000140206  3.49136e-08     -41.4981 
          40     0.023553 -0.000131936  6.70988e-08     -41.4981 
          40     0.030763 -0.000130486   1.1556e-07     -41.4981 
          40     0.038936 -0.000139138  1.84091e-07     -41.4981 
          40     0.048069 -0.000148798  2.76388e-07     -41.4981 
          40     0.058163 -0.000148785  3.95868e-07     -41.4981 
          40     0.069219   -0.0001466  5.45363e-07     -41.4981 
          40     0.081236 -0.000161899  7.27014e-07     -41.4981 
          40     0.094215 -0.000160779  9.42605e-07     -41.4981 
          40     0.108155 -0.000168835  1.19237e-06      -41.498 
          40     0.123056 -0.000174574  1.47617e-06      -41.498 
          40     0.138918 -0.000180032  1.79278e-06      -41.498 
          40     0.155744 -0.000185959  2.14024e-06      -41.498 
          40     0.173529 -0.000192079  2.51571e-06      -41.498 
          40     0.192276 -0.000197727  2.91592e-06      -41.498 
          40     0.211984 -0.000202634  3.33709e-06      -41.498 
          40     0.232655 -0.000207315  3.77526e-06      -41.498 
          40     0.254285 -0.000212079  4.22635e-06      -41.498 
          40     0.276877 -0.000215544  4.68668e-06      -41.498 
          40     0.300431 -0.000218915  5.15242e-06      -41.498 
          40     0.324946 -0.000221646  5.62055e-06      -41.498 
          40     0.350424 -0.000223819  6.08866e-06      -41.498 
          40     0.376861 -0.000225488  6.55481e-06      -41.498 
          40      0.40426 -0.000226692  7.01773e-06      -41.498 
          40     0.432621 -0.000227454   7.4768e-06      -41.498 
          40     0.461945 -0.000227792  7.93208e-06      -41.498 
          40     0.492228  -0.00022773  8.38419e-06      -41.498 
          40     0.523472 -0.000227304  8.83433e-06      -41.498 
          40     0.555678  -0.00022655  9.28404e-06      -41.498 
          40     0.588845  -0.00022549  9.73483e-06      -41.498 
          40     0.622976 -0.000224082  1.01877e-05      -41.498 
          40     0.658066 -0.000222395   1.0643e-05      -41.498 
          40     0.694117 -0.000220412  1.11056e-05      -41.498 
          40      0.73113 -0.000218145  1.15743e-05      -41.498 
          40     0.769107 -0.000215617  1.20479e-05      -41.498 
          40     0.808042 -0.000212861   1.2525e-05      -41.498 
          40     0.847939 -0.000209916  1.30044e-05      -41.498 
          40     0.888797 -0.000206829  1.34841e-05      -41.498 
          40      0.93062 -0.000203651  1.39619e-05      -41.498 
          40       0.9734 -0.000200435   1.4435e-05      -41.498 
          40      1.01714 -0.000197233  1.49001e-05      -41.498 
          40      1.06185 -0.000194096  1.53533e-05      -41.498 
          40      1.10751 -0.000191066  1.57906e-05      -41.498 
          40      1.15414 -0.000188176  1.62086e-05      -41.498 
          40      1.20173 -0.000185449  1.66048e-05      -41.498 
          40      1.25028 -0.000182893  1.69791e-05      -41.498 
          40      1.29979 -0.000180501  1.73357e-05      -41.498 
          40      1.35026 -0.000178196  1.76677e-05      -41.498 
          40       1.4017 -0.000175515  1.79447e-05     -41.4979 
          40      1.45409 -0.000172485  1.81886e-05     -41.4979 
          40      1.50745  -0.00016924  1.84051e-05     -41.4979 
          40      1.56176 -0.000165897  1.85967e-05     -41.4979 
          40      1.61705 -0.000162556   1.8763e-05     -41.4979 
          40      1.67329 -0.000159295  1.89016e-05     -41.4979 
          40      1.73049 -0.000156173  1.90087e-05     -41.4979 
          40      1.78865 -0.000153227  1.90799e-05     -41.4979 
          40      1.84778 -0.000150476   1.9111e-05     -41.4979 
          40      1.90786 -0.000147918  1.90989e-05     -41.4979 
          40      1.96891 -0.000145536  1.90421e-05     -41.4978 
          40      2.03092   -0.0001433  1.89413e-05     -41.4978 
          40      2.09389 -0.000141167  1.87996e-05     -41.4978 
          40      2.15782  -0.00013909   1.8623e-05     -41.4978 
          40      2.22272 -0.000137021  1.84188e-05     -41.4978 
          40      2.28857 -0.000134921  1.81956e-05     -41.4978 
          40      2.35539  -0.00013276  1.79606e-05     -41.4977 
          40      2.42317 -0.000130533  1.77175e-05     -41.4977 
          40      2.49191 -0.000128268  1.74618e-05     -41.4977 
          40      2.56161 -0.000126034  1.71762e-05     -41.4977 
          40      2.63226 -0.000123955  1.68234e-05     -41.4977 
          40      2.70389 -0.000122222   1.6337e-05     -41.4976 
          40      2.77648  -0.00012111  1.58059e-05     -41.4976 
          40      2.85002   -0.0001204  1.53114e-05     -41.4976 
          40      2.92453 -0.000119962  1.45819e-05     -41.4976 
          40            3 -0.000119818  1.36888e-05     -41.4976 
          60            0            0            0     -40.5636 
          60      0.00048 -1.34089e-05 -1.35636e-10     -40.5636 
          60     0.001922 -4.78389e-05 -9.29248e-11     -40.5636 
          60     0.004326 -8.86411e-05  1.45556e-09     -40.5636 
          60      0.00769 -0.000119742  6.64321e-09     -40.5636 
          60     0.012017 -0.000131871  1.83264e-08     -40.5636 
          60     0.017304 -0.000127023  3.99646e-08     -40.5636 
          60     0.023553 -0.000116425  7.55558e-08     -40.5636 
          60     0.030763 -0.000112191  1.29526e-07     -40.5636 
          60     0.038936 -0.000117561  2.06665e-07     -40.5636 
          60     0.048069 -0.000123848  3.11915e-07     -40.5636 
          60     0.058163 -0.000120841  4.50234e-07     -40.5636 
          60     0.069219 -0.000115852   6.2632e-07     -40.5636 
          60     0.081236 -0.000127904  8.44453e-07     -40.5636 
          60     0.094215 -0.000124393  1.10865e-06     -40.5636 
          60     0.108155  -0.00013005  1.42175e-06     -40.5636 
          60     0.123056 -0.000133853  1.78616e-06     -40.5636 
          60     0.138918 -0.000137799  2.20325e-06     -40.5636 
          60     0.155744 -0.000142635  2.67359e-06     -40.5636 
          60     0.173529 -0.000148102   3.1966e-06     -40.5636 
          60     0.192276 -0.000153548  3.77108e-06     -40.5636 
          60     0.211984 -0.000158691  4.39495e-06     -40.5636 
          60     0.232655 -0.000163989  5.06563e-06     -40.5636 
          60     0.254285 -0.000169691  5.77987e-06     -40.5636 
          60     0.276877  -0.00017441  6.53432e-06     -40.5636 
          60     0.300431 -0.000179245  7.32559e-06     -40.5636 
          60     0.324946 -0.000183606  8.15016e-06     -40.5636 
          60     0.350424 -0.000187507  9.00478e-06     -40.5636 
          60     0.376861 -0.000190943  9.88637e-06     -40.5636 
          60      0.40426 -0.000193893  1.07926e-05     -40.5636 
          60     0.432621 -0.000196333  1.17215e-05     -40.5636 
          60     0.461945  -0.00019824  1.26715e-05     -40.5636 
          60     0.492228 -0.000199608  1.36413e-05     -40.5636 
          60     0.523472 -0.000200447  1.46302e-05     -40.5636 
          60     0.555678 -0.000200781  1.56374e-05     -40.5636 
          60     0.588845 -0.000200626  1.66628e-05     -40.5636 
          60     0.622976 -0.000199945  1.77066e-05     -40.5636 
          60     0.658066 -0.000198817  1.87667e-05     -40.5636 
          60     0.694117 -0.000197244   1.9843e-05     -40.5636 
          60      0.73113 -0.000195256   2.0934e-05     -40.5636 
          60     0.769107 -0.000192899  2.20376e-05     -40.5636 
          60     0.808042 -0.000190231  2.31506e-05     -40.5636 
          60     0.847939 -0.000187317  2.42694e-05     -40.5636 
          60     0.888797 -0.000184233  2.53897e-05     -40.5636 
          60      0.93062 -0.000181055   2.6507e-05     -40.5636 
          60       0.9734 -0.000177862  2.76158e-05     -40.5636 
          60      1.01714 -0.000174731  2.87109e-05     -40.5636 
          60      1.06185 -0.000171731   2.9787e-05     -40.5636 
          60      1.10751 -0.000168924  3.08386e-05     -40.5636 
          60      1.15414 -0.000166359  3.18608e-05     -40.5635 
          60      1.20173 -0.000164078  3.28487e-05     -40.5635 
          60      1.25028 -0.000162112  3.37981e-05     -40.5635 
          60      1.29979 -0.000160491   3.4705e-05     -40.5635 