Variables = x, y, u, v, p

Zone, I=416, F=POINT
         -50            0            0            0     -65.9186 
         -50     0.013333 -0.000118573 -7.48332e-08     -65.9186 
         -50     0.053333 -0.000114822  -1.5763e-07     -65.9186 
         -50         0.12 -0.000117401 -4.01704e-07     -65.9186 
         -50     0.213332 -0.000117418 -9.85737e-07     -65.9185 
         -50     0.333332 -0.000113413 -2.07379e-06     -65.9185 
         -50         0.48 -0.000108399 -3.70401e-06     -65.9183 
         -50     0.653331 -0.000105565 -5.76611e-06     -65.9181 
         -50     0.853332  -0.00010406 -7.99612e-06     -65.9178 
         -50         1.08 -0.000102582 -1.02161e-05     -65.9173 
         -50      1.33333 -9.98491e-05 -1.21895e-05     -65.9166 
         -50      1.61333 -9.47565e-05 -1.38907e-05     -65.9157 
         -50         1.92 -8.85274e-05 -1.44178e-05     -65.9145 
         -50      2.25333 -9.40553e-05  -1.6985e-05      -65.913 
         -50      2.61333 -9.99152e-05 -1.41826e-05     -65.9111 
         -50            3 -8.80405e-05 -2.31652e-06     -65.9088 
         -25            0 -1.04977e-19 -2.09009e-23     -63.2496 
         -25     0.013333 -8.69681e-05 -3.40982e-08     -63.2496 
         -25     0.053333 -8.39331e-05 -1.40105e-07     -63.2496 
         -25         0.12 -8.14384e-05 -5.42859e-07     -63.2496 
         -25     0.213332 -7.26333e-05 -1.47993e-06     -63.2496 
         -25     0.333332 -5.95593e-05 -3.03006e-06     -63.2496 
         -25         0.48 -4.73487e-05 -5.07246e-06     -63.2495 
         -25     0.653331  -3.9742e-05 -7.41547e-06     -63.2494 
         -25     0.853332 -3.69292e-05 -9.79983e-06     -63.2493 
         -25         1.08 -3.78641e-05 -1.20265e-05     -63.2491 
         -25      1.33333 -4.22249e-05 -1.38316e-05     -63.2488 
         -25      1.61333 -4.97516e-05 -1.52021e-05     -63.2485 
         -25         1.92 -5.81453e-05 -1.56736e-05      -63.248 
         -25      2.25333 -7.02385e-05 -1.62901e-05     -63.2474 
         -25      2.61333 -8.13985e-05 -1.44645e-05     -63.2467 
         -25            3 -7.60551e-05 -6.48679e-06     -63.2458 
           0            0   -8.717e-20 -1.00588e-23     -61.1529 
           0     0.013333 -7.07261e-05 -2.15176e-08     -61.1529 
           0     0.053333 -6.23522e-05 -1.37438e-07     -61.1529 
           0         0.12 -5.32456e-05  -5.4084e-07     -61.1529 
           0     0.213332 -4.08201e-05 -1.36587e-06     -61.1529 
           0     0.333332 -2.79135e-05 -2.58842e-06     -61.1529 
           0         0.48 -1.75406e-05 -4.07141e-06     -61.1529 
           0     0.653331 -1.18345e-05  -5.7144e-06     -61.1528 
           0     0.853332 -1.21989e-05 -7.50244e-06     -61.1528 
           0         1.08 -1.80291e-05 -9.35794e-06     -61.1527 
           0      1.33333 -2.58428e-05 -1.10301e-05     -61.1526 
           0      1.61333 -3.58014e-05 -1.22183e-05     -61.1524 
           0         1.92 -4.42939e-05 -1.29226e-05     -61.1522 
           0      2.25333 -5.14843e-05 -1.30499e-05     -61.1519 
           0      2.61333 -6.20999e-05 -1.44964e-05     -61.1515 
           0            3 -7.94163e-05 -2.05872e-05     -61.1511 
          20            0 -8.18647e-20 -6.01788e-24      -59.676 
          20     0.013333 -6.99725e-05 -1.11927e-08      -59.676 
          20     0.053333 -7.64668e-05   -6.783e-08      -59.676 
          20         0.12 -8.71926e-05 -3.23103e-07      -59.676 
          20     0.213332 -9.39206e-05 -9.95205e-07      -59.676 
          20     0.333332 -9.58485e-05 -2.23309e-06      -59.676 
          20         0.48 -9.62271e-05 -4.03475e-06      -59.676 
          20     0.653331 -9.75971e-05 -6.27272e-06      -59.676 
          20     0.853332  -9.7804e-05 -8.68546e-06      -59.676 
          20         1.08 -9.30717e-05 -1.09106e-05     -59.6759 
          20      1.33333 -8.40757e-05 -1.27285e-05     -59.6758 
          20      1.61333 -7.39308e-05 -1.40253e-05     -59.6757 
          20         1.92 -6.25789e-05 -1.44703e-05     -59.6756 
          20      2.25333 -5.27981e-05 -1.43454e-05     -59.6754 
          20      2.61333 -4.62217e-05 -1.29113e-05     -59.6752 
          20            3 -3.89083e-05 -1.02402e-05     -59.6749 
          40            0 -7.63218e-20 -3.72706e-24     -58.2994 
          40     0.013333 -6.32963e-05 -1.03727e-08     -58.2994 
          40     0.053333 -6.08822e-05 -9.72649e-08     -58.2994 
          40         0.12 -5.73963e-05 -4.64849e-07     -58.2994 
          40     0.213332  -4.8097e-05 -1.33503e-06     -58.2994 
          40     0.333332 -3.64787e-05 -2.73521e-06     -58.2994 
          40         0.48 -2.76564e-05  -4.4659e-06     -58.2994 
          40     0.653331 -2.36549e-05 -6.28089e-06     -58.2994 
          40     0.853332 -2.34068e-05 -7.98656e-06     -58.2994 
          40         1.08 -2.58128e-05 -9.44495e-06     -58.2993 
          40      1.33333 -3.02309e-05 -1.05843e-05     -58.2993 
          40      1.61333 -3.70909e-05 -1.12854e-05     -58.2992 
          40         1.92 -4.48422e-05 -1.14624e-05     -58.2991 
          40      2.25333 -5.18715e-05 -1.09582e-05      -58.299 
          40      2.61333   -5.701e-05 -9.91754e-06     -58.2989 
          40            3 -5.58274e-05 -7.59124e-06     -58.2987 
          60            0            0            0     -56.9847 
          60     0.013333 -6.74166e-05 -1.41868e-08     -56.9847 
          60     0.053333 -7.98772e-05 -1.88773e-07     -56.9847 
          60         0.12 -8.98238e-05 -9.45816e-07     -56.9847 
          60     0.213332 -8.57886e-05 -2.79515e-06     -56.9847 
          60     0.333332 -7.25186e-05 -5.93444e-06     -56.9847 
          60         0.48 -6.10949e-05 -1.01353e-05     -56.9847 
          60     0.653331 -5.74866e-05 -1.49999e-05     -56.9847 
          60     0.853332 -5.91312e-05 -2.00701e-05     -56.9847 
          60         1.08 -5.99877e-05 -2.47956e-05     -56.9847 
          60      1.33333 -5.78323e-05 -2.87725e-05     -56.9846 
          60      1.61333 -5.65975e-05 -3.16608e-05     -56.9846 
          60         1.92 -5.48552e-05 -3.30364e-05     -56.9845 
          60      2.25333 -5.28098e-05 -3.28201e-05     -56.9845 
          60      2.61333 -4.75879e-05  -3.0704e-05     -56.9844 
          60            3 -3.71979e-05  -2.6729e-05     -56.9843 
          80            0            0            0     -55.7091 
          80     0.013333 -7.31009e-05 -2.57391e-09     -55.7091 
          80     0.053333 -0.000105635 -4.94798e-08     -55.7091 
          80         0.12  -0.00014161 -4.52047e-07     -55.7091 
          80     0.213332  -0.00015756 -1.88208e-06     -55.7091 
          80     0.333332 -0.000150467 -4.93102e-06     -55.7091 
          80         0.48 -0.000134337 -9.63742e-06     -55.7091 
          80     0.653331 -0.000122283 -1.55468e-05     -55.7091 
          80     0.853332 -0.000114792 -2.19551e-05     -55.7091 
          80         1.08 -0.000105132 -2.80884e-05     -55.7091 
          80      1.33333 -9.08963e-05 -3.34559e-05     -55.7091 
          80      1.61333  -7.6248e-05 -3.76996e-05      -55.709 
          80         1.92 -6.27085e-05 -4.02288e-05      -55.709 
          80      2.25333 -4.92606e-05 -4.06936e-05      -55.709 
          80      2.61333 -3.37413e-05 -3.93868e-05     -55.7089 
          80            3 -2.38573e-05 -3.69108e-05     -55.7088 
         100            0 -7.56029e-20 -9.72955e-25     -54.4585 
         100     0.013333 -7.23242e-05  2.73426e-08     -54.4585 
         100     0.053333 -0.000112981  3.83058e-07     -54.4585 
         100         0.12  -0.00017604   1.4408e-06     -54.4585 
         100     0.213332 -0.000233721  2.95779e-06     -54.4585 
         100     0.333332 -0.000265275  4.11512e-06     -54.4585 
         100         0.48 -0.000271943  4.30987e-06     -54.4585 
         100     0.653331 -0.000264946  3.67171e-06     -54.4585 
         100     0.853332 -0.000246631  2.85465e-06     -54.4585 
         100         1.08   -0.0002156  2.38655e-06     -54.4585 
         100      1.33333 -0.000178836  2.13831e-06     -54.4585 
         100      1.61333 -0.000135619   1.7879e-06     -54.4585 
         100         1.92 -9.26195e-05  1.51398e-06     -54.4584 
         100      2.25333 -5.64602e-05  1.13856e-06     -54.4584 
         100      2.61333 -2.47954e-05   6.6521e-07     -54.4584 
         100            3 -1.16699e-05 -3.90405e-07     -54.4583 
         150            0           -0           -0     -51.3906 
         150     0.013333 -7.86268e-05 -7.57465e-09     -51.3906 
         150     0.053333 -0.000128889 -1.57039e-07     -51.3906 
         150         0.12 -0.000181591 -1.00678e-06     -51.3906 
         150     0.213332  -0.00020597 -3.52056e-06     -51.3906 
         150     0.333332 -0.000200874  -8.3943e-06     -51.3906 
         150         0.48 -0.000186695 -1.55287e-05     -51.3906 
         150     0.653331 -0.000179822 -2.42445e-05     -51.3906 
         150     0.853332 -0.000178083  -3.3579e-05     -51.3905 
         150         1.08 -0.000168016 -4.23975e-05     -51.3905 
         150      1.33333 -0.000144294 -4.99658e-05     -51.3905 
         150      1.61333 -0.000116745 -5.59774e-05     -51.3905 
         150         1.92 -9.00027e-05 -5.96199e-05     -51.3905 
         150      2.25333 -6.68806e-05 -6.08629e-05     -51.3905 
         150      2.61333 -4.68226e-05 -5.94035e-05     -51.3905 
         150            3 -3.11216e-05 -5.53665e-05     -51.3905 
         200            0           -0           -0     -48.3593 
         200     0.013333 -8.35244e-05 -2.00778e-08     -48.3593 
         200     0.053333 -0.000144529 -3.42474e-07     -48.3593 
         200         0.12 -0.000203865 -1.81411e-06     -48.3593 
         200     0.213332 -0.000225113 -5.63274e-06     -48.3593 
         200     0.333332 -0.000208129 -1.25979e-05     -48.3593 
         200         0.48 -0.000178697 -2.26531e-05     -48.3593 
         200     0.653331 -0.000160759 -3.51968e-05     -48.3593 
         200     0.853332 -0.000159389 -4.93989e-05     -48.3593 
         200         1.08 -0.000160308 -6.40182e-05     -48.3593 
         200      1.33333 -0.000145279 -7.76454e-05     -48.3593 
         200      1.61333 -0.000121794 -8.92043e-05     -48.3593 
         200         1.92 -9.55434e-05 -9.75222e-05     -48.3593 
         200      2.25333 -6.89774e-05 -0.000102187     -48.3593 
         200      2.61333 -4.70109e-05 -0.000102717     -48.3593 
         200            3 -3.26713e-05 -9.94123e-05     -48.3593 
         250            0            0            0     -45.3399 
         250     0.013333  -8.6677e-05  2.49295e-08     -45.3399 
         250     0.053333 -0.000167244  3.09161e-07     -45.3399 
         250         0.12 -0.000274958  9.73197e-07     -45.3399 
         250     0.213332 -0.000362493  1.32393e-06     -45.3399 
         250     0.333332 -0.000401953  1.38991e-07     -45.3399 
         250         0.48 -0.000402432 -3.30704e-06     -45.3399 
         250     0.653331 -0.000388784 -8.72969e-06     -45.3399 
         250     0.853332 -0.000369863 -1.50644e-05     -45.3399 
         250         1.08 -0.000336626 -2.10601e-05     -45.3399 
         250      1.33333 -0.000286386    -2.62e-05     -45.3399 
         250      1.61333 -0.000225994 -3.06309e-05     -45.3399 
         250         1.92 -0.000162772 -3.39148e-05     -45.3399 
         250      2.25333 -0.000101242 -3.60311e-05     -45.3399 
         250      2.61333 -3.97939e-05 -3.66472e-05     -45.3399 
         250            3  4.59793e-06 -3.57708e-05     -45.3399 
         300            0           -0           -0     -42.3233 
         300     0.013333 -3.05294e-05 -1.61155e-08     -42.3233 
         300     0.053333  4.23581e-05 -2.06524e-07     -42.3233 
         300         0.12  0.000131989 -6.85203e-07     -42.3233 
         300     0.213332  0.000205076 -1.00116e-06     -42.3233 
         300     0.333332  0.000236923 -1.71197e-07     -42.3233 
         300         0.48  0.000231179   2.5964e-06     -42.3233 
         300     0.653331  0.000208646  7.33963e-06     -42.3233 
         300     0.853332  0.000184159  1.35021e-05     -42.3233 
         300         1.08  0.000159281  2.04425e-05     -42.3233 
         300      1.33333  0.000129477  2.77035e-05     -42.3233 
         300      1.61333  9.08639e-05  3.47516e-05     -42.3233 
         300         1.92  4.57103e-05  4.08596e-05     -42.3233 
         300      2.25333 -1.03553e-06  4.57224e-05     -42.3233 
         300      2.61333 -4.66097e-05  4.88716e-05     -42.3233 
         300            3 -8.19829e-05  5.01159e-05     -42.3233 
         350            0 -7.62167e-20  1.83486e-27     -39.3076 
         350     0.013333 -7.58134e-05 -2.12331e-08     -39.3076 
         350     0.053333 -0.000117804 -3.38401e-07     -39.3076 
         350         0.12  -0.00015839 -1.65226e-06     -39.3076 
         350     0.213332 -0.000172574 -4.79038e-06     -39.3076 
         350     0.333332 -0.000161586 -1.01943e-05     -39.3076 
         350         0.48  -0.00014282 -1.77406e-05     -39.3076 
         350     0.653331   -0.0001319 -2.70546e-05     -39.3076 
         350     0.853332 -0.000134038 -3.77806e-05     -39.3076 
         350         1.08 -0.000142945 -4.93636e-05     -39.3076 
         350      1.33333 -0.000142704 -6.07763e-05     -39.3076 
         350      1.61333 -0.000130695 -7.08867e-05     -39.3076 
         350         1.92 -0.000113492 -7.89639e-05     -39.3076 
         350      2.25333 -9.40168e-05 -8.45944e-05     -39.3076 
         350      2.61333 -7.43745e-05 -8.72525e-05     -39.3076 
         350            3 -5.63802e-05 -8.67111e-05     -39.3076 
         400            0           -0           -0     -36.2917 
         400     0.013333 -6.52778e-05  2.66725e-08     -36.2917 
         400     0.053333 -9.24934e-05  3.77419e-07     -36.2917 
         400         0.12 -0.000144222   1.5474e-06     -36.2917 
         400     0.213332 -0.000201435  3.62206e-06     -36.2917 
         400     0.333332 -0.000241073  6.06539e-06     -36.2917 
         400         0.48 -0.000254928  8.24334e-06     -36.2917 
         400     0.653331 -0.000250505  1.00274e-05     -36.2917 
         400     0.853332 -0.000234767  1.17829e-05     -36.2917 
         400         1.08 -0.000209847   1.3834e-05     -36.2917 
         400      1.33333 -0.000181045  1.60024e-05     -36.2917 
         400      1.61333 -0.000151413  1.78736e-05     -36.2916 
         400         1.92 -0.000121802  1.92917e-05     -36.2916 
         400      2.25333 -9.28429e-05  2.01605e-05     -36.2916 
         400      2.61333  -6.3339e-05  2.03341e-05     -36.2916 
         400            3 -4.06613e-05  1.98434e-05     -36.2916 
         450            0           -0           -0     -33.2749 
         450     0.013333 -4.68362e-05  7.39253e-08     -33.2749 
         450     0.053333 -4.24812e-05  1.12577e-06     -33.2749 
         450         0.12 -9.88473e-05  5.16392e-06     -33.2749 
         450     0.213332 -0.000220063  1.39213e-05     -33.2749 
         450     0.333332 -0.000352751  2.73389e-05     -33.2749 
         450         0.48 -0.000436934  4.36989e-05     -33.2749 
         450     0.653331 -0.000454916  6.12757e-05     -33.2749 
         450     0.853332 -0.000422886  7.92984e-05     -33.2749 
         450         1.08 -0.000367494  9.72205e-05     -33.2749 
         450      1.33333 -0.000316254  0.000113888     -33.2749 
         450      1.61333 -0.000268951  0.000128136     -33.2749 
         450         1.92 -0.000218221  0.000139343     -33.2749 
         450      2.25333  -0.00016444  0.000146886     -33.2749 
         450      2.61333 -0.000104979  0.000149958     -33.2749 
         450            3 -5.46773e-05  0.000148127     -33.2749 
         500            0           -0           -0     -30.2562 
         500     0.013333 -4.03453e-06 -1.18986e-07     -30.2562 
         500     0.053333  0.000167923 -1.69469e-06     -30.2562 
         500         0.12   0.00044685 -7.04162e-06     -30.2562 
         500     0.213332  0.000760263 -1.68751e-05     -30.2562 
         500     0.333332   0.00100175 -2.92096e-05     -30.2562 
         500         0.48     0.001121 -4.11481e-05     -30.2562 
         500     0.653331   0.00114233 -5.13714e-05     -30.2562 
         500     0.853332   0.00110305 -6.08183e-05     -30.2562 
         500         1.08   0.00100844 -7.14352e-05     -30.2562 
         500      1.33333  0.000861769  -8.3897e-05     -30.2562 
         500      1.61333  0.000687383  -9.6596e-05     -30.2563 
         500         1.92  0.000511211  -0.00010782     -30.2563 
         500      2.25333  0.000333198 -0.000116449     -30.2563 
         500      2.61333  0.000141221 -0.000121889     -30.2563 
         500            3 -3.04515e-05 -0.000123677     -30.2563 
         550            0           -0           -0     -27.2372 
         550     0.013333  -0.00010032  7.14064e-08     -27.2372 
         550     0.053333 -0.000229201  9.90204e-07     -27.2372 
         550         0.12 -0.000428627  3.93252e-06     -27.2372 
         550     0.213332 -0.000630657   8.8154e-06     -27.2372 
         550     0.333332 -0.000763806  1.39177e-05     -27.2372 
         550         0.48 -0.000809199  1.74101e-05     -27.2372 
         550     0.653331 -0.000798045  1.89297e-05     -27.2372 
         550     0.853332 -0.000759508  1.96529e-05     -27.2372 
         550         1.08 -0.000693651  2.12686e-05     -27.2372 
         550      1.33333 -0.000595988  2.46039e-05     -27.2372 
         550      1.61333 -0.000481681  2.89739e-05     -27.2372 
         550         1.92 -0.000371345  3.33089e-05     -27.2372 
         550      2.25333  -0.00026465  3.69811e-05     -27.2371 
         550      2.61333 -0.000151394  3.97516e-05     -27.2371 
         550            3 -4.77791e-05   4.1543e-05     -27.2371 
         600            0           -0           -0     -24.2157 
         600     0.013333   4.8783e-05  -5.2838e-08     -24.2157 
         600     0.053333   0.00033742 -6.47065e-07     -24.2157 
         600         0.12  0.000702031 -1.93339e-06     -24.2157 
         600     0.213332  0.000998271 -1.97188e-06     -24.2157 
         600     0.333332   0.00112526  2.83361e-06     -24.2157 
         600         0.48   0.00109799  1.50528e-05     -24.2157 
         600     0.653331   0.00100539  3.44011e-05     -24.2157 
         600     0.853332  0.000913933  5.83336e-05     -24.2157 
         600         1.08  0.000824296  8.35761e-05     -24.2157 
         600      1.33333  0.000708186  0.000107628     -24.2157 
         600      1.61333  0.000567823  0.000129656     -24.2157 
         600         1.92  0.000423283  0.000149422     -24.2157 
         600      2.25333  0.000275855   0.00016643     -24.2157 
         600      2.61333  0.000120293  0.000179294     -24.2157 
         600            3 -2.95595e-05  0.000186868     -24.2157 
         650            0            0            0     -21.1943 
         650     0.013333 -0.000183138  1.27814e-07     -21.1943 
         650     0.053333 -0.000545563  1.75048e-06     -21.1943 
         650         0.12  -0.00107158  6.77674e-06     -21.1943 
         650     0.213332   -0.0015877   1.4466e-05     -21.1943 
         650     0.333332  -0.00192313  2.07533e-05     -21.1943 
         650         0.48   -0.0020337  2.13426e-05     -21.1943 
         650     0.653331  -0.00199936   1.4996e-05     -21.1943 
         650     0.853332  -0.00190809  3.89567e-06     -21.1943 
         650         1.08  -0.00177609  -8.1355e-06     -21.1943 
         650      1.33333  -0.00157915 -1.80948e-05     -21.1943 
         650      1.61333  -0.00132749 -2.56182e-05     -21.1943 
         650         1.92  -0.00106266 -3.18025e-05     -21.1943 
         650      2.25333 -0.000791786 -3.74115e-05     -21.1943 
         650      2.61333 -0.000499982 -4.20029e-05     -21.1943 
         650            3 -0.000214938 -4.50445e-05     -21.1943 
         700            0           -0           -0     -18.1698 
         700     0.013333  7.37723e-06 -1.86075e-07     -18.1698 
         700     0.053333  0.000232006 -2.69038e-06     -18.1698 
         700         0.12  0.000629527 -1.14568e-05     -18.1698 
         700     0.213332   0.00111191 -2.83685e-05     -18.1698 
         700     0.333332   0.00151128 -5.10375e-05     -18.1698 
         700         0.48   0.00172155 -7.49574e-05     -18.1698 
         700     0.653331   0.00175988  -9.7504e-05     -18.1698 
         700     0.853332    0.0016896 -0.000119529     -18.1698 
         700         1.08   0.00153716 -0.000143657     -18.1698 
         700      1.33333   0.00131442 -0.000171002     -18.1698 
         700      1.61333   0.00106421 -0.000199321     -18.1698 
         700         1.92  0.000830279 -0.000225334     -18.1698 
         700      2.25333   0.00060268 -0.000246956     -18.1698 
         700      2.61333  0.000354054 -0.000263026     -18.1698 
         700            3  0.000110548 -0.000272345     -18.1699 
         750            0           -0           -0      -15.146 
         750     0.013333 -5.98985e-05  2.15531e-07      -15.146 
         750     0.053333 -0.000132199  3.21399e-06      -15.146 
         750         0.12  -0.00039093  1.43666e-05      -15.146 
         750     0.213332 -0.000825972  3.78562e-05      -15.146 
         750     0.333332  -0.00127933  7.31493e-05      -15.146 
         750         0.48  -0.00158466  0.000115785      -15.146 
         750     0.653331  -0.00169308  0.000161593      -15.146 
         750     0.853332  -0.00164426  0.000209555      -15.146 
         750         1.08  -0.00148283  0.000260641      -15.146 
         750      1.33333  -0.00125704  0.000314267      -15.146 
         750      1.61333  -0.00103035  0.000366641      -15.146 
         750         1.92 -0.000836217  0.000413657      -15.146 
         750      2.25333 -0.000649208  0.000452872      -15.146 
         750      2.61333 -0.000439044  0.000482258      -15.146 
         750            3  -0.00023005  0.000499411      -15.146 
         800            0            0            0     -12.1197 
         800     0.013333 -0.000190322 -1.59582e-07     -12.1197 
         800     0.053333 -0.000483693 -2.52815e-06     -12.1197 
         800         0.12 -0.000711694 -1.23173e-05     -12.1197 
         800     0.213332  -0.00069619 -3.58347e-05     -12.1197 
         800     0.333332 -0.000455009 -7.66643e-05     -12.1197 
         800         0.48 -0.000152611 -0.000133646     -12.1197 
         800     0.653331  5.78079e-05 -0.000202895     -12.1197 
         800     0.853332   0.00011905 -0.000281047     -12.1197 
         800         1.08  5.40896e-05 -0.000365616     -12.1197 
         800      1.33333 -5.32283e-05 -0.000452705     -12.1197 
         800      1.61333 -0.000113818 -0.000536454     -12.1197 
         800         1.92 -0.000112253 -0.000612185     -12.1197 
         800      2.25333 -9.16137e-05 -0.000677343     -12.1197 
         800      2.61333 -8.00274e-05 -0.000728727     -12.1197 
         800            3 -6.41215e-05  -0.00076235     -12.1197 
         850            0            0            0     -9.09197 
         850     0.013333  6.14986e-05 -2.66924e-08     -9.09197 
         850     0.053333  0.000381409 -2.70299e-07     -9.09197 
         850         0.12  0.000781392 -3.51437e-07     -9.09197 
         850     0.213332   0.00111407  1.82506e-06     -9.09197 
         850     0.333332   0.00128432  9.35399e-06     -9.09197 
         850         0.48   0.00130695  2.41812e-05     -9.09197 
         850     0.653331   0.00126536   4.6013e-05     -9.09197 
         850     0.853332   0.00122885  7.29648e-05     -9.09197 
         850         1.08   0.00120391  0.000102241     -9.09197 
         850      1.33333   0.00114055   0.00013034     -9.09197 
         850      1.61333   0.00100098  0.000154393     -9.09197 
         850         1.92  0.000817484  0.000174028     -9.09197 
         850      2.25333  0.000628511  0.000190148     -9.09198 
         850      2.61333  0.000432517  0.000202338     -9.09198 
         850            3  0.000229563  0.000209471       -9.092 
         900            0            0            0     -6.06344 
         900     0.013333 -6.21794e-05  4.69007e-08     -6.06344 
         900     0.053333 -8.58862e-05  6.81899e-07     -6.06344 
         900         0.12 -0.000151855   2.9439e-06     -6.06344 
         900     0.213332 -0.000248379  7.47318e-06     -6.06344 
         900     0.333332 -0.000341017  1.39746e-05     -6.06344 
         900         0.48 -0.000401955  2.16103e-05     -6.06344 
         900     0.653331 -0.000428779  2.98038e-05     -6.06344 
         900     0.853332 -0.000431371   3.8648e-05     -6.06344 
         900         1.08 -0.000411706  4.87673e-05     -6.06344 
         900      1.33333  -0.00036428  6.07481e-05     -6.06344 
         900      1.61333  -0.00029713  7.42465e-05     -6.06344 
         900         1.92 -0.000236071  8.78112e-05     -6.06344 
         900      2.25333 -0.000187529    0.0001001     -6.06344 
         900      2.61333 -0.000139128  0.000110476     -6.06344 
         900            3  -9.0717e-05  0.000118398     -6.06344 
         950            0            0            0     -3.03237 
         950     0.013333 -6.41445e-05 -7.09203e-09     -3.03237 
         950     0.053333 -7.70455e-05 -1.11799e-07     -3.03237 
         950         0.12 -9.26889e-05 -5.38557e-07     -3.03237 
         950     0.213332 -0.000100019 -1.54819e-06     -3.03237 
         950     0.333332 -9.76008e-05 -3.28276e-06     -3.03237 
         950         0.48 -9.06459e-05 -5.70403e-06     -3.03237 
         950     0.653331 -8.51049e-05 -8.68827e-06     -3.03237 
         950     0.853332 -8.37824e-05 -1.21532e-05     -3.03237 
         950         1.08 -8.73153e-05 -1.60695e-05     -3.03237 
         950      1.33333 -9.38185e-05  -2.0329e-05     -3.03237 
         950      1.61333 -9.77815e-05 -2.46025e-05     -3.03237 
         950         1.92  -9.4597e-05 -2.84755e-05     -3.03237 
         950      2.25333 -8.69002e-05 -3.17527e-05     -3.03237 
         950      2.61333  -7.8634e-05 -3.43629e-05     -3.03237 
         950            3 -6.98682e-05 -3.61739e-05     -3.03237 
        1000            0            0            0            0 
        1000     0.013333  -5.6049e-05  6.51651e-08           -0 
        1000     0.053333 -5.08138e-05  2.87481e-07           -0 
        1000         0.12 -4.81815e-05  8.04697e-07 -2.52183e-16 
        1000     0.213332 -4.48359e-05  1.73198e-06 -2.99669e-15 
        1000     0.333332 -4.61496e-05  4.06373e-06 -1.65527e-15 
        1000         0.48 -3.84187e-05   5.9099e-06           -0 
        1000     0.653331 -3.99967e-05  5.54354e-06            0 
        1000     0.853332 -4.04887e-05  9.93921e-06            0 
        1000         1.08  -3.1036e-05  1.32685e-05            0 
        1000      1.33333  4.63746e-06  1.08544e-05 -1.60922e-15 
        1000      1.61333 -2.64071e-05 -2.40407e-06           -0 
        1000         1.92 -3.33635e-05  3.65492e-07 -3.30286e-15 
        1000      2.25333 -3.13737e-05  1.53411e-06 -3.50541e-15 
        1000      2.61333 -2.59975e-05 -3.85835e-06           -0 
        1000            3 -4.12346e-05  -4.4133e-06 -3.44934e-15 
