Variables = x, y, u, v, p

Zone, I=2080, F=POINT
         -50            0            0            0     -111.992 
         -50      0.00048 -4.58329e-05 -9.38105e-09     -111.992 
         -50     0.001922 -0.000162223  -3.5174e-08     -111.992 
         -50     0.004326  -0.00029625 -7.13771e-08     -111.992 
         -50      0.00769 -0.000391062 -1.11326e-07     -111.992 
         -50     0.012017 -0.000416296 -1.51098e-07     -111.992 
         -50     0.017304 -0.000383696 -1.91311e-07     -111.992 
         -50     0.023553 -0.000337589 -2.36544e-07     -111.992 
         -50     0.030763   -0.0003218 -2.92043e-07     -111.992 
         -50     0.038936 -0.000342802 -3.59827e-07     -111.992 
         -50     0.048069 -0.000361076 -4.37065e-07     -111.992 
         -50     0.058163 -0.000336024 -5.19589e-07     -111.992 
         -50     0.069219 -0.000302136 -6.08565e-07     -111.992 
         -50     0.081236 -0.000337165 -7.07676e-07     -111.992 
         -50     0.094215 -0.000300836 -8.00854e-07     -111.992 
         -50     0.108155 -0.000303638  -8.9754e-07     -111.992 
         -50     0.123056 -0.000295797 -9.88523e-07     -111.992 
         -50     0.138918 -0.000286892  -1.0707e-06     -111.992 
         -50     0.155744 -0.000280779 -1.14029e-06     -111.992 
         -50     0.173529 -0.000276711 -1.19307e-06     -111.992 
         -50     0.192276 -0.000272176 -1.22478e-06     -111.992 
         -50     0.211984 -0.000266382 -1.23152e-06     -111.992 
         -50     0.232655 -0.000261976 -1.21004e-06     -111.992 
         -50     0.254285 -0.000260614 -1.15744e-06     -111.992 
         -50     0.276877 -0.000256281 -1.07116e-06     -111.992 
         -50     0.300431 -0.000254397 -9.49315e-07     -111.992 
         -50     0.324946 -0.000252501 -7.90787e-07     -111.992 
         -50     0.350424 -0.000250838 -5.95484e-07     -111.992 
         -50     0.376861 -0.000249505 -3.63367e-07     -111.992 
         -50      0.40426 -0.000248482 -9.46432e-08     -111.992 
         -50     0.432621  -0.00024768  2.09792e-07     -111.992 
         -50     0.461945    -0.000247  5.48045e-07     -111.992 
         -50     0.492228 -0.000246389  9.16922e-07     -111.992 
         -50     0.523472 -0.000245876  1.31212e-06     -111.992 
         -50     0.555678 -0.000245555  1.72873e-06     -111.992 
         -50     0.588845  -0.00024548  2.16257e-06     -111.992 
         -50     0.622976 -0.000245447  2.61316e-06     -111.992 
         -50     0.658066 -0.000245748  3.07203e-06     -111.991 
         -50     0.694117 -0.000246317  3.52684e-06     -111.991 
         -50      0.73113 -0.000247194    3.983e-06     -111.991 
         -50     0.769107 -0.000248412  4.44115e-06     -111.991 
         -50     0.808042 -0.000249999  4.89793e-06     -111.991 
         -50     0.847939 -0.000251971   5.3475e-06     -111.991 
         -50     0.888797  -0.00025434   5.7827e-06     -111.991 
         -50      0.93062 -0.000257105   6.1967e-06     -111.991 
         -50       0.9734 -0.000260261  6.58421e-06     -111.991 
         -50      1.01714 -0.000263792  6.94277e-06      -111.99 
         -50      1.06185 -0.000267679  7.27289e-06      -111.99 
         -50      1.10751   -0.0002719   7.5774e-06      -111.99 
         -50      1.15414 -0.000276433  7.85913e-06      -111.99 
         -50      1.20173 -0.000281263  8.11633e-06      -111.99 
         -50      1.25028 -0.000286385  8.33533e-06     -111.989 
         -50      1.29979 -0.000291816  8.47925e-06     -111.989 
         -50      1.35026 -0.000297509  8.57431e-06     -111.989 
         -50       1.4017 -0.000303505  8.69526e-06     -111.989 
         -50      1.45409 -0.000309733  8.73918e-06     -111.988 
         -50      1.50745  -0.00031595  8.73059e-06     -111.988 
         -50      1.56176 -0.000321983  8.68419e-06     -111.988 
         -50      1.61705 -0.000327727  8.60605e-06     -111.987 
         -50      1.67329 -0.000333132  8.49508e-06     -111.987 
         -50      1.73049   -0.0003382  8.34486e-06     -111.987 
         -50      1.78865 -0.000342971  8.14573e-06     -111.986 
         -50      1.84778 -0.000347509  7.88702e-06     -111.986 
         -50      1.90786 -0.000351887   7.5596e-06     -111.986 
         -50      1.96891 -0.000356174  7.15806e-06     -111.985 
         -50      2.03092 -0.000360425  6.68314e-06     -111.985 
         -50      2.09389 -0.000364661  6.14353e-06     -111.984 
         -50      2.15782 -0.000368864  5.55752e-06     -111.984 
         -50      2.22272 -0.000372969  4.95338e-06     -111.983 
         -50      2.28857 -0.000376866  4.36926e-06     -111.983 
         -50      2.35539 -0.000380402  3.85136e-06     -111.982 
         -50      2.42317 -0.000383403  3.45058e-06     -111.981 
         -50      2.49191 -0.000385697  3.21703e-06     -111.981 
         -50      2.56161 -0.000387161  3.19173e-06      -111.98 
         -50      2.63226  -0.00038778  3.39546e-06     -111.979 
         -50      2.70389 -0.000387729  3.81369e-06     -111.979 
         -50      2.77648 -0.000387587    4.407e-06     -111.978 
         -50      2.85002 -0.000387309  5.07496e-06     -111.977 
         -50      2.92453 -0.000386717  5.76432e-06     -111.976 
         -50            3 -0.000386058  6.46191e-06     -111.976 
         -25            0 -3.57878e-19 -3.84749e-23     -107.447 
         -25      0.00048 -3.34975e-05 -3.66752e-09     -107.447 
         -25     0.001922 -0.000118614 -1.37558e-08     -107.447 
         -25     0.004326   -0.0002168 -2.79348e-08     -107.447 
         -25      0.00769 -0.000286636  -4.3636e-08     -107.447 
         -25     0.012017 -0.000305986  -5.9396e-08     -107.447 
         -25     0.017304 -0.000283375 -7.55784e-08     -107.447 
         -25     0.023553 -0.000251047  -9.4168e-08     -107.447 
         -25     0.030763 -0.000240881 -1.17505e-07     -107.447 
         -25     0.038936  -0.00025754 -1.46779e-07     -107.447 
         -25     0.048069  -0.00027219 -1.81412e-07     -107.447 
         -25     0.058163 -0.000255209 -2.20431e-07     -107.447 
         -25     0.069219 -0.000231654 -2.65074e-07     -107.447 
         -25     0.081236 -0.000258091 -3.17677e-07     -107.447 
         -25     0.094215 -0.000232305 -3.72946e-07     -107.447 
         -25     0.108155 -0.000234713 -4.35519e-07     -107.447 
         -25     0.123056 -0.000229024 -5.02822e-07     -107.447 
         -25     0.138918 -0.000222185 -5.74562e-07     -107.447 
         -25     0.155744 -0.000216985 -6.50005e-07     -107.447 
         -25     0.173529 -0.000212877 -7.27995e-07     -107.447 
         -25     0.192276 -0.000208039 -8.07168e-07     -107.447 
         -25     0.211984 -0.000201919 -8.86061e-07     -107.447 
         -25     0.232655 -0.000196475 -9.63192e-07     -107.447 
         -25     0.254285 -0.000192958 -1.03673e-06     -107.447 
         -25     0.276877 -0.000187033 -1.10441e-06     -107.447 
         -25     0.300431 -0.000182701 -1.16559e-06     -107.447 
         -25     0.324946 -0.000178223 -1.21773e-06     -107.447 
         -25     0.350424  -0.00017383  -1.2589e-06     -107.447 
         -25     0.376861 -0.000169642  -1.2879e-06     -107.447 
         -25      0.40426 -0.000165688 -1.30408e-06     -107.447 
         -25     0.432621 -0.000161945 -1.30709e-06     -107.447 
         -25     0.461945 -0.000158373 -1.29669e-06     -107.447 
         -25     0.492228 -0.000154965 -1.27261e-06     -107.447 
         -25     0.523472 -0.000151767 -1.23477e-06     -107.447 
         -25     0.555678  -0.00014887 -1.18393e-06     -107.447 
         -25     0.588845 -0.000146337 -1.12319e-06     -107.447 
         -25     0.622976 -0.000144046 -1.05842e-06     -107.447 
         -25     0.658066 -0.000142251 -9.69657e-07     -107.447 
         -25     0.694117 -0.000140901 -8.91216e-07     -107.447 
         -25      0.73113 -0.000140066 -8.15707e-07     -107.447 
         -25     0.769107 -0.000139804  -7.3992e-07     -107.447 
         -25     0.808042 -0.000140158 -6.64105e-07     -107.447 
         -25     0.847939 -0.000141152 -5.90921e-07     -107.447 
         -25     0.888797 -0.000142791 -5.24268e-07     -107.447 
         -25      0.93062 -0.000145061 -4.67979e-07     -107.447 
         -25       0.9734 -0.000147927 -4.24624e-07     -107.447 
         -25      1.01714 -0.000151338  -3.9454e-07     -107.447 
         -25      1.06185 -0.000155226 -3.75458e-07     -107.447 
         -25      1.10751 -0.000159509 -3.62982e-07     -107.446 
         -25      1.15414 -0.000164103  -3.5239e-07     -107.446 
         -25      1.20173 -0.000168924 -3.42248e-07     -107.446 
         -25      1.25028 -0.000173899 -3.40459e-07     -107.446 
         -25      1.29979 -0.000178984 -3.73483e-07     -107.446 
         -25      1.35026 -0.000184154 -4.25746e-07     -107.446 
         -25       1.4017 -0.000189434 -3.98587e-07     -107.446 
         -25      1.45409 -0.000194821  -3.8005e-07     -107.446 
         -25      1.50745 -0.000200259 -3.83993e-07     -107.446 
         -25      1.56176 -0.000205696 -4.17527e-07     -107.446 
         -25      1.61705 -0.000211083 -4.81896e-07     -107.445 
         -25      1.67329 -0.000216375  -5.7358e-07     -107.445 
         -25      1.73049 -0.000221529 -6.85684e-07     -107.445 
         -25      1.78865 -0.000226511  -8.0948e-07     -107.445 
         -25      1.84778 -0.000231291 -9.36121e-07     -107.445 
         -25      1.90786 -0.000235845 -1.05841e-06     -107.445 
         -25      1.96891 -0.000240158 -1.17266e-06     -107.445 
         -25      2.03092 -0.000244223 -1.28043e-06     -107.444 
         -25      2.09389 -0.000248039 -1.39006e-06     -107.444 
         -25      2.15782 -0.000251618 -1.51784e-06     -107.444 
         -25      2.22272 -0.000254979 -1.68884e-06     -107.444 
         -25      2.28857 -0.000258153 -1.93688e-06     -107.444 
         -25      2.35539 -0.000261181 -2.30376e-06     -107.443 
         -25      2.42317 -0.000264118 -2.83724e-06     -107.443 
         -25      2.49191 -0.000267028 -3.58752e-06     -107.443 
         -25      2.56161 -0.000269991 -4.60227e-06     -107.443 
         -25      2.63226 -0.000273101 -5.91924e-06     -107.442 
         -25      2.70389 -0.000276466 -7.55665e-06     -107.442 
         -25      2.77648 -0.000280087 -9.64641e-06     -107.442 
         -25      2.85002 -0.000282659 -1.07149e-05     -107.441 
         -25      2.92453 -0.000284477 -1.15878e-05     -107.441 
         -25            3 -0.000285693 -1.22846e-05     -107.441 
           0            0 -3.03583e-19 -1.84995e-23     -103.877 
           0      0.00048 -2.84284e-05 -1.79433e-09     -103.877 
           0     0.001922 -0.000100815 -7.10896e-09     -103.877 
           0     0.004326  -0.00018481 -1.59324e-08     -103.877 
           0      0.00769 -0.000245633 -2.88546e-08     -103.877 
           0     0.012017 -0.000264645 -4.76928e-08     -103.877 
           0     0.017304  -0.00024888 -7.57718e-08     -103.877 
           0     0.023553 -0.000225242 -1.17787e-07     -103.877 
           0     0.030763 -0.000220317 -1.79087e-07     -103.877 
           0     0.038936 -0.000237883 -2.64878e-07     -103.877 
           0     0.048069 -0.000253646 -3.79731e-07     -103.877 
           0     0.058163 -0.000242662 -5.28174e-07     -103.877 
           0     0.069219  -0.00022583  -7.1576e-07     -103.877 
           0     0.081236 -0.000250474 -9.48331e-07     -103.877 
           0     0.094215 -0.000230869 -1.22772e-06     -103.877 
           0     0.108155 -0.000234377 -1.55998e-06     -103.877 
           0     0.123056 -0.000230575 -1.94706e-06     -103.877 
           0     0.138918 -0.000225301 -2.39127e-06     -103.877 
           0     0.155744 -0.000220933 -2.89402e-06     -103.877 
           0     0.173529 -0.000217068  -3.4555e-06     -103.877 
           0     0.192276 -0.000212254 -4.07526e-06     -103.877 
           0     0.211984 -0.000206111 -4.75198e-06     -103.877 
           0     0.232655  -0.00020037 -5.48386e-06     -103.877 
           0     0.254285 -0.000196171  -6.2683e-06     -103.877 
           0     0.276877 -0.000189972 -7.10242e-06     -103.877 
           0     0.300431 -0.000185211 -7.98362e-06     -103.877 
           0     0.324946 -0.000180509 -8.90867e-06     -103.877 
           0     0.350424 -0.000176124  -9.8747e-06     -103.877 
           0     0.376861 -0.000172218 -1.08789e-05     -103.877 
           0      0.40426 -0.000168861 -1.19192e-05     -103.877 
           0     0.432621 -0.000166065 -1.29935e-05     -103.877 
           0     0.461945 -0.000163817 -1.41001e-05     -103.877 
           0     0.492228 -0.000162114 -1.52373e-05     -103.877 
           0     0.523472 -0.000160983 -1.64035e-05     -103.877 
           0     0.555678 -0.000160473 -1.75971e-05     -103.877 
           0     0.588845 -0.000160594 -1.88169e-05     -103.877 
           0     0.622976 -0.000161178 -2.00619e-05     -103.877 
           0     0.658066  -0.00016236 -2.13277e-05     -103.877 
           0     0.694117 -0.000164016  -2.2612e-05     -103.877 
           0      0.73113 -0.000166093 -2.39119e-05     -103.877 
           0     0.769107 -0.000168525 -2.52236e-05     -103.877 
           0     0.808042 -0.000171237 -2.65424e-05     -103.877 
           0     0.847939 -0.000174152 -2.78631e-05     -103.877 
           0     0.888797 -0.000177193 -2.91802e-05     -103.877 
           0      0.93062 -0.000180285  -3.0488e-05     -103.877 
           0       0.9734 -0.000183367 -3.17803e-05     -103.877 
           0      1.01714 -0.000186387 -3.30518e-05     -103.877 
           0      1.06185 -0.000189311 -3.42972e-05     -103.877 
           0      1.10751 -0.000192121 -3.55118e-05     -103.877 
           0      1.15414 -0.000194813 -3.66912e-05     -103.877 
           0      1.20173 -0.000197387 -3.78309e-05     -103.877 
           0      1.25028 -0.000199838 -3.89261e-05     -103.877 
           0      1.29979 -0.000202135 -3.99705e-05     -103.877 
           0      1.35026 -0.000204377 -4.09728e-05     -103.877 
           0       1.4017 -0.000207375 -4.19228e-05     -103.877 
           0      1.45409 -0.000210976 -4.27934e-05     -103.877 
           0      1.50745 -0.000214943 -4.35897e-05     -103.877 
           0      1.56176 -0.000219071 -4.43134e-05     -103.877 
           0      1.61705 -0.000223182 -4.49634e-05     -103.877 
           0      1.67329 -0.000227133 -4.55365e-05     -103.876 
           0      1.73049 -0.000230811 -4.60282e-05     -103.876 
           0      1.78865 -0.000234135 -4.64337e-05     -103.876 
           0      1.84778 -0.000237056 -4.67485e-05     -103.876 
           0      1.90786 -0.000239551 -4.69695e-05     -103.876 
           0      1.96891 -0.000241623 -4.70955e-05     -103.876 
           0      2.03092 -0.000243294 -4.71274e-05     -103.876 
           0      2.09389 -0.000244603  -4.7069e-05     -103.876 
           0      2.15782 -0.000245595  -4.6926e-05     -103.876 
           0      2.22272 -0.000246321 -4.67055e-05     -103.876 
           0      2.28857 -0.000246824 -4.64144e-05     -103.876 
           0      2.35539 -0.000247134 -4.60566e-05     -103.875 
           0      2.42317 -0.000247259 -4.56295e-05     -103.875 
           0      2.49191 -0.000247175  -4.5119e-05     -103.875 
           0      2.56161 -0.000246819 -4.44923e-05     -103.875 
           0      2.63226  -0.00024608 -4.36901e-05     -103.875 
           0      2.70389  -0.00024479 -4.26146e-05     -103.875 
           0      2.77648 -0.000242761 -4.14975e-05     -103.875 
           0      2.85002 -0.000240672 -4.06127e-05     -103.875 
           0      2.92453 -0.000238845 -3.95196e-05     -103.874 
           0            3 -0.000237287 -3.83901e-05     -103.874 
          20            0 -2.77145e-19 -1.10597e-23     -101.363 
          20      0.00048 -2.59475e-05 -1.08987e-09     -101.363 
          20     0.001922 -9.19573e-05 -4.52369e-09     -101.363 
          20     0.004326 -0.000168356 -1.09005e-08     -101.363 
          20      0.00769 -0.000223241 -2.15477e-08     -101.363 
          20     0.012017 -0.000239524 -3.88525e-08     -101.363 
          20     0.017304 -0.000223676 -6.63496e-08     -101.363 
          20     0.023553 -0.000200399 -1.08568e-07     -101.363 
          20     0.030763 -0.000194112 -1.70488e-07     -101.363 
          20     0.038936 -0.000208317  -2.5697e-07     -101.363 
          20     0.048069 -0.000220769  -3.7231e-07     -101.363 
          20     0.058163 -0.000208638 -5.20518e-07     -101.363 
          20     0.069219 -0.000191153 -7.05836e-07     -101.363 
          20     0.081236 -0.000211793 -9.32192e-07     -101.363 
          20     0.094215 -0.000191972 -1.20058e-06     -101.363 
          20     0.108155 -0.000193558 -1.51399e-06     -101.363 
          20     0.123056 -0.000188699  -1.8723e-06     -101.363 
          20     0.138918 -0.000182805 -2.27511e-06     -101.363 
          20     0.155744 -0.000178102 -2.72104e-06     -101.363 
          20     0.173529 -0.000174257 -3.20755e-06     -101.363 
          20     0.192276 -0.000169956 -3.73147e-06     -101.363 
          20     0.211984 -0.000164856 -4.28897e-06     -101.363 
          20     0.232655 -0.000160537 -4.87591e-06     -101.363 
          20     0.254285 -0.000158019 -5.48785e-06     -101.363 
          20     0.276877 -0.000154016 -6.12079e-06     -101.363 
          20     0.300431 -0.000151633 -6.77015e-06     -101.363 
          20     0.324946 -0.000149547 -7.43246e-06     -101.363 
          20     0.350424 -0.000147933 -8.10511e-06     -101.363 
          20     0.376861 -0.000146874 -8.78556e-06     -101.363 
          20      0.40426  -0.00014637 -9.47191e-06     -101.363 
          20     0.432621 -0.000146371 -1.01628e-05     -101.363 
          20     0.461945  -0.00014681 -1.08576e-05     -101.363 
          20     0.492228 -0.000147636 -1.15563e-05     -101.363 
          20     0.523472 -0.000148836 -1.22596e-05     -101.363 
          20     0.555678 -0.000150426 -1.29679e-05     -101.363 
          20     0.588845 -0.000152397 -1.36812e-05     -101.363 
          20     0.622976 -0.000154582 -1.43968e-05     -101.363 
          20     0.658066 -0.000157093 -1.51163e-05     -101.363 
          20     0.694117 -0.000159829 -1.58421e-05     -101.363 
          20      0.73113 -0.000162744 -1.65687e-05     -101.362 
          20     0.769107 -0.000165783 -1.72914e-05     -101.362 
          20     0.808042  -0.00016889 -1.80062e-05     -101.362 
          20     0.847939 -0.000172004 -1.87099e-05     -101.362 
          20     0.888797 -0.000175072 -1.93994e-05     -101.362 
          20      0.93062 -0.000178041 -2.00713e-05     -101.362 
          20       0.9734 -0.000180872 -2.07219e-05     -101.362 
          20      1.01714 -0.000183534 -2.13471e-05     -101.362 
          20      1.06185 -0.000186013 -2.19424e-05     -101.362 
          20      1.10751 -0.000188304 -2.25037e-05     -101.362 
          20      1.15414 -0.000190415 -2.30283e-05     -101.362 
          20      1.20173 -0.000192353 -2.35166e-05     -101.362 
          20      1.25028  -0.00019412 -2.39756e-05     -101.362 
          20      1.29979  -0.00019569 -2.44225e-05     -101.362 
          20      1.35026 -0.000197183 -2.48428e-05     -101.362 
          20       1.4017  -0.00019908 -2.51632e-05     -101.362 
          20      1.45409 -0.000201193 -2.54392e-05     -101.362 
          20      1.50745 -0.000203453 -2.56795e-05     -101.362 
          20      1.56176 -0.000205806 -2.58889e-05     -101.362 
          20      1.61705 -0.000208209 -2.60681e-05     -101.362 
          20      1.67329 -0.000210633 -2.62155e-05     -101.362 
          20      1.73049 -0.000213061 -2.63269e-05     -101.362 
          20      1.78865 -0.000215483 -2.63974e-05     -101.362 
          20      1.84778   -0.0002179  -2.6422e-05     -101.362 
          20      1.90786 -0.000220315 -2.63966e-05     -101.362 
          20      1.96891 -0.000222733 -2.63189e-05     -101.362 
          20      2.03092 -0.000225163 -2.61892e-05     -101.362 
          20      2.09389 -0.000227606 -2.60111e-05     -101.362 
          20      2.15782 -0.000230062 -2.57913e-05     -101.362 
          20      2.22272 -0.000232521 -2.55395e-05     -101.362 
          20      2.28857 -0.000234968 -2.52672e-05     -101.362 
          20      2.35539 -0.000237379 -2.49859e-05     -101.361 
          20      2.42317 -0.000239724 -2.47044e-05     -101.361 
          20      2.49191 -0.000241969 -2.44243e-05     -101.361 
          20      2.56161 -0.000244083 -2.41345e-05     -101.361 
          20      2.63226 -0.000246045 -2.38034e-05     -101.361 
          20      2.70389 -0.000247857 -2.33697e-05     -101.361 
          20      2.77648 -0.000249373 -2.27772e-05     -101.361 
          20      2.85002 -0.000250226 -2.19716e-05     -101.361 
          20      2.92453 -0.000250574 -2.15277e-05     -101.361 
          20            3 -0.000250622 -2.06021e-05     -101.361 
          40            0 -2.62359e-19 -6.84908e-24     -99.0184 
          40      0.00048 -2.45643e-05 -6.97923e-10     -99.0184 
          40     0.001922  -8.7068e-05 -3.16913e-09     -99.0184 
          40     0.004326 -0.000159448  -8.6059e-09     -99.0184 
          40      0.00769 -0.000211526 -1.91751e-08     -99.0184 
          40     0.012017 -0.000227116  -3.8199e-08     -99.0184 
          40     0.017304  -0.00021229 -7.01502e-08     -99.0184 
          40     0.023553  -0.00019035 -1.20518e-07     -99.0184 
          40     0.030763 -0.000184321 -1.95387e-07     -99.0184 
          40     0.038936 -0.000197459 -3.01023e-07     -99.0184 
          40     0.048069 -0.000208685 -4.43464e-07     -99.0184 
          40     0.058163 -0.000196369 -6.28644e-07     -99.0184 
          40     0.069219 -0.000178646 -8.62594e-07     -99.0184 
          40     0.081236 -0.000196575 -1.15097e-06     -99.0184 
          40     0.094215  -0.00017585 -1.49736e-06     -99.0184 
          40     0.108155 -0.000174934 -1.90618e-06     -99.0184 
          40     0.123056 -0.000167496 -2.37952e-06     -99.0184 
          40     0.138918 -0.000158658  -2.9187e-06     -99.0184 
          40     0.155744 -0.000150544 -3.52396e-06     -99.0184 
          40     0.173529 -0.000142872 -4.19402e-06     -99.0183 
          40     0.192276 -0.000134444 -4.92679e-06     -99.0183 
          40     0.211984 -0.000124989 -5.71905e-06     -99.0183 
          40     0.232655 -0.000116059 -6.56699e-06     -99.0183 
          40     0.254285 -0.000108685   -7.466e-06     -99.0183 
          40     0.276877 -9.98252e-05 -8.41121e-06     -99.0183 
          40     0.300431 -9.24832e-05 -9.39769e-06     -99.0183 
          40     0.324946 -8.54716e-05 -1.04208e-05     -99.0183 
          40     0.350424 -7.90158e-05 -1.14762e-05     -99.0183 
          40     0.376861 -7.32479e-05 -1.25597e-05     -99.0183 
          40      0.40426 -6.82177e-05 -1.36678e-05     -99.0183 
          40     0.432621 -6.39216e-05  -1.4798e-05     -99.0183 
          40     0.461945 -6.03347e-05 -1.59485e-05     -99.0183 
          40     0.492228 -5.74442e-05 -1.71179e-05     -99.0183 
          40     0.523472 -5.52702e-05 -1.83059e-05     -99.0183 
          40     0.555678 -5.38617e-05 -1.95126e-05     -99.0183 
          40     0.588845 -5.32416e-05 -2.07376e-05     -99.0183 
          40     0.622976 -5.32877e-05 -2.19809e-05     -99.0183 
          40     0.658066 -5.41414e-05 -2.32474e-05     -99.0183 
          40     0.694117 -5.57242e-05 -2.45289e-05     -99.0183 
          40      0.73113 -5.80314e-05 -2.58278e-05     -99.0183 
          40     0.769107 -6.10358e-05 -2.71437e-05     -99.0183 
          40     0.808042 -6.46881e-05  -2.8474e-05     -99.0183 
          40     0.847939 -6.89205e-05 -2.98145e-05     -99.0183 
          40     0.888797 -7.36488e-05 -3.11591e-05     -99.0183 
          40      0.93062 -7.87779e-05 -3.25016e-05     -99.0182 
          40       0.9734 -8.42039e-05 -3.38346e-05     -99.0182 
          40      1.01714 -8.98227e-05 -3.51515e-05     -99.0182 
          40      1.06185 -9.55326e-05 -3.64461e-05     -99.0182 
          40      1.10751  -0.00010124 -3.77126e-05     -99.0182 
          40      1.15414 -0.000106862 -3.89449e-05     -99.0182 
          40      1.20173 -0.000112328 -4.01356e-05     -99.0182 
          40      1.25028 -0.000117578 -4.12735e-05     -99.0182 
          40      1.29979 -0.000122555 -4.23405e-05     -99.0181 
          40      1.35026  -0.00012735 -4.33432e-05     -99.0181 
          40       1.4017 -0.000132886 -4.43306e-05     -99.0181 
          40      1.45409 -0.000139007 -4.52501e-05     -99.0181 
          40      1.50745 -0.000145393  -4.6088e-05     -99.0181 
          40      1.56176  -0.00015179 -4.68356e-05      -99.018 
          40      1.61705 -0.000158009 -4.74892e-05      -99.018 
          40      1.67329 -0.000163924 -4.80486e-05      -99.018 
          40      1.73049 -0.000169468  -4.8517e-05      -99.018 
          40      1.78865 -0.000174622 -4.88995e-05     -99.0179 
          40      1.84778 -0.000179412 -4.92017e-05     -99.0179 
          40      1.90786 -0.000183892 -4.94293e-05     -99.0179 
          40      1.96891 -0.000188139 -4.95863e-05     -99.0179 
          40      2.03092 -0.000192236 -4.96747e-05     -99.0178 
          40      2.09389  -0.00019626 -4.96931e-05     -99.0178 
          40      2.15782  -0.00020027 -4.96373e-05     -99.0178 
          40      2.22272 -0.000204297 -4.94994e-05     -99.0177 
          40      2.28857  -0.00020833 -4.92698e-05     -99.0177 
          40      2.35539 -0.000212313  -4.8938e-05     -99.0176 
          40      2.42317 -0.000216141 -4.84958e-05     -99.0176 
          40      2.49191 -0.000219661 -4.79416e-05     -99.0176 
          40      2.56161 -0.000222686 -4.72858e-05     -99.0175 
          40      2.63226  -0.00022501 -4.65586e-05     -99.0175 
          40      2.70389 -0.000226443 -4.58199e-05     -99.0174 
          40      2.77648 -0.000226525 -4.50267e-05     -99.0174 
          40      2.85002 -0.000226181 -4.42669e-05     -99.0173 
          40      2.92453  -0.00022637  -4.3782e-05     -99.0173 
          40            3 -0.000226909 -4.34904e-05     -99.0172 
          60            0            0            0     -96.7795 
          60      0.00048 -2.43714e-05 -4.33996e-10     -96.7795 
          60     0.001922 -8.66997e-05 -1.88587e-09     -96.7795 
          60     0.004326 -0.000159923 -4.86325e-09     -96.7795 
          60      0.00769 -0.000214923 -1.03926e-08     -96.7795 
          60     0.012017 -0.000236061 -2.02245e-08     -96.7795 
          60     0.017304 -0.000229119 -3.69547e-08     -96.7795 
          60     0.023553 -0.000216471  -6.4072e-08     -96.7795 
          60     0.030763   -0.0002202 -1.05837e-07     -96.7795 
          60     0.038936 -0.000243316 -1.67155e-07     -96.7795 
          60     0.048069 -0.000265351 -2.53439e-07     -96.7795 
          60     0.058163 -0.000265286 -3.70764e-07     -96.7795 
          60     0.069219 -0.000260411 -5.26049e-07     -96.7795 
          60     0.081236 -0.000290091 -7.26755e-07     -96.7795 
          60     0.094215 -0.000282504 -9.79769e-07     -96.7795 
          60     0.108155 -0.000293782 -1.29313e-06     -96.7795 
          60     0.123056 -0.000298347 -1.67388e-06     -96.7795 
          60     0.138918 -0.000300948  -2.1289e-06     -96.7795 
          60     0.155744 -0.000303471 -2.66451e-06     -96.7795 
          60     0.173529 -0.000305505 -3.28591e-06     -96.7795 
          60     0.192276 -0.000305798 -3.99751e-06     -96.7795 
          60     0.211984 -0.000304022 -4.80252e-06     -96.7795 
          60     0.232655 -0.000301649 -5.70308e-06     -96.7795 
          60     0.254285 -0.000299679 -6.69997e-06     -96.7795 
          60     0.276877 -0.000295226  -7.7931e-06     -96.7795 
          60     0.300431 -0.000291254 -8.98137e-06     -96.7794 
          60     0.324946 -0.000286712 -1.02627e-05     -96.7794 
          60     0.350424 -0.000281928 -1.16344e-05     -96.7794 
          60     0.376861 -0.000277142 -1.30931e-05     -96.7794 
          60      0.40426 -0.000272521 -1.46351e-05     -96.7794 
          60     0.432621 -0.000268169 -1.62565e-05     -96.7794 
          60     0.461945 -0.000264159  -1.7953e-05     -96.7794 
          60     0.492228 -0.000260557 -1.97198e-05     -96.7794 
          60     0.523472 -0.000257437 -2.15524e-05     -96.7794 
          60     0.555678 -0.000254876 -2.34457e-05     -96.7794 
          60     0.588845 -0.000252902 -2.53943e-05     -96.7794 
          60     0.622976 -0.000251379 -2.73925e-05     -96.7794 
          60     0.658066   -0.0002504 -2.94334e-05     -96.7794 
          60     0.694117 -0.000249847 -3.15108e-05     -96.7794 
          60      0.73113  -0.00024964 -3.36167e-05     -96.7794 
          60     0.769107 -0.000249688  -3.5743e-05     -96.7794 
          60     0.808042 -0.000249889 -3.78806e-05     -96.7794 
          60     0.847939 -0.000250144 -4.00208e-05     -96.7794 
          60     0.888797 -0.000250354 -4.21545e-05     -96.7794 
          60      0.93062  -0.00025043  -4.4273e-05     -96.7794 
          60       0.9734 -0.000250299 -4.63673e-05     -96.7794 
          60      1.01714 -0.000249906 -4.84296e-05     -96.7794 
          60      1.06185 -0.000249219 -5.04523e-05     -96.7794 
          60      1.10751  -0.00024822  -5.2429e-05     -96.7794 
          60      1.15414 -0.000246904 -5.43542e-05     -96.7793 
          60      1.20173 -0.000245265 -5.62229e-05     -96.7793 
          60      1.25028 -0.000243267 -5.80319e-05     -96.7793 
          60      1.29979 -0.000240815 -5.97787e-05     -96.7793 