Variables = x, y, u, v, p

Zone, I=2080, F=POINT
         -50            0            0            0     -6.63594 
         -50      0.00048  8.50554e-06 -3.67761e-10     -6.63594 
         -50     0.001922   3.0187e-05 -7.20415e-10     -6.63594 
         -50     0.004326  5.53561e-05  1.00088e-09     -6.63594 
         -50      0.00769  7.33846e-05  7.63915e-09     -6.63594 
         -50     0.012017  7.81509e-05  2.22184e-08     -6.63594 
         -50     0.017304  7.10162e-05  4.74671e-08     -6.63594 
         -50     0.023553  5.94984e-05  8.57553e-08     -6.63594 
         -50     0.030763  5.17609e-05  1.39325e-07     -6.63594 
         -50     0.038936  5.01135e-05  2.10695e-07     -6.63594 
         -50     0.048069  4.88918e-05  3.02638e-07     -6.63594 
         -50     0.058163  4.11944e-05  4.17624e-07     -6.63594 
         -50     0.069219  3.15153e-05  5.56792e-07     -6.63594 
         -50     0.081236  3.25443e-05  7.20513e-07     -6.63594 
         -50     0.094215  2.32375e-05  9.10977e-07     -6.63594 
         -50     0.108155  1.86962e-05  1.12426e-06     -6.63593 
         -50     0.123056  1.28942e-05  1.35993e-06     -6.63593 
         -50     0.138918  6.94353e-06  1.61494e-06     -6.63593 
         -50     0.155744  1.36871e-06  1.88583e-06     -6.63593 
         -50     0.173529 -3.79082e-06  2.16869e-06     -6.63593 
         -50     0.192276 -8.71001e-06  2.45948e-06     -6.63593 
         -50     0.211984 -1.34237e-05  2.75391e-06     -6.63593 
         -50     0.232655 -1.76419e-05  3.04775e-06     -6.63593 
         -50     0.254285 -2.11566e-05  3.33718e-06     -6.63593 
         -50     0.276877 -2.45433e-05   3.6192e-06     -6.63593 
         -50     0.300431 -2.73156e-05  3.89058e-06     -6.63593 
         -50     0.324946 -2.96974e-05  4.15011e-06     -6.63592 
         -50     0.350424 -3.16938e-05   4.3969e-06     -6.63592 
         -50     0.376861 -3.33215e-05  4.63063e-06     -6.63592 
         -50      0.40426 -3.46044e-05  4.85168e-06     -6.63592 
         -50     0.432621 -3.55666e-05  5.06112e-06     -6.63591 
         -50     0.461945 -3.62262e-05  5.26062e-06     -6.63591 
         -50     0.492228 -3.65889e-05  5.45229e-06     -6.63591 
         -50     0.523472  -3.6645e-05  5.63856e-06      -6.6359 
         -50     0.555678 -3.63713e-05  5.82167e-06      -6.6359 
         -50     0.588845  -3.5742e-05  6.00322e-06      -6.6359 
         -50     0.622976 -3.47525e-05  6.18314e-06     -6.63589 
         -50     0.658066 -3.33772e-05  6.36618e-06     -6.63589 
         -50     0.694117 -3.15908e-05  6.56002e-06     -6.63588 
         -50      0.73113 -2.94164e-05  6.75938e-06     -6.63587 
         -50     0.769107  -2.6888e-05  6.96022e-06     -6.63587 
         -50     0.808042 -2.40491e-05  7.15942e-06     -6.63586 
         -50     0.847939 -2.09495e-05  7.35455e-06     -6.63585 
         -50     0.888797 -1.76428e-05  7.54339e-06     -6.63584 
         -50      0.93062 -1.41825e-05  7.72358e-06     -6.63584 
         -50       0.9734   -1.062e-05  7.89225e-06     -6.63583 
         -50      1.01714 -6.99831e-06  8.04593e-06     -6.63582 
         -50      1.06185 -3.35159e-06  8.18059e-06      -6.6358 
         -50      1.10751  2.99042e-07  8.29221e-06     -6.63579 
         -50      1.15414  3.94582e-06  8.37786e-06     -6.63578 
         -50      1.20173  7.59247e-06   8.4376e-06     -6.63577 
         -50      1.25028  1.12519e-05  8.47748e-06     -6.63575 
         -50      1.29979  1.49372e-05  8.51381e-06     -6.63574 
         -50      1.35026   1.8809e-05  8.52725e-06     -6.63572 
         -50       1.4017   2.2766e-05  8.50018e-06     -6.63571 
         -50      1.45409  2.67069e-05  8.50333e-06     -6.63569 
         -50      1.50745  3.08296e-05  8.52652e-06     -6.63567 
         -50      1.56176  3.52255e-05  8.55788e-06     -6.63565 
         -50      1.61705  3.98943e-05  8.58494e-06     -6.63563 
         -50      1.67329  4.47588e-05  8.59588e-06     -6.63561 
         -50      1.73049   4.9687e-05  8.58091e-06     -6.63559 
         -50      1.78865  5.45137e-05   8.5336e-06     -6.63556 
         -50      1.84778  5.90648e-05  8.45224e-06     -6.63554 
         -50      1.90786  6.31804e-05  8.34116e-06     -6.63551 
         -50      1.96891  6.67412e-05  8.21177e-06     -6.63549 
         -50      2.03092  6.96871e-05  8.08336e-06     -6.63546 
         -50      2.09389  7.20352e-05  7.98353e-06     -6.63543 
         -50      2.15782  7.38876e-05  7.94804e-06     -6.63539 
         -50      2.22272  7.54323e-05   8.0199e-06     -6.63536 
         -50      2.28857  7.69287e-05  8.24763e-06     -6.63533 
         -50      2.35539  7.86764e-05  8.68234e-06     -6.63529 
         -50      2.42317  8.09639e-05  9.37353e-06     -6.63525 
         -50      2.49191  8.39889e-05  1.03629e-05     -6.63522 
         -50      2.56161  8.77488e-05  1.16769e-05     -6.63517 
         -50      2.63226  9.18917e-05  1.33161e-05     -6.63513 
         -50      2.70389  9.55231e-05  1.52429e-05     -6.63509 
         -50      2.77648  9.77297e-05  1.69487e-05     -6.63504 
         -50      2.85002  9.95664e-05   1.8118e-05     -6.63499 
         -50      2.92453  0.000100694  1.93018e-05     -6.63494 
         -50            3  0.000101291  2.03264e-05     -6.63489 
         -25            0  6.53238e-20 -1.69863e-24     -6.36364 
         -25      0.00048  6.11689e-06 -1.77268e-10     -6.36364 
         -25     0.001922  2.16833e-05 -8.59859e-10     -6.36364 
         -25     0.004326  3.96731e-05 -2.56311e-09     -6.36364 
         -25      0.00769  5.24002e-05 -6.32675e-09     -6.36364 
         -25     0.012017  5.54874e-05 -1.38962e-08     -6.36364 
         -25     0.017304   5.0033e-05 -2.77904e-08     -6.36364 
         -25     0.023553  4.16338e-05 -5.12368e-08     -6.36364 
         -25     0.030763  3.63545e-05 -8.79054e-08     -6.36364 
         -25     0.038936  3.59765e-05 -1.41619e-07     -6.36364 
         -25     0.048069   3.6444e-05   -2.161e-07     -6.36364 
         -25     0.058163  3.27758e-05 -3.15067e-07     -6.36364 
         -25     0.069219  2.82824e-05 -4.42412e-07     -6.36364 
         -25     0.081236  3.22232e-05 -6.01756e-07     -6.36364 
         -25     0.094215  2.92017e-05 -7.95348e-07     -6.36364 
         -25     0.108155  3.01824e-05  -1.0269e-06     -6.36364 
         -25     0.123056   3.0675e-05 -1.29792e-06     -6.36364 
         -25     0.138918  3.13835e-05 -1.60997e-06     -6.36364 
         -25     0.155744  3.25706e-05 -1.96393e-06     -6.36364 
         -25     0.173529  3.41358e-05 -2.35977e-06     -6.36364 
         -25     0.192276  3.58262e-05 -2.79704e-06     -6.36364 
         -25     0.211984  3.74984e-05 -3.27478e-06     -6.36364 
         -25     0.232655  3.92604e-05 -3.79175e-06     -6.36364 
         -25     0.254285  4.11757e-05 -4.34611e-06     -6.36364 
         -25     0.276877  4.27565e-05 -4.93584e-06     -6.36364 
         -25     0.300431  4.43052e-05 -5.55983e-06     -6.36364 
         -25     0.324946  4.56264e-05  -6.2158e-06     -6.36363 
         -25     0.350424  4.66982e-05 -6.90194e-06     -6.36363 
         -25     0.376861  4.74978e-05 -7.61668e-06     -6.36363 
         -25      0.40426  4.80039e-05 -8.35895e-06     -6.36363 
         -25     0.432621     4.82e-05 -9.12776e-06     -6.36363 
         -25     0.461945   4.8077e-05  -9.9221e-06     -6.36363 
         -25     0.492228  4.76367e-05 -1.07406e-05     -6.36363 
         -25     0.523472  4.68929e-05 -1.15816e-05     -6.36363 
         -25     0.555678  4.58718e-05 -1.24434e-05     -6.36363 
         -25     0.588845  4.46072e-05 -1.33245e-05     -6.36362 
         -25     0.622976  4.31321e-05 -1.42237e-05     -6.36362 
         -25     0.658066  4.15076e-05 -1.51266e-05     -6.36362 
         -25     0.694117  3.97908e-05 -1.60472e-05     -6.36362 
         -25      0.73113  3.80673e-05 -1.69739e-05     -6.36362 
         -25     0.769107  3.64181e-05 -1.78981e-05     -6.36361 
         -25     0.808042  3.49169e-05 -1.88129e-05     -6.36361 
         -25     0.847939  3.36258e-05 -1.97139e-05     -6.36361 
         -25     0.888797  3.25927e-05 -2.05976e-05      -6.3636 
         -25      0.93062  3.18488e-05 -2.14611e-05      -6.3636 
         -25       0.9734  3.14075e-05 -2.23011e-05      -6.3636 
         -25      1.01714  3.12636e-05  -2.3114e-05     -6.36359 
         -25      1.06185  3.13964e-05  -2.3895e-05     -6.36359 
         -25      1.10751  3.17744e-05 -2.46383e-05     -6.36358 
         -25      1.15414  3.23635e-05 -2.53385e-05     -6.36358 
         -25      1.20173  3.31404e-05 -2.59919e-05     -6.36357 
         -25      1.25028  3.41112e-05 -2.66002e-05     -6.36357 
         -25      1.29979  3.53371e-05 -2.71755e-05     -6.36356 
         -25      1.35026  3.66636e-05 -2.77543e-05     -6.36356 
         -25       1.4017  3.77603e-05  -2.8256e-05     -6.36355 
         -25      1.45409  3.89759e-05  -2.8655e-05     -6.36355 
         -25      1.50745  4.03026e-05 -2.89827e-05     -6.36354 
         -25      1.56176  4.17419e-05 -2.92584e-05     -6.36353 
         -25      1.61705  4.33034e-05 -2.94904e-05     -6.36352 
         -25      1.67329  4.50006e-05 -2.96781e-05     -6.36352 
         -25      1.73049  4.68491e-05 -2.98143e-05     -6.36351 
         -25      1.78865  4.88622e-05 -2.98878e-05      -6.3635 
         -25      1.84778  5.10473e-05 -2.98867e-05     -6.36349 
         -25      1.90786  5.34014e-05 -2.98009e-05     -6.36348 
         -25      1.96891  5.59082e-05 -2.96258e-05     -6.36347 
         -25      2.03092  5.85339e-05 -2.93649e-05     -6.36346 
         -25      2.09389   6.1224e-05 -2.90325e-05     -6.36345 
         -25      2.15782  6.39002e-05 -2.86558e-05     -6.36343 
         -25      2.22272  6.64608e-05 -2.82759e-05     -6.36342 
         -25      2.28857  6.87792e-05 -2.79475e-05     -6.36341 
         -25      2.35539  7.07073e-05 -2.77372e-05     -6.36339 
         -25      2.42317  7.20793e-05 -2.77195e-05     -6.36338 
         -25      2.49191  7.27198e-05 -2.79705e-05     -6.36337 
         -25      2.56161  7.24554e-05 -2.85575e-05     -6.36335 
         -25      2.63226  7.11308e-05 -2.95258e-05     -6.36333 
         -25      2.70389  6.86292e-05 -3.08803e-05     -6.36332 
         -25      2.77648  6.54424e-05  -3.2791e-05      -6.3633 
         -25      2.85002   6.1844e-05 -3.49927e-05     -6.36328 
         -25      2.92453  5.80139e-05 -3.72417e-05     -6.36326 
         -25            3  5.44361e-05 -3.94007e-05     -6.36324 
           0            0  5.90944e-20 -8.13419e-25     -6.15065 
           0      0.00048  5.54875e-06 -6.82257e-11     -6.15065 
           0     0.001922  1.98455e-05 -1.44279e-10     -6.15065 
           0     0.004326  3.69503e-05   1.3029e-10     -6.15065 
           0      0.00769  5.03403e-05   1.2711e-09     -6.15065 
           0     0.012017  5.62484e-05  3.87706e-09     -6.15065 
           0     0.017304  5.54765e-05  8.59037e-09     -6.15065 
           0     0.023553  5.25888e-05  1.61379e-08     -6.15065 
           0     0.030763  5.25295e-05  2.74263e-08     -6.15065 
           0     0.038936  5.66467e-05  4.36633e-08     -6.15065 
           0     0.048069  6.13903e-05  6.63836e-08     -6.15065 
           0     0.058163  6.24461e-05  9.73627e-08     -6.15065 
           0     0.069219  6.24732e-05  1.38422e-07     -6.15065 
           0     0.081236  6.91412e-05  1.91508e-07     -6.15065 
           0     0.094215  6.94531e-05  2.59133e-07     -6.15065 
           0     0.108155  7.25628e-05  3.42811e-07     -6.15065 
           0     0.123056  7.46802e-05  4.44808e-07     -6.15065 
           0     0.138918  7.64043e-05   5.6688e-07     -6.15065 
           0     0.155744  7.79892e-05  7.10622e-07     -6.15065 
           0     0.173529  7.94072e-05  8.77312e-07     -6.15065 
           0     0.192276   8.0521e-05  1.06799e-06     -6.15065 
           0     0.211984  8.12985e-05  1.28331e-06     -6.15065 
           0     0.232655  8.19261e-05  1.52361e-06     -6.15065 
           0     0.254285  8.25558e-05  1.78882e-06     -6.15065 
           0     0.276877  8.28733e-05   2.0788e-06     -6.15065 
           0     0.300431  8.32245e-05  2.39272e-06     -6.15065 
           0     0.324946  8.35252e-05  2.72988e-06     -6.15065 
           0     0.350424  8.38258e-05   3.0895e-06     -6.15065 
           0     0.376861  8.41646e-05   3.4704e-06     -6.15065 
           0      0.40426   8.4568e-05  3.87127e-06     -6.15065 
           0     0.432621   8.5051e-05  4.29063e-06     -6.15065 
           0     0.461945  8.56188e-05  4.72699e-06     -6.15065 
           0     0.492228   8.6269e-05  5.17878e-06     -6.15065 
           0     0.523472  8.69941e-05  5.64453e-06     -6.15065 
           0     0.555678  8.77804e-05  6.12247e-06     -6.15065 
           0     0.588845  8.86048e-05  6.61013e-06     -6.15065 
           0     0.622976  8.94246e-05  7.10394e-06     -6.15064 
           0     0.658066  9.02145e-05  7.60558e-06     -6.15064 
           0     0.694117  9.09303e-05  8.10806e-06     -6.15064 
           0      0.73113  9.15247e-05  8.60931e-06     -6.15064 
           0     0.769107  9.19543e-05  9.10684e-06     -6.15064 
           0     0.808042  9.21819e-05  9.59781e-06     -6.15064 
           0     0.847939  9.21793e-05  1.00794e-05     -6.15064 
           0     0.888797  9.19291e-05  1.05488e-05     -6.15064 
           0      0.93062  9.14266e-05  1.10035e-05     -6.15063 
           0       0.9734  9.06811e-05  1.14414e-05     -6.15063 
           0      1.01714  8.97156e-05  1.18609e-05     -6.15063 
           0      1.06185  8.85653e-05  1.22613e-05     -6.15063 
           0      1.10751  8.72747e-05  1.26422e-05     -6.15063 
           0      1.15414  8.58908e-05   1.3004e-05     -6.15062 
           0      1.20173  8.44552e-05  1.33469e-05     -6.15062 
           0      1.25028  8.29892e-05  1.36708e-05     -6.15062 
           0      1.29979  8.14767e-05  1.39737e-05     -6.15062 
           0      1.35026  7.99144e-05  1.42532e-05     -6.15061 
           0       1.4017  7.85474e-05  1.45214e-05     -6.15061 
           0      1.45409  7.73157e-05  1.47706e-05     -6.15061 
           0      1.50745  7.61545e-05  1.49909e-05      -6.1506 
           0      1.56176  7.50106e-05  1.51756e-05      -6.1506 
           0      1.61705  7.38415e-05  1.53207e-05      -6.1506 
           0      1.67329  7.26139e-05  1.54248e-05     -6.15059 
           0      1.73049  7.13013e-05  1.54882e-05     -6.15059 
           0      1.78865  6.98816e-05  1.55119e-05     -6.15059 
           0      1.84778  6.83355e-05  1.54972e-05     -6.15058 
           0      1.90786  6.66437e-05  1.54447e-05     -6.15058 
           0      1.96891   6.4785e-05  1.53536e-05     -6.15057 
           0      2.03092   6.2735e-05  1.52212e-05     -6.15057 
           0      2.09389  6.04649e-05  1.50425e-05     -6.15056 
           0      2.15782  5.79432e-05  1.48098e-05     -6.15056 
           0      2.22272  5.51361e-05  1.45132e-05     -6.15055 
           0      2.28857  5.20125e-05  1.41415e-05     -6.15054 
           0      2.35539  4.85502e-05  1.36833e-05     -6.15054 
           0      2.42317  4.47452e-05  1.31292e-05     -6.15053 
           0      2.49191  4.06264e-05  1.24755e-05     -6.15052 
           0      2.56161  3.62719e-05  1.17281e-05     -6.15052 
           0      2.63226  3.18331e-05  1.09086e-05     -6.15051 
           0      2.70389  2.75644e-05  1.00613e-05      -6.1505 
           0      2.77648  2.36849e-05  9.23574e-06     -6.15049 
           0      2.85002  2.03328e-05  8.49926e-06     -6.15048 
           0      2.92453  1.77164e-05   7.8998e-06     -6.15047 
           0            3  1.57354e-05  7.43696e-06     -6.15047 
          20            0  5.40149e-20 -4.86588e-25     -6.00089 
          20      0.00048  5.07089e-06  -3.8213e-11     -6.00089 
          20     0.001922  1.81259e-05 -4.45501e-11     -6.00089 
          20     0.004326  3.37099e-05  2.90119e-10     -6.00089 
          20      0.00769  4.58319e-05   1.4336e-09     -6.00089 
          20     0.012017  5.10305e-05  3.97164e-09     -6.00089 
          20     0.017304  5.00385e-05  8.58525e-09     -6.00089 
          20     0.023553  4.70423e-05  1.60808e-08     -6.00089 
          20     0.030763  4.65765e-05  2.74468e-08     -6.00089 
          20     0.038936  4.98729e-05  4.39298e-08     -6.00089 
          20     0.048069  5.36658e-05  6.70406e-08     -6.00089 
          20     0.058163   5.3988e-05  9.85033e-08     -6.00089 
          20     0.069219  5.32753e-05  1.40126e-07     -6.00089 
          20     0.081236  5.85644e-05  1.93835e-07     -6.00089 
          20     0.094215  5.79156e-05  2.61928e-07     -6.00089 
          20     0.108155   5.9731e-05  3.46086e-07     -6.00089 
          20     0.123056  6.05266e-05  4.48462e-07     -6.00089 
          20     0.138918  6.08502e-05  5.70869e-07     -6.00089 
          20     0.155744  6.09342e-05  7.14968e-07     -6.00089 
          20     0.173529   6.0754e-05  8.82124e-07     -6.00089 
          20     0.192276  6.01856e-05  1.07352e-06     -6.00089 
          20     0.211984   5.9204e-05  1.29002e-06     -6.00089 
          20     0.232655   5.7987e-05  1.53221e-06     -6.00089 
          20     0.254285   5.6684e-05  1.80027e-06     -6.00089 
          20     0.276877   5.5018e-05  2.09407e-06     -6.00089 
          20     0.300431  5.33216e-05  2.41376e-06     -6.00089 
          20     0.324946  5.15349e-05  2.75864e-06     -6.00089 
          20     0.350424  4.97239e-05  3.12792e-06     -6.00089 
          20     0.376861   4.7947e-05  3.52081e-06     -6.00089 
          20      0.40426  4.62531e-05   3.9366e-06     -6.00089 
          20     0.432621  4.46828e-05  4.37451e-06     -6.00089 
          20     0.461945  4.32698e-05  4.83358e-06     -6.00089 
          20     0.492228  4.20422e-05  5.31258e-06     -6.00089 
          20     0.523472  4.10236e-05  5.81017e-06     -6.00089 
          20     0.555678  4.02321e-05  6.32496e-06     -6.00089 
          20     0.588845  3.96758e-05  6.85592e-06     -6.00089 
          20     0.622976  3.93431e-05  7.40305e-06     -6.00089 
          20     0.658066  3.92349e-05  7.96035e-06     -6.00089 
          20     0.694117  3.93272e-05  8.52703e-06     -6.00089 
          20      0.73113  3.95907e-05  9.10194e-06     -6.00089 
          20     0.769107  3.99911e-05  9.68296e-06     -6.00089 
          20     0.808042  4.04908e-05  1.02671e-05     -6.00088 
          20     0.847939  4.10509e-05  1.08509e-05     -6.00088 
          20     0.888797  4.16331e-05  1.14309e-05     -6.00088 
          20      0.93062  4.22019e-05  1.20038e-05     -6.00088 
          20       0.9734  4.27262e-05  1.25666e-05     -6.00088 
          20      1.01714  4.31812e-05  1.31171e-05     -6.00088 
          20      1.06185  4.35492e-05   1.3654e-05     -6.00088 
          20      1.10751  4.38193e-05  1.41764e-05     -6.00088 
          20      1.15414  4.39862e-05  1.46836e-05     -6.00088 
          20      1.20173   4.4046e-05  1.51738e-05     -6.00087 
          20      1.25028  4.39905e-05  1.56427e-05     -6.00087 
          20      1.29979  4.37969e-05  1.60808e-05     -6.00087 
          20      1.35026  4.35084e-05  1.64972e-05     -6.00087 
          20       1.4017  4.33664e-05  1.69221e-05     -6.00087 
          20      1.45409  4.33026e-05  1.73186e-05     -6.00087 
          20      1.50745  4.32997e-05   1.7681e-05     -6.00086 
          20      1.56176  4.33493e-05  1.80059e-05     -6.00086 
          20      1.61705  4.34516e-05  1.82925e-05     -6.00086 
          20      1.67329  4.36151e-05  1.85416e-05     -6.00086 
          20      1.73049  4.38562e-05   1.8756e-05     -6.00086 
          20      1.78865  4.41978e-05  1.89396e-05     -6.00085 
          20      1.84778  4.46682e-05   1.9097e-05     -6.00085 
          20      1.90786  4.52993e-05  1.92331e-05     -6.00085 
          20      1.96891  4.61244e-05  1.93525e-05     -6.00084 
          20      2.03092  4.71756e-05   1.9459e-05     -6.00084 
          20      2.09389   4.8481e-05  1.95551e-05     -6.00084 
          20      2.15782  5.00609e-05  1.96417e-05     -6.00083 
          20      2.22272  5.19242e-05  1.97177e-05     -6.00083 
          20      2.28857   5.4064e-05  1.97802e-05     -6.00083 
          20      2.35539  5.64531e-05  1.98244e-05     -6.00082 
          20      2.42317  5.90386e-05  1.98443e-05     -6.00082 
          20      2.49191  6.17358e-05  1.98335e-05     -6.00082 
          20      2.56161  6.44234e-05  1.97868e-05     -6.00081 
          20      2.63226   6.6937e-05  1.97021e-05     -6.00081 
          20      2.70389  6.90622e-05  1.95832e-05      -6.0008 
          20      2.77648  7.04945e-05  1.94321e-05      -6.0008 
          20      2.85002  7.15648e-05  1.93465e-05     -6.00079 
          20      2.92453  7.20172e-05  1.90288e-05     -6.00079 
          20            3  7.21138e-05  1.85793e-05     -6.00078 
          40            0  5.18968e-20 -3.01206e-25     -5.86139 
          40      0.00048  4.87546e-06 -4.36341e-11     -5.86139 
          40     0.001922  1.74674e-05 -3.46706e-10     -5.86139 
          40     0.004326  3.26338e-05  -1.4269e-09     -5.86139 
          40      0.00769  4.47357e-05 -4.14389e-09     -5.86139 
          40     0.012017  5.05351e-05 -9.68642e-09     -5.86139 
          40     0.017304  5.07647e-05  -1.9511e-08     -5.86139 
          40     0.023553  4.94256e-05 -3.52611e-08     -5.86139 
          40     0.030763  5.08452e-05  -5.8623e-08     -5.86139 
          40     0.038936  5.62209e-05  -9.1193e-08     -5.86139 
          40     0.048069  6.24857e-05  -1.3432e-07     -5.86139 
          40     0.058163  6.58976e-05 -1.89061e-07     -5.86139 
          40     0.069219   6.8757e-05 -2.56134e-07     -5.86139 
          40     0.081236  7.76992e-05 -3.35769e-07     -5.86139 
          40     0.094215  8.13947e-05 -4.27494e-07     -5.86139 
          40     0.108155  8.77398e-05 -5.30625e-07     -5.86139 
          40     0.123056  9.33725e-05 -6.43611e-07     -5.86139 
          40     0.138918  9.87341e-05 -7.64499e-07     -5.86139 
          40     0.155744   0.00010396 -8.90873e-07     -5.86139 
          40     0.173529  0.000108937 -1.01986e-06     -5.86139 
          40     0.192276   0.00011346 -1.14835e-06     -5.86139 
          40     0.211984   0.00011742 -1.27307e-06     -5.86139 
          40     0.232655   0.00012091 -1.39074e-06     -5.86139 
          40     0.254285  0.000124005 -1.49813e-06     -5.86139 
          40     0.276877  0.000126391 -1.59232e-06     -5.86139 
          40     0.300431  0.000128341 -1.67048e-06     -5.86139 
          40     0.324946  0.000129775  -1.7304e-06     -5.86139 
          40     0.350424  0.000130743  -1.7704e-06     -5.86139 
          40     0.376861  0.000131295 -1.78916e-06     -5.86139 
          40      0.40426  0.000131485 -1.78588e-06     -5.86139 
          40     0.432621  0.000131363 -1.76022e-06     -5.86139 
          40     0.461945  0.000130978  -1.7124e-06     -5.86139 
          40     0.492228  0.000130374 -1.64316e-06     -5.86139 
          40     0.523472  0.000129594 -1.55362e-06     -5.86139 
          40     0.555678  0.000128671  -1.4452e-06     -5.86139 
          40     0.588845   0.00012763 -1.31928e-06     -5.86139 
          40     0.622976  0.000126475 -1.17668e-06     -5.86139 
          40     0.658066  0.000125224 -1.01954e-06     -5.86139 
          40     0.694117  0.000123873 -8.54024e-07     -5.86139 
          40      0.73113  0.000122414 -6.79696e-07     -5.86139 
          40     0.769107  0.000120839 -4.97265e-07     -5.86139 
          40     0.808042  0.000119137 -3.08391e-07     -5.86139 
          40     0.847939    0.0001173 -1.15271e-07     -5.86139 
          40     0.888797  0.000115326  7.96775e-08     -5.86139 
          40      0.93062  0.000113211  2.74261e-07     -5.86139 
          40       0.9734  0.000110962  4.66807e-07     -5.86139 
          40      1.01714  0.000108589  6.56575e-07     -5.86139 
          40      1.06185  0.000106106  8.43767e-07     -5.86139 
          40      1.10751  0.000103532  1.02945e-06     -5.86139 
          40      1.15414  0.000100888  1.21498e-06     -5.86138 
          40      1.20173  9.81878e-05  1.40094e-06     -5.86138 
          40      1.25028  9.54354e-05  1.58534e-06     -5.86138 
          40      1.29979  9.26102e-05  1.76094e-06     -5.86138 
          40      1.35026  8.96808e-05  1.93217e-06     -5.86138 
          40       1.4017  8.65354e-05  2.12423e-06     -5.86138 
          40      1.45409  8.31321e-05  2.31038e-06     -5.86138 
          40      1.50745  7.95156e-05  2.48587e-06     -5.86138 
          40      1.56176  7.57296e-05  2.64787e-06     -5.86138 
          40      1.61705  7.18155e-05  2.79537e-06     -5.86138 
          40      1.67329  6.78137e-05  2.92884e-06     -5.86137 
          40      1.73049   6.3762e-05  3.04997e-06     -5.86137 
          40      1.78865  5.96964e-05  3.16136e-06     -5.86137 
          40      1.84778  5.56514e-05  3.26611e-06     -5.86137 
          40      1.90786  5.16608e-05  3.36748e-06     -5.86137 
          40      1.96891  4.77566e-05  3.46853e-06     -5.86137 
          40      2.03092  4.39711e-05  3.57189e-06     -5.86137 
          40      2.09389  4.03366e-05  3.67949e-06     -5.86136 
          40      2.15782  3.68877e-05  3.79253e-06     -5.86136 
          40      2.22272  3.36601e-05  3.91161e-06     -5.86136 
          40      2.28857  3.06936e-05  4.03705e-06     -5.86136 
          40      2.35539  2.80325e-05  4.16961e-06     -5.86136 
          40      2.42317  2.57269e-05   4.3115e-06     -5.86135 
          40      2.49191  2.38349e-05  4.46787e-06     -5.86135 
          40      2.56161  2.24231e-05    4.649e-06     -5.86135 
          40      2.63226  2.15688e-05  4.87301e-06     -5.86135 
          40      2.70389  2.13616e-05  5.16948e-06     -5.86134 
          40      2.77648  2.19046e-05  5.49315e-06     -5.86134 
          40      2.85002  2.29388e-05  5.89631e-06     -5.86134 
          40      2.92453   2.4227e-05  6.44864e-06     -5.86134 
          40            3  2.56607e-05  7.02527e-06     -5.86133 
          60            0            0            0     -5.72827 
          60      0.00048  4.42776e-06 -5.86799e-11     -5.72827 
          60     0.001922  1.57616e-05 -7.16382e-10     -5.72827 
          60     0.004326  2.90833e-05 -3.41265e-09     -5.72827 
          60      0.00769  3.90206e-05 -1.05175e-08     -5.72827 
          60     0.012017  4.25356e-05 -2.52975e-08     -5.72827 
          60     0.017304    4.044e-05 -5.18021e-08     -5.72827 
          60     0.023553  3.67081e-05 -9.47669e-08     -5.72827 
          60     0.030763  3.56389e-05 -1.59404e-07     -5.72827 
          60     0.038936  3.85163e-05 -2.51239e-07     -5.72827 
          60     0.048069  4.25112e-05 -3.75815e-07     -5.72827 
          60     0.058163  4.41348e-05  -5.3859e-07     -5.72827 
          60     0.069219   4.5711e-05 -7.44727e-07     -5.72827 
          60     0.081236  5.37247e-05 -9.98802e-07     -5.72827 
          60     0.094215   5.7317e-05 -1.30456e-06     -5.72827 
          60     0.108155  6.41426e-05 -1.66506e-06     -5.72827 
          60     0.123056  7.09744e-05 -2.08209e-06     -5.72827 
          60     0.138918  7.82271e-05 -2.55646e-06     -5.72827 
          60     0.155744  8.59974e-05 -3.08795e-06     -5.72827 
          60     0.173529  9.41185e-05 -3.67499e-06     -5.72827 
          60     0.192276  0.000102319  -4.3153e-06     -5.72827 
          60     0.211984  0.000110406  -5.0056e-06     -5.72827 
          60     0.232655  0.000118373  -5.7421e-06     -5.72827 
          60     0.254285   0.00012619 -6.52037e-06     -5.72827 
          60     0.276877  0.000133451 -7.33608e-06     -5.72827 
          60     0.300431  0.000140323 -8.18448e-06     -5.72827 
          60     0.324946  0.000146632 -9.06136e-06     -5.72827 
          60     0.350424  0.000152343 -9.96306e-06     -5.72827 
          60     0.376861  0.000157427  -1.0886e-05     -5.72827 
          60      0.40426  0.000161865 -1.18275e-05     -5.72827 
          60     0.432621  0.000165647 -1.27853e-05     -5.72827 
          60     0.461945   0.00016877 -1.37579e-05     -5.72827 
          60     0.492228  0.000171236 -1.47446e-05     -5.72827 
          60     0.523472   0.00017305 -1.57452e-05     -5.72827 
          60     0.555678   0.00017422   -1.676e-05     -5.72827 
          60     0.588845   0.00017475 -1.77888e-05     -5.72827 
          60     0.622976  0.000174639 -1.88308e-05     -5.72827 
          60     0.658066   0.00017391 -1.98881e-05     -5.72827 
          60     0.694117  0.000172577   -2.096e-05     -5.72827 
          60      0.73113  0.000170661 -2.20447e-05     -5.72826 
          60     0.769107  0.000168201 -2.31402e-05     -5.72826 
          60     0.808042  0.000165248 -2.42436e-05     -5.72826 
          60     0.847939  0.000161865 -2.53521e-05     -5.72826 
          60     0.888797  0.000158123 -2.64621e-05     -5.72826 
          60      0.93062  0.000154102 -2.75694e-05     -5.72826 
          60       0.9734  0.000149883 -2.86693e-05     -5.72826 
          60      1.01714  0.000145546 -2.97565e-05     -5.72826 
          60      1.06185  0.000141167 -3.08254e-05     -5.72826 
          60      1.10751  0.000136816 -3.18705e-05     -5.72826 
          60      1.15414  0.000132551 -3.28864e-05     -5.72826 
          60      1.20173  0.000128419 -3.38684e-05     -5.72826 
          60      1.25028  0.000124456 -3.48137e-05     -5.72826 
          60      1.29979  0.000120694  -3.5722e-05     -5.72826 