Variables = x, y, u, v, p

Zone, I=2080, F=POINT
         -50            0            0            0      48.3956 
         -50      0.00048  1.82249e-05  4.23901e-09      48.3956 
         -50     0.001922  6.42403e-05  1.55746e-08      48.3956 
         -50     0.004326  0.000116418   3.0479e-08      48.3956 
         -50      0.00769  0.000151756  4.49876e-08      48.3956 
         -50     0.012017  0.000158458  5.66029e-08      48.3956 
         -50     0.017304  0.000142242  6.52824e-08      48.3956 
         -50     0.023553  0.000122064  7.29657e-08      48.3956 
         -50     0.030763  0.000116081  8.15918e-08      48.3956 
         -50     0.038936  0.000126287  9.08091e-08      48.3956 
         -50     0.048069  0.000135381  9.72258e-08      48.3956 
         -50     0.058163   0.00012637  9.68381e-08      48.3956 
         -50     0.069219  0.000114779  8.95969e-08      48.3956 
         -50     0.081236  0.000133167  7.85785e-08      48.3956 
         -50     0.094215  0.000119599  5.50679e-08      48.3956 
         -50     0.108155  0.000124492  2.14603e-08      48.3955 
         -50     0.123056  0.000124257 -2.58539e-08      48.3955 
         -50     0.138918  0.000123589  -8.8163e-08      48.3955 
         -50     0.155744  0.000124344 -1.66843e-07      48.3955 
         -50     0.173529  0.000126105 -2.63196e-07      48.3955 
         -50     0.192276  0.000127589 -3.78354e-07      48.3955 
         -50     0.211984  0.000128378    -5.13e-07      48.3955 
         -50     0.232655  0.000129758 -6.67259e-07      48.3955 
         -50     0.254285    0.0001325 -8.40674e-07      48.3955 
         -50     0.276877  0.000133579 -1.03288e-06      48.3955 
         -50     0.300431  0.000135708  -1.2434e-06      48.3955 
         -50     0.324946  0.000137623  -1.4707e-06      48.3955 
         -50     0.350424   0.00013945 -1.71335e-06      48.3955 
         -50     0.376861  0.000141235 -1.97001e-06      48.3954 
         -50      0.40426  0.000142971 -2.23943e-06      48.3954 
         -50     0.432621  0.000144613  -2.5203e-06      48.3954 
         -50     0.461945   0.00014611 -2.81117e-06      48.3954 
         -50     0.492228  0.000147431 -3.11031e-06      48.3954 
         -50     0.523472  0.000148586  -3.4159e-06      48.3953 
         -50     0.555678  0.000149613 -3.72625e-06      48.3953 
         -50     0.588845  0.000150526 -4.04035e-06      48.3953 
         -50     0.622976    0.0001512 -4.35809e-06      48.3953 
         -50     0.658066  0.000151776 -4.66948e-06      48.3952 
         -50     0.694117  0.000152195 -4.98674e-06      48.3952 
         -50      0.73113  0.000152461   -5.304e-06      48.3951 
         -50     0.769107  0.000152579 -5.61774e-06      48.3951 
         -50     0.808042  0.000152552 -5.92624e-06       48.395 
         -50     0.847939  0.000152382 -6.22919e-06       48.395 
         -50     0.888797  0.000152075 -6.52682e-06      48.3949 
         -50      0.93062  0.000151633 -6.81928e-06      48.3949 
         -50       0.9734  0.000151066  -7.1058e-06      48.3948 
         -50      1.01714  0.000150382 -7.38437e-06      48.3947 
         -50      1.06185  0.000149599 -7.65138e-06      48.3947 
         -50      1.10751   0.00014874 -7.90208e-06      48.3946 
         -50      1.15414  0.000147837 -8.13164e-06      48.3945 
         -50      1.20173  0.000146936 -8.33738e-06      48.3944 
         -50      1.25028  0.000146096 -8.52246e-06      48.3943 
         -50      1.29979  0.000145392 -8.70142e-06      48.3942 
         -50      1.35026  0.000144531 -8.95631e-06      48.3941 
         -50       1.4017  0.000143655  -9.0794e-06       48.394 
         -50      1.45409  0.000143273 -9.01284e-06      48.3939 
         -50      1.50745  0.000143128 -8.88548e-06      48.3938 
         -50      1.56176  0.000143032 -8.78038e-06      48.3936 
         -50      1.61705  0.000142863 -8.73953e-06      48.3935 
         -50      1.67329  0.000142556 -8.77002e-06      48.3933 
         -50      1.73049  0.000142098  -8.8516e-06      48.3932 
         -50      1.78865  0.000141516 -8.94552e-06       48.393 
         -50      1.84778  0.000140862  -9.0041e-06      48.3928 
         -50      1.90786  0.000140207 -8.98092e-06      48.3927 
         -50      1.96891  0.000139622 -8.84093e-06      48.3925 
         -50      2.03092  0.000139163 -8.56996e-06      48.3923 
         -50      2.09389  0.000138861 -8.18271e-06      48.3921 
         -50      2.15782  0.000138709 -7.72885e-06      48.3919 
         -50      2.22272  0.000138652 -7.29518e-06      48.3916 
         -50      2.28857  0.000138582 -7.00385e-06      48.3914 
         -50      2.35539  0.000138339 -7.00418e-06      48.3911 
         -50      2.42317  0.000137718 -7.45716e-06      48.3909 
         -50      2.49191  0.000136489 -8.51015e-06      48.3906 
         -50      2.56161  0.000134422 -1.02604e-05      48.3903 
         -50      2.63226  0.000131334 -1.27042e-05        48.39 
         -50      2.70389  0.000127147 -1.56704e-05      48.3897 
         -50      2.77648  0.000122556 -1.92608e-05      48.3894 
         -50      2.85002  0.000119018 -2.31255e-05      48.3891 
         -50      2.92453  0.000116106 -2.64295e-05      48.3888 
         -50            3  0.000113942 -2.93877e-05      48.3884 
         -25            0  1.44222e-19  1.75429e-23      46.4286 
         -25      0.00048  1.34883e-05  1.64872e-09      46.4286 
         -25     0.001922  4.76421e-05  5.90449e-09      46.4286 
         -25     0.004326  8.66948e-05  1.09486e-08      46.4286 
         -25      0.00769  0.000113876  1.45384e-08      46.4286 
         -25     0.012017  0.000120576   1.4803e-08      46.4286 
         -25     0.017304  0.000110946  1.07093e-08      46.4286 
         -25     0.023553  9.87787e-05  1.95119e-09      46.4286 
         -25     0.030763  9.72755e-05 -1.17256e-08      46.4286 
         -25     0.038936  0.000107852  -3.1341e-08      46.4286 
         -25     0.048069  0.000117853 -5.88708e-08      46.4286 
         -25     0.058163   0.00011484 -9.62546e-08      46.4286 
         -25     0.069219   0.00011007 -1.43554e-07      46.4286 
         -25     0.081236  0.000127204 -1.99244e-07      46.4286 
         -25     0.094215  0.000121046 -2.66059e-07      46.4286 
         -25     0.108155  0.000128274 -3.42129e-07      46.4286 
         -25     0.123056  0.000131644 -4.27574e-07      46.4286 
         -25     0.138918  0.000134529 -5.21433e-07      46.4286 
         -25     0.155744  0.000138245 -6.22727e-07      46.4286 
         -25     0.173529  0.000142458 -7.30404e-07      46.4286 
         -25     0.192276  0.000146219 -8.43406e-07      46.4286 
         -25     0.211984  0.000149218  -9.6056e-07      46.4286 
         -25     0.232655  0.000152398 -1.08067e-06      46.4286 
         -25     0.254285  0.000156336 -1.20278e-06      46.4286 
         -25     0.276877  0.000158847 -1.32654e-06      46.4286 
         -25     0.300431  0.000161931 -1.45025e-06      46.4286 
         -25     0.324946  0.000164695  -1.5742e-06      46.4286 
         -25     0.350424  0.000167252 -1.69877e-06      46.4286 
         -25     0.376861  0.000169654 -1.82403e-06      46.4285 
         -25      0.40426  0.000171909 -1.95016e-06      46.4285 
         -25     0.432621  0.000173986 -2.07762e-06      46.4285 
         -25     0.461945  0.000175843 -2.20752e-06      46.4285 
         -25     0.492228  0.000177442  -2.3417e-06      46.4285 
         -25     0.523472  0.000178766 -2.48258e-06      46.4285 
         -25     0.555678  0.000179811 -2.63238e-06      46.4285 
         -25     0.588845  0.000180551 -2.79147e-06      46.4285 
         -25     0.622976  0.000180859 -2.95745e-06      46.4285 
         -25     0.658066    0.0001808  -3.1504e-06      46.4285 
         -25     0.694117  0.000180307 -3.34705e-06      46.4284 
         -25      0.73113  0.000179366 -3.55721e-06      46.4284 
         -25     0.769107  0.000177983 -3.78602e-06      46.4284 
         -25     0.808042   0.00017618 -4.03454e-06      46.4284 
         -25     0.847939  0.000173995 -4.30073e-06      46.4284 
         -25     0.888797   0.00017148 -4.58047e-06      46.4283 
         -25      0.93062  0.000168691 -4.86885e-06      46.4283 
         -25       0.9734  0.000165693 -5.16125e-06      46.4283 
         -25      1.01714  0.000162546  -5.4545e-06      46.4283 
         -25      1.06185  0.000159303 -5.74724e-06      46.4282 
         -25      1.10751  0.000156009 -6.03977e-06      46.4282 
         -25      1.15414  0.000152694 -6.33263e-06      46.4282 
         -25      1.20173  0.000149374 -6.62341e-06      46.4281 
         -25      1.25028  0.000146052 -6.90161e-06      46.4281 
         -25      1.29979  0.000142725 -7.14038e-06      46.4281 
         -25      1.35026  0.000139295 -7.36474e-06       46.428 
         -25       1.4017  0.000135507  -7.6353e-06       46.428 
         -25      1.45409  0.000131516 -7.85899e-06      46.4279 
         -25      1.50745  0.000127409 -8.04595e-06      46.4279 
         -25      1.56176  0.000123263 -8.20479e-06      46.4278 
         -25      1.61705  0.000119143 -8.34243e-06      46.4278 
         -25      1.67329  0.000115101 -8.46388e-06      46.4277 
         -25      1.73049  0.000111181 -8.57224e-06      46.4277 
         -25      1.78865  0.000107418 -8.66861e-06      46.4276 
         -25      1.84778  0.000103839 -8.75204e-06      46.4275 
         -25      1.90786  0.000100468 -8.81966e-06      46.4275 
         -25      1.96891  9.73223e-05 -8.86673e-06      46.4274 
         -25      2.03092  9.44217e-05 -8.88688e-06      46.4273 
         -25      2.09389   9.1784e-05 -8.87233e-06      46.4272 
         -25      2.15782  8.94292e-05  -8.8143e-06      46.4271 
         -25      2.22272  8.73782e-05 -8.70338e-06       46.427 
         -25      2.28857  8.56537e-05 -8.53014e-06       46.427 
         -25      2.35539  8.42773e-05 -8.28576e-06      46.4269 
         -25      2.42317  8.32665e-05 -7.96275e-06      46.4268 
         -25      2.49191  8.26292e-05 -7.55599e-06      46.4266 
         -25      2.56161   8.2355e-05 -7.06355e-06      46.4265 
         -25      2.63226  8.24042e-05 -6.48801e-06      46.4264 
         -25      2.70389  8.26928e-05  -5.8376e-06      46.4263 
         -25      2.77648  8.33502e-05 -4.55273e-06      46.4262 
         -25      2.85002  8.42033e-05 -4.37987e-06       46.426 
         -25      2.92453  8.49025e-05 -3.93816e-06      46.4259 
         -25            3  8.54504e-05 -3.07523e-06      46.4258 
           0            0  1.18965e-19   8.4404e-24      44.8824 
           0      0.00048  1.11187e-05   7.9235e-10      44.8824 
           0     0.001922  3.91866e-05  2.82581e-09      44.8824 
           0     0.004326  7.09953e-05   5.1866e-09      44.8824 
           0      0.00769  9.25008e-05  6.71689e-09      44.8824 
           0     0.012017  9.65048e-05  6.37724e-09      44.8824 
           0     0.017304   8.6511e-05  3.44715e-09      44.8824 
           0     0.023553  7.41101e-05 -2.55557e-09      44.8824 
           0     0.030763  7.04038e-05  -1.2223e-08      44.8824 
           0     0.038936  7.66183e-05  -2.6671e-08      44.8824 
           0     0.048069  8.21929e-05 -4.76358e-08      44.8824 
           0     0.058163  7.67499e-05 -7.69992e-08      44.8824 
           0     0.069219   6.9777e-05 -1.15887e-07      44.8824 
           0     0.081236  8.11609e-05 -1.64777e-07      44.8824 
           0     0.094215  7.30612e-05 -2.26286e-07      44.8824 
           0     0.108155  7.62718e-05 -3.00806e-07      44.8824 
           0     0.123056  7.63742e-05 -3.89709e-07      44.8824 
           0     0.138918  7.62261e-05 -4.93763e-07      44.8824 
           0     0.155744  7.69529e-05 -6.13591e-07      44.8824 
           0     0.173529  7.82895e-05 -7.49569e-07      44.8824 
           0     0.192276  7.94438e-05 -9.01914e-07      44.8824 
           0     0.211984  8.01538e-05 -1.07058e-06      44.8824 
           0     0.232655  8.11998e-05  -1.2553e-06      44.8824 
           0     0.254285  8.30499e-05 -1.45557e-06      44.8824 
           0     0.276877  8.38533e-05 -1.67082e-06      44.8824 
           0     0.300431  8.52677e-05 -1.90053e-06      44.8824 
           0     0.324946  8.65226e-05 -2.14389e-06      44.8824 
           0     0.350424  8.76941e-05 -2.40009e-06      44.8824 
           0     0.376861  8.88135e-05 -2.66836e-06      44.8824 
           0      0.40426  8.98759e-05 -2.94807e-06      44.8824 
           0     0.432621  9.08543e-05 -3.23865e-06      44.8824 
           0     0.461945  9.17168e-05 -3.53948e-06      44.8824 
           0     0.492228  9.24442e-05 -3.84989e-06      44.8824 
           0     0.523472    9.304e-05  -4.1692e-06      44.8824 
           0     0.555678  9.35259e-05 -4.49672e-06      44.8824 
           0     0.588845  9.39099e-05 -4.83199e-06      44.8824 
           0     0.622976  9.41197e-05 -5.17503e-06      44.8824 
           0     0.658066   9.4249e-05 -5.52255e-06      44.8824 
           0     0.694117  9.42574e-05 -5.87456e-06      44.8824 
           0      0.73113  9.41656e-05  -6.2303e-06      44.8823 
           0     0.769107  9.39936e-05  -6.5885e-06      44.8823 
           0     0.808042  9.37599e-05 -6.94736e-06      44.8823 
           0     0.847939  9.34812e-05 -7.30491e-06      44.8823 
           0     0.888797  9.31717e-05 -7.65901e-06      44.8823 
           0      0.93062  9.28429e-05 -8.00761e-06      44.8823 
           0       0.9734  9.25033e-05 -8.34876e-06      44.8823 
           0      1.01714  9.21584e-05 -8.68098e-06      44.8823 
           0      1.06185  9.18112e-05 -9.00311e-06      44.8823 
           0      1.10751  9.14632e-05 -9.31436e-06      44.8822 
           0      1.15414  9.11156e-05 -9.61412e-06      44.8822 
           0      1.20173  9.07715e-05 -9.90137e-06      44.8822 
           0      1.25028  9.04386e-05 -1.01742e-05      44.8822 
           0      1.29979  9.01331e-05 -1.04284e-05      44.8822 
           0      1.35026  8.98365e-05  -1.0681e-05      44.8821 
           0       1.4017   8.9363e-05 -1.09151e-05      44.8821 
           0      1.45409  8.87579e-05    -1.11e-05      44.8821 
           0      1.50745  8.80809e-05 -1.12542e-05      44.8821 
           0      1.56176   8.7387e-05 -1.13886e-05      44.8821 
           0      1.61705  8.67251e-05 -1.15085e-05       44.882 
           0      1.67329  8.61357e-05 -1.16139e-05       44.882 
           0      1.73049  8.56489e-05 -1.17015e-05       44.882 
           0      1.78865  8.52831e-05  -1.1766e-05      44.8819 
           0      1.84778  8.50439e-05 -1.18016e-05      44.8819 
           0      1.90786  8.49226e-05 -1.18041e-05      44.8819 
           0      1.96891  8.48966e-05 -1.17715e-05      44.8818 
           0      2.03092    8.493e-05 -1.17056e-05      44.8818 
           0      2.09389  8.49747e-05 -1.16127e-05      44.8818 
           0      2.15782  8.49741e-05 -1.15032e-05      44.8817 
           0      2.22272   8.4867e-05 -1.13908e-05      44.8817 
           0      2.28857  8.45938e-05 -1.12903e-05      44.8816 
           0      2.35539  8.41056e-05 -1.12142e-05      44.8816 
           0      2.42317  8.33743e-05 -1.11666e-05      44.8815 
           0      2.49191  8.24075e-05 -1.11362e-05      44.8815 
           0      2.56161  8.12654e-05 -1.10851e-05      44.8814 
           0      2.63226  8.00824e-05 -1.09356e-05      44.8814 
           0      2.70389  7.90928e-05 -1.05523e-05      44.8813 
           0      2.77648  7.85321e-05 -1.01288e-05      44.8813 
           0      2.85002  7.82241e-05 -9.87974e-06      44.8812 
           0      2.92453  7.82007e-05 -9.29695e-06      44.8811 
           0            3  7.84061e-05 -8.54025e-06      44.8811 
          20            0  1.09375e-19  5.04642e-24      43.7929 
          20      0.00048  1.02231e-05  4.76917e-10      43.7929 
          20     0.001922  3.60375e-05  1.74053e-09      43.7929 
          20     0.004326  6.53161e-05   3.3597e-09      43.7929 
          20      0.00769  8.51591e-05  4.83471e-09      43.7929 
          20     0.012017  8.89421e-05  5.81618e-09      43.7929 
          20     0.017304  7.98547e-05  6.22417e-09      43.7929 
          20     0.023553  6.85024e-05  6.20371e-09      43.7929 
          20     0.030763  6.50395e-05  5.91385e-09      43.7929 
          20     0.038936  7.05593e-05  5.28159e-09      43.7929 
          20     0.048069  7.53427e-05  3.93137e-09      43.7929 
          20     0.058163  6.98403e-05   1.4669e-09      43.7929 
          20     0.069219  6.27319e-05 -2.00741e-09      43.7929 
          20     0.081236  7.22417e-05 -5.97633e-09      43.7929 
          20     0.094215  6.36368e-05 -1.11941e-08      43.7929 
          20     0.108155  6.51625e-05 -1.71163e-08      43.7929 
          20     0.123056  6.35881e-05  -2.3837e-08      43.7929 
          20     0.138918  6.15423e-05 -3.11746e-08      43.7929 
          20     0.155744  6.00711e-05 -3.89663e-08      43.7929 
          20     0.173529  5.89526e-05 -4.70767e-08      43.7929 
          20     0.192276  5.74864e-05  -5.5411e-08      43.7929 
          20     0.211984  5.54635e-05 -6.39112e-08      43.7929 
          20     0.232655  5.36342e-05 -7.25635e-08      43.7929 
          20     0.254285  5.24648e-05 -8.14159e-08      43.7929 
          20     0.276877  5.02934e-05 -9.06518e-08      43.7929 
          20     0.300431  4.86767e-05 -1.00686e-07      43.7928 
          20     0.324946  4.69412e-05  -1.1181e-07      43.7928 
          20     0.350424  4.51873e-05  -1.2439e-07      43.7928 
          20     0.376861  4.34716e-05  -1.3888e-07      43.7928 
          20      0.40426  4.18139e-05 -1.55772e-07      43.7928 
          20     0.432621  4.02107e-05 -1.75519e-07      43.7928 
          20     0.461945  3.86516e-05 -1.98459e-07      43.7928 
          20     0.492228  3.71362e-05 -2.24753e-07      43.7928 
          20     0.523472  3.56836e-05 -2.54379e-07      43.7928 
          20     0.555678  3.43297e-05 -2.87189e-07      43.7928 
          20     0.588845  3.30977e-05 -3.23094e-07      43.7928 
          20     0.622976  3.19373e-05 -3.62682e-07      43.7928 
          20     0.658066  3.09473e-05 -4.05027e-07      43.7928 
          20     0.694117  3.01069e-05 -4.44291e-07      43.7928 
          20      0.73113  2.94464e-05 -4.82765e-07      43.7928 
          20     0.769107   2.8992e-05 -5.21041e-07      43.7928 
          20     0.808042  2.87648e-05 -5.58355e-07      43.7928 
          20     0.847939  2.87797e-05 -5.93049e-07      43.7928 
          20     0.888797  2.90447e-05  -6.2309e-07      43.7928 
          20      0.93062  2.95603e-05 -6.46632e-07      43.7928 
          20       0.9734   3.0319e-05 -6.62533e-07      43.7928 
          20      1.01714  3.13055e-05 -6.70758e-07      43.7928 
          20      1.06185  3.24971e-05 -6.72517e-07      43.7928 
          20      1.10751  3.38649e-05 -6.70027e-07      43.7927 
          20      1.15414  3.53758e-05 -6.65693e-07      43.7927 
          20      1.20173  3.69942e-05 -6.60499e-07      43.7927 
          20      1.25028   3.8687e-05 -6.51334e-07      43.7927 
          20      1.29979  4.04282e-05 -6.26948e-07      43.7927 
          20      1.35026  4.21731e-05   -6.027e-07      43.7927 
          20       1.4017  4.39366e-05 -6.09249e-07      43.7927 
          20      1.45409  4.57351e-05 -5.99518e-07      43.7927 
          20      1.50745   4.7521e-05 -5.79012e-07      43.7927 
          20      1.56176  4.92628e-05 -5.51873e-07      43.7926 
          20      1.61705   5.0945e-05  -5.2089e-07      43.7926 
          20      1.67329   5.2566e-05 -4.87579e-07      43.7926 
          20      1.73049  5.41377e-05 -4.52275e-07      43.7926 
          20      1.78865  5.56825e-05 -4.14295e-07      43.7926 
          20      1.84778  5.72312e-05 -3.72135e-07      43.7926 
          20      1.90786  5.88193e-05 -3.23732e-07      43.7925 
          20      1.96891  6.04844e-05 -2.66731e-07      43.7925 
          20      2.03092  6.22621e-05 -1.98825e-07      43.7925 
          20      2.09389  6.41824e-05 -1.18109e-07      43.7925 
          20      2.15782   6.6265e-05 -2.34993e-08      43.7924 
          20      2.22272  6.85171e-05  8.49137e-08      43.7924 
          20      2.28857  7.09282e-05  2.05408e-07      43.7924 
          20      2.35539  7.34687e-05   3.3425e-07      43.7924 
          20      2.42317  7.60871e-05  4.65315e-07      43.7923 
          20      2.49191  7.87089e-05  5.89709e-07      43.7923 
          20      2.56161  8.12381e-05  6.95563e-07      43.7923 
          20      2.63226  8.35593e-05  7.67817e-07      43.7922 
          20      2.70389   8.5543e-05  7.88169e-07      43.7922 
          20      2.77648  8.71059e-05  6.90577e-07      43.7922 
          20      2.85002   8.8139e-05  4.60374e-07      43.7921 
          20      2.92453  8.85508e-05  5.78937e-08      43.7921 
          20            3  8.87173e-05 -3.73471e-07       43.792 
          40            0  1.08215e-19  3.12593e-24       42.777 
          40      0.00048  1.01339e-05   2.7704e-10       42.777 
          40     0.001922  3.59462e-05  7.85723e-10       42.777 
          40     0.004326  6.59671e-05  6.18732e-10       42.777 
          40      0.00769  8.79876e-05 -1.54307e-09       42.777 
          40     0.012017  9.57268e-05 -7.22091e-09       42.777 
          40     0.017304   9.2163e-05 -1.79461e-08       42.777 
          40     0.023553  8.72761e-05  -3.5175e-08       42.777 
          40     0.030763  9.06011e-05 -6.02649e-08       42.777 
          40     0.038936  0.000103095 -9.44966e-08       42.777 
          40     0.048069  0.000115475 -1.38944e-07       42.777 
          40     0.058163  0.000118605 -1.94203e-07       42.777 
          40     0.069219  0.000120566 -2.59948e-07       42.777 
          40     0.081236  0.000138447 -3.34889e-07       42.777 
          40     0.094215  0.000139275 -4.17787e-07       42.777 
          40     0.108155  0.000149599 -5.05864e-07       42.777 
          40     0.123056  0.000156768 -5.96004e-07       42.777 
          40     0.138918  0.000163128 -6.84297e-07       42.777 
          40     0.155744  0.000169543 -7.66362e-07       42.777 
          40     0.173529  0.000175691 -8.37436e-07       42.777 
          40     0.192276  0.000180824 -8.92607e-07       42.777 
          40     0.211984   0.00018468  -9.2693e-07       42.777 
          40     0.232655  0.000187933 -9.35632e-07       42.777 
          40     0.254285  0.000191012  -9.1434e-07       42.777 
          40     0.276877  0.000192361  -8.5942e-07       42.777 
          40     0.300431  0.000193488 -7.67238e-07       42.777 
          40     0.324946  0.000193814   -6.354e-07       42.777 
          40     0.350424  0.000193505 -4.62366e-07       42.777 
          40     0.376861  0.000192694 -2.47227e-07       42.777 
          40      0.40426  0.000191483  1.03042e-08       42.777 
          40     0.432621  0.000189951  3.09766e-07       42.777 
          40     0.461945  0.000188164  6.49952e-07       42.777 
          40     0.492228  0.000186185  1.02887e-06       42.777 
          40     0.523472  0.000184084    1.444e-06       42.777 
          40     0.555678  0.000181924  1.89242e-06       42.777 
          40     0.588845  0.000179743  2.37125e-06       42.777 
          40     0.622976  0.000177488  2.87829e-06       42.777 
          40     0.658066  0.000175234  3.40833e-06       42.777 
          40     0.694117  0.000172934  3.95622e-06       42.777 
          40      0.73113  0.000170567  4.52019e-06       42.777 
          40     0.769107  0.000168112   5.0977e-06       42.777 
          40     0.808042  0.000165546  5.68559e-06       42.777 
          40     0.847939  0.000162849  6.28059e-06       42.777 
          40     0.888797  0.000160002   6.8794e-06       42.777 
          40      0.93062  0.000156996  7.47908e-06       42.777 
          40       0.9734  0.000153826  8.07711e-06       42.777 
          40      1.01714  0.000150497  8.67195e-06       42.777 
          40      1.06185  0.000147021  9.26268e-06       42.777 
          40      1.10751  0.000143418  9.84908e-06       42.777 
          40      1.15414  0.000139707   1.0431e-05       42.777 
          40      1.20173  0.000135905  1.10076e-05       42.777 
          40      1.25028   0.00013201  1.15756e-05       42.777 
          40      1.29979  0.000127989  1.21275e-05      42.7769 
          40      1.35026  0.000123879  1.26664e-05      42.7769 
          40       1.4017  0.000119728  1.32204e-05      42.7769 
          40      1.45409  0.000115417  1.37618e-05      42.7769 
          40      1.50745  0.000111016  1.42792e-05      42.7769 
          40      1.56176  0.000106584   1.4765e-05      42.7769 
          40      1.61705  0.000102168  1.52154e-05      42.7769 
          40      1.67329  9.78072e-05  1.56293e-05      42.7769 
          40      1.73049  9.35273e-05  1.60083e-05      42.7769 
          40      1.78865  8.93455e-05  1.63554e-05      42.7769 
          40      1.84778  8.52695e-05  1.66742e-05      42.7768 
          40      1.90786  8.13001e-05  1.69683e-05      42.7768 
          40      1.96891  7.74308e-05  1.72401e-05      42.7768 
          40      2.03092  7.36513e-05  1.74908e-05      42.7768 
          40      2.09389  6.99491e-05  1.77191e-05      42.7768 
          40      2.15782  6.63133e-05  1.79217e-05      42.7768 
          40      2.22272  6.27354e-05  1.80929e-05      42.7768 
          40      2.28857  5.92143e-05   1.8226e-05      42.7767 
          40      2.35539  5.57587e-05   1.8314e-05      42.7767 
          40      2.42317  5.23905e-05  1.83526e-05      42.7767 
          40      2.49191  4.91497e-05  1.83428e-05      42.7767 
          40      2.56161  4.60957e-05   1.8296e-05      42.7767 
          40      2.63226  4.33119e-05  1.82398e-05      42.7766 
          40      2.70389   4.0908e-05  1.82258e-05      42.7766 
          40      2.77648  3.89488e-05  1.81878e-05      42.7766 
          40      2.85002  3.73882e-05  1.80711e-05      42.7766 
          40      2.92453  3.61872e-05  1.80641e-05      42.7766 
          40            3  3.52077e-05  1.80808e-05      42.7765 
          60            0            0            0      41.8067 
          60      0.00048   9.4305e-06  1.49658e-10      41.8067 
          60     0.001922  3.33101e-05  8.49196e-11      41.8067 
          60     0.004326  6.06208e-05  -1.6893e-09      41.8067 
          60      0.00769  7.96565e-05 -7.51076e-09      41.8067 
          60     0.012017  8.44402e-05 -2.03936e-08      41.8067 
          60     0.017304  7.79395e-05 -4.38318e-08      41.8067 
          60     0.023553  6.98801e-05 -8.16952e-08      41.8067 
          60     0.030763  6.95714e-05 -1.38109e-07      41.8067 
          60     0.038936  7.80616e-05 -2.17403e-07      41.8067 
          60     0.048069   8.6534e-05 -3.23872e-07      41.8067 
          60     0.058163  8.63113e-05 -4.61564e-07      41.8067 
          60     0.069219  8.53002e-05 -6.33876e-07      41.8067 
          60     0.081236  0.000100077 -8.43404e-07      41.8067 
          60     0.094215  9.89606e-05 -1.09255e-06      41.8067 
          60     0.108155  0.000107616 -1.38237e-06      41.8067 
          60     0.123056  0.000113908 -1.71335e-06      41.8067 
          60     0.138918  0.000120139 -2.08507e-06      41.8067 
          60     0.155744  0.000127157 -2.49642e-06      41.8067 
          60     0.173529  0.000134649 -2.94546e-06      41.8067 
          60     0.192276  0.000141871 -3.42993e-06      41.8067 
          60     0.211984  0.000148529 -3.94712e-06      41.8067 
          60     0.232655  0.000155211 -4.49421e-06      41.8067 
          60     0.254285  0.000162257 -5.06821e-06      41.8067 
          60     0.276877  0.000168082 -5.66649e-06      41.8067 
          60     0.300431  0.000174046 -6.28665e-06      41.8067 
          60     0.324946  0.000179488 -6.92671e-06      41.8067 
          60     0.350424  0.000184463 -7.58532e-06      41.8067 
          60     0.376861  0.000188992 -8.26152e-06      41.8067 
          60      0.40426  0.000193066 -8.95516e-06      41.8067 
          60     0.432621  0.000196656 -9.66667e-06      41.8067 
          60     0.461945  0.000199724 -1.03971e-05      41.8067 
          60     0.492228  0.000202238  -1.1148e-05      41.8067 
          60     0.523472  0.000204176 -1.19214e-05      41.8067 
          60     0.555678  0.000205524 -1.27197e-05      41.8067 
          60     0.588845  0.000206251 -1.35451e-05      41.8067 
          60     0.622976  0.000206258 -1.43998e-05      41.8067 
          60     0.658066  0.000205587 -1.52855e-05      41.8067 
          60     0.694117   0.00020419  -1.6205e-05      41.8067 
          60      0.73113  0.000202056 -1.71579e-05      41.8067 
          60     0.769107  0.000199202 -1.81429e-05      41.8067 
          60     0.808042  0.000195673 -1.91577e-05      41.8067 
          60     0.847939  0.000191539 -2.01998e-05      41.8067 
          60     0.888797  0.000186889 -2.12651e-05      41.8067 
          60      0.93062  0.000181831 -2.23488e-05      41.8067 
          60       0.9734  0.000176486 -2.34449e-05      41.8067 
          60      1.01714  0.000170976 -2.45468e-05      41.8067 
          60      1.06185  0.000165423 -2.56467e-05      41.8066 
          60      1.10751  0.000159939 -2.67369e-05      41.8066 
          60      1.15414  0.000154616 -2.78095e-05      41.8066 
          60      1.20173  0.000149527 -2.88575e-05      41.8066 
          60      1.25028  0.000144715 -2.98759e-05      41.8066 
          60      1.29979  0.000140197 -3.08631e-05      41.8066 