Variables = x, y, u, v, p

Zone, I=2080, F=POINT
         -50            0            0            0      -47.493 
         -50      0.00048 -8.09271e-06 -3.58268e-09      -47.493 
         -50     0.001922 -2.85778e-05 -1.33665e-08      -47.493 
         -50     0.004326 -5.19507e-05 -2.68654e-08      -47.493 
         -50      0.00769 -6.80159e-05 -4.12382e-08      -47.493 
         -50     0.012017 -7.13703e-05 -5.46498e-08      -47.493 
         -50     0.017304 -6.42401e-05 -6.70759e-08      -47.493 
         -50     0.023553 -5.47884e-05 -8.02437e-08      -47.493 
         -50     0.030763 -5.11701e-05  -9.6553e-08      -47.493 
         -50     0.038936 -5.48443e-05 -1.17686e-07      -47.493 
         -50     0.048069 -5.88834e-05 -1.43889e-07      -47.493 
         -50     0.058163 -5.58481e-05  -1.7486e-07      -47.493 
         -50     0.069219 -5.13658e-05 -2.11427e-07      -47.493 
         -50     0.081236 -5.87487e-05 -2.53275e-07      -47.493 
         -50     0.094215 -5.34682e-05 -2.92975e-07      -47.493 
         -50     0.108155 -5.54298e-05 -3.38185e-07      -47.493 
         -50     0.123056 -5.54678e-05  -3.8316e-07      -47.493 
         -50     0.138918 -5.55596e-05 -4.26993e-07      -47.493 
         -50     0.155744 -5.64979e-05 -4.68529e-07      -47.493 
         -50     0.173529 -5.81181e-05 -5.06453e-07      -47.493 
         -50     0.192276 -5.98827e-05 -5.39512e-07      -47.493 
         -50     0.211984  -6.1598e-05  -5.6669e-07      -47.493 
         -50     0.232655 -6.37665e-05 -5.87355e-07      -47.493 
         -50     0.254285 -6.66784e-05  -6.0115e-07      -47.493 
         -50     0.276877 -6.90709e-05 -6.07612e-07     -47.4929 
         -50     0.300431 -7.20472e-05 -6.07678e-07     -47.4929 
         -50     0.324946 -7.50559e-05 -6.01588e-07     -47.4929 
         -50     0.350424 -7.81255e-05 -5.89914e-07     -47.4929 
         -50     0.376861 -8.12516e-05 -5.73922e-07     -47.4929 
         -50      0.40426 -8.44052e-05 -5.55328e-07     -47.4929 
         -50     0.432621 -8.75423e-05 -5.35993e-07     -47.4929 
         -50     0.461945 -9.06172e-05 -5.17595e-07     -47.4928 
         -50     0.492228 -9.35945e-05  -5.0137e-07     -47.4928 
         -50     0.523472  -9.6457e-05 -4.88038e-07     -47.4928 
         -50     0.555678 -9.92014e-05 -4.78097e-07     -47.4928 
         -50     0.588845 -0.000101815 -4.72709e-07     -47.4927 
         -50     0.622976 -0.000104226 -4.75375e-07     -47.4927 
         -50     0.658066 -0.000106476 -4.81183e-07     -47.4927 
         -50     0.694117 -0.000108512 -4.89876e-07     -47.4926 
         -50      0.73113 -0.000110314  -5.0597e-07     -47.4926 
         -50     0.769107 -0.000111858 -5.31019e-07     -47.4925 
         -50     0.808042  -0.00011312  -5.6416e-07     -47.4925 
         -50     0.847939 -0.000114079 -6.02875e-07     -47.4924 
         -50     0.888797 -0.000114716 -6.43865e-07     -47.4924 
         -50      0.93062 -0.000115023 -6.83991e-07     -47.4923 
         -50       0.9734 -0.000114999 -7.21155e-07     -47.4923 
         -50      1.01714 -0.000114659 -7.55005e-07     -47.4922 
         -50      1.06185 -0.000114026  -7.8721e-07     -47.4921 
         -50      1.10751 -0.000113138 -8.21123e-07      -47.492 
         -50      1.15414  -0.00011204 -8.60504e-07      -47.492 
         -50      1.20173 -0.000110778 -9.06917e-07     -47.4919 
         -50      1.25028  -0.00010939 -9.55422e-07     -47.4918 
         -50      1.29979 -0.000107886 -9.87968e-07     -47.4917 
         -50      1.35026 -0.000106301  -1.0765e-06     -47.4916 
         -50       1.4017 -0.000104909 -1.20236e-06     -47.4915 
         -50      1.45409 -0.000103641 -1.23113e-06     -47.4913 
         -50      1.50745 -0.000102445 -1.23091e-06     -47.4912 
         -50      1.56176 -0.000101306  -1.2506e-06     -47.4911 
         -50      1.61705 -0.000100239 -1.32078e-06     -47.4909 
         -50      1.67329 -9.92769e-05 -1.45511e-06     -47.4908 
         -50      1.73049 -9.84659e-05 -1.65241e-06     -47.4906 
         -50      1.78865 -9.78499e-05 -1.89915e-06     -47.4905 
         -50      1.84778  -9.7462e-05  -2.1725e-06     -47.4903 
         -50      1.90786 -9.73137e-05 -2.44358e-06     -47.4901 
         -50      1.96891  -9.7386e-05 -2.68128e-06       -47.49 
         -50      2.03092 -9.76221e-05 -2.85584e-06     -47.4898 
         -50      2.09389 -9.79247e-05 -2.94257e-06     -47.4896 
         -50      2.15782 -9.81566e-05 -2.92518e-06     -47.4893 
         -50      2.22272 -9.81491e-05  -2.7985e-06     -47.4891 
         -50      2.28857 -9.77172e-05 -2.57037e-06     -47.4889 
         -50      2.35539 -9.66855e-05 -2.26212e-06     -47.4886 
         -50      2.42317 -9.49265e-05 -1.90738e-06     -47.4884 
         -50      2.49191 -9.24144e-05 -1.54873e-06     -47.4881 
         -50      2.56161 -8.92958e-05 -1.23128e-06     -47.4878 
         -50      2.63226 -8.59829e-05 -9.93008e-07     -47.4876 
         -50      2.70389 -8.32714e-05 -8.50779e-07     -47.4873 
         -50      2.77648 -8.17889e-05 -9.01249e-07     -47.4869 
         -50      2.85002 -8.00141e-05 -1.05676e-06     -47.4866 
         -50      2.92453 -7.82557e-05 -9.91847e-07     -47.4863 
         -50            3 -7.65081e-05 -6.86568e-07     -47.4859 
         -25            0 -6.43396e-20  -1.4737e-23      -45.571 
         -25      0.00048 -6.02229e-06  -1.3886e-09      -45.571 
         -25     0.001922 -2.13262e-05 -5.01141e-09      -45.571 
         -25     0.004326 -3.89866e-05 -9.41125e-09      -45.571 
         -25      0.00769 -5.15728e-05 -1.27136e-08      -45.571 
         -25     0.012017 -5.51438e-05  -1.3216e-08      -45.571 
         -25     0.017304 -5.13105e-05 -9.79343e-09      -45.571 
         -25     0.023553 -4.60034e-05 -1.95917e-09      -45.571 
         -25     0.030763  -4.5138e-05  1.04432e-08      -45.571 
         -25     0.038936 -4.97428e-05  2.76934e-08      -45.571 
         -25     0.048069 -5.47252e-05  5.03572e-08      -45.571 
         -25     0.058163 -5.46113e-05  7.88866e-08      -45.571 
         -25     0.069219 -5.34384e-05  1.12897e-07      -45.571 
         -25     0.081236 -6.08358e-05  1.52007e-07      -45.571 
         -25     0.094215 -5.88604e-05   1.9818e-07      -45.571 
         -25     0.108155 -6.19401e-05  2.47141e-07      -45.571 
         -25     0.123056 -6.33287e-05  2.99416e-07      -45.571 
         -25     0.138918 -6.44054e-05  3.53401e-07      -45.571 
         -25     0.155744 -6.56977e-05  4.07489e-07      -45.571 
         -25     0.173529 -6.70498e-05   4.6007e-07      -45.571 
         -25     0.192276 -6.80508e-05  5.09569e-07      -45.571 
         -25     0.211984 -6.85562e-05  5.54399e-07      -45.571 
         -25     0.232655 -6.89448e-05  5.93043e-07      -45.571 
         -25     0.254285 -6.94554e-05  6.24323e-07      -45.571 
         -25     0.276877 -6.92078e-05  6.47967e-07      -45.571 
         -25     0.300431 -6.90543e-05  6.61582e-07      -45.571 
         -25     0.324946 -6.86493e-05  6.65399e-07      -45.571 
         -25     0.350424  -6.8072e-05  6.60044e-07      -45.571 
         -25     0.376861 -6.73781e-05  6.45582e-07      -45.571 
         -25      0.40426 -6.66013e-05  6.21892e-07      -45.571 
         -25     0.432621 -6.57596e-05  5.89112e-07      -45.571 
         -25     0.461945 -6.48624e-05  5.48059e-07      -45.571 
         -25     0.492228 -6.39184e-05  5.00479e-07     -45.5709 
         -25     0.523472 -6.29401e-05  4.48851e-07     -45.5709 
         -25     0.555678 -6.19413e-05  3.95477e-07     -45.5709 
         -25     0.588845 -6.09209e-05  3.40413e-07     -45.5709 
         -25     0.622976 -5.98298e-05  2.79008e-07     -45.5709 
         -25     0.658066 -5.86995e-05  2.28372e-07     -45.5709 
         -25     0.694117 -5.74989e-05  1.76485e-07     -45.5709 
         -25      0.73113 -5.62193e-05  1.28637e-07     -45.5709 
         -25     0.769107  -5.4859e-05  8.77541e-08     -45.5708 
         -25     0.808042 -5.34241e-05  5.47193e-08     -45.5708 
         -25     0.847939 -5.19265e-05  2.87992e-08     -45.5708 
         -25     0.888797 -5.03838e-05  8.21988e-09     -45.5708 
         -25      0.93062 -4.88172e-05 -9.22087e-09     -45.5707 
         -25       0.9734 -4.72503e-05 -2.55376e-08     -45.5707 
         -25      1.01714 -4.57061e-05 -4.20647e-08     -45.5707 
         -25      1.06185 -4.42055e-05 -5.91764e-08     -45.5707 
         -25      1.10751  -4.2764e-05 -7.64132e-08     -45.5706 
         -25      1.15414 -4.13901e-05 -9.31924e-08     -45.5706 
         -25      1.20173  -4.0083e-05 -1.10349e-07     -45.5706 
         -25      1.25028 -3.88315e-05 -1.32815e-07     -45.5705 
         -25      1.29979 -3.76138e-05 -1.73764e-07     -45.5705 
         -25      1.35026 -3.64442e-05 -2.27119e-07     -45.5705 
         -25       1.4017 -3.52393e-05 -2.42065e-07     -45.5704 
         -25      1.45409 -3.39985e-05 -2.60887e-07     -45.5704 
         -25      1.50745 -3.28344e-05 -2.94183e-07     -45.5703 
         -25      1.56176 -3.18261e-05 -3.46979e-07     -45.5703 
         -25      1.61705 -3.10208e-05 -4.19344e-07     -45.5702 
         -25      1.67329 -3.04365e-05 -5.07188e-07     -45.5702 
         -25      1.73049 -3.00657e-05 -6.03363e-07     -45.5701 
         -25      1.78865 -2.98798e-05 -6.98914e-07       -45.57 
         -25      1.84778 -2.98353e-05 -7.84565e-07       -45.57 
         -25      1.90786 -2.98798e-05 -8.52347e-07     -45.5699 
         -25      1.96891 -2.99592e-05 -8.97456e-07     -45.5698 
         -25      2.03092 -3.00256e-05 -9.20117e-07     -45.5697 
         -25      2.09389 -3.00443e-05 -9.27567e-07     -45.5697 
         -25      2.15782 -3.00018e-05 -9.35995e-07     -45.5696 
         -25      2.22272  -2.9912e-05 -9.72405e-07     -45.5695 
         -25      2.28857 -2.98229e-05 -1.07627e-06     -45.5694 
         -25      2.35539 -2.98195e-05 -1.30092e-06     -45.5693 
         -25      2.42317 -3.00262e-05 -1.71448e-06     -45.5692 
         -25      2.49191 -3.06049e-05 -2.40011e-06     -45.5691 
         -25      2.56161 -3.17495e-05  -3.4558e-06      -45.569 
         -25      2.63226  -3.3675e-05 -4.99284e-06     -45.5689 
         -25      2.70389 -3.66011e-05 -7.13364e-06     -45.5688 
         -25      2.77648 -4.08898e-05 -1.06492e-05     -45.5686 
         -25      2.85002 -4.52537e-05  -1.2998e-05     -45.5685 
         -25      2.92453 -4.92727e-05 -1.57493e-05     -45.5684 
         -25            3 -5.30213e-05 -1.91008e-05     -45.5682 
           0            0 -5.57879e-20 -7.09448e-24     -44.0612 
           0      0.00048 -5.22897e-06 -6.62699e-10     -44.0612 
           0     0.001922 -1.85997e-05 -2.32084e-09     -44.0612 
           0     0.004326 -3.43043e-05 -4.07433e-09     -44.0612 
           0      0.00769 -4.61057e-05 -4.71425e-09     -44.0612 
           0     0.012017 -5.06879e-05 -3.03877e-09     -44.0612 
           0     0.017304 -4.93785e-05  1.90298e-09     -44.0612 
           0     0.023553 -4.71209e-05  1.07327e-08     -44.0612 
           0     0.030763 -4.88383e-05  2.38287e-08     -44.0612 
           0     0.038936 -5.53558e-05  4.14881e-08     -44.0612 
           0     0.048069 -6.23636e-05  6.39386e-08     -44.0612 
           0     0.058163 -6.52305e-05   9.1103e-08     -44.0612 
           0     0.069219 -6.72917e-05  1.22206e-07     -44.0612 
           0     0.081236 -7.65659e-05  1.56153e-07     -44.0612 
           0     0.094215 -7.79709e-05  1.92659e-07     -44.0612 
           0     0.108155 -8.35478e-05  2.28101e-07     -44.0612 
           0     0.123056 -8.75993e-05  2.60925e-07     -44.0612 
           0     0.138918 -9.12413e-05  2.88329e-07     -44.0612 
           0     0.155744 -9.48824e-05  3.07341e-07     -44.0612 
           0     0.173529 -9.83647e-05  3.14923e-07     -44.0612 
           0     0.192276 -0.000101326  3.08089e-07     -44.0611 
           0     0.211984 -0.000103635  2.83997e-07     -44.0611 
           0     0.232655 -0.000105608  2.40053e-07     -44.0611 
           0     0.254285 -0.000107451  1.74076e-07     -44.0611 
           0     0.276877 -0.000108441  8.43751e-08     -44.0611 
           0     0.300431 -0.000109308 -3.04206e-08     -44.0611 
           0     0.324946 -0.000109784 -1.70903e-07     -44.0611 
           0     0.350424  -0.00010996 -3.37218e-07     -44.0611 
           0     0.376861 -0.000109903 -5.28988e-07     -44.0611 
           0      0.40426 -0.000109664 -7.45399e-07     -44.0611 
           0     0.432621 -0.000109273 -9.85156e-07     -44.0611 
           0     0.461945 -0.000108754 -1.24656e-06     -44.0611 
           0     0.492228 -0.000108122 -1.52751e-06     -44.0611 
           0     0.523472 -0.000107391 -1.82573e-06     -44.0611 
           0     0.555678 -0.000106573 -2.13878e-06     -44.0611 
           0     0.588845 -0.000105664 -2.46419e-06     -44.0611 
           0     0.622976 -0.000104614 -2.79986e-06     -44.0611 
           0     0.658066 -0.000103442 -3.14338e-06     -44.0611 
           0     0.694117 -0.000102107 -3.48898e-06     -44.0611 
           0      0.73113 -0.000100586 -3.83693e-06     -44.0611 
           0     0.769107 -9.88594e-05  -4.1865e-06     -44.0611 
           0     0.808042 -9.69147e-05 -4.53611e-06     -44.0611 
           0     0.847939 -9.47432e-05 -4.88376e-06      -44.061 
           0     0.888797 -9.23438e-05  -5.2273e-06      -44.061 
           0      0.93062 -8.97219e-05 -5.56482e-06      -44.061 
           0       0.9734 -8.68906e-05 -5.89487e-06      -44.061 
           0      1.01714 -8.38686e-05 -6.21692e-06      -44.061 
           0      1.06185 -8.06801e-05 -6.53126e-06      -44.061 
           0      1.10751 -7.73521e-05 -6.83894e-06      -44.061 
           0      1.15414 -7.39118e-05 -7.14124e-06      -44.061 
           0      1.20173 -7.03829e-05 -7.43855e-06     -44.0609 
           0      1.25028 -6.67785e-05 -7.72879e-06     -44.0609 
           0      1.29979  -6.3095e-05 -8.00479e-06     -44.0609 
           0      1.35026 -5.93736e-05 -8.25896e-06     -44.0609 
           0       1.4017 -5.55964e-05 -8.52569e-06     -44.0609 
           0      1.45409 -5.17036e-05 -8.79458e-06     -44.0608 
           0      1.50745 -4.77737e-05 -9.05043e-06     -44.0608 
           0      1.56176 -4.38755e-05  -9.2834e-06     -44.0608 
           0      1.61705 -4.00674e-05 -9.48852e-06     -44.0608 
           0      1.67329 -3.63985e-05 -9.66485e-06     -44.0607 
           0      1.73049 -3.29077e-05 -9.81467e-06     -44.0607 
           0      1.78865 -2.96243e-05 -9.94243e-06     -44.0607 
           0      1.84778 -2.65693e-05 -1.00536e-05     -44.0606 
           0      1.90786 -2.37567e-05 -1.01535e-05     -44.0606 
           0      1.96891  -2.1193e-05 -1.02461e-05     -44.0606 
           0      2.03092 -1.88797e-05 -1.03334e-05     -44.0605 
           0      2.09389 -1.68134e-05 -1.04138e-05     -44.0605 
           0      2.15782 -1.49876e-05 -1.04823e-05     -44.0605 
           0      2.22272 -1.33926e-05 -1.05299e-05     -44.0604 
           0      2.28857 -1.20162e-05 -1.05443e-05     -44.0604 
           0      2.35539 -1.08433e-05 -1.05112e-05     -44.0603 
           0      2.42317 -9.85499e-06 -1.04162e-05     -44.0603 
           0      2.49191 -9.02658e-06 -1.02485e-05     -44.0602 
           0      2.56161 -8.32416e-06 -1.00055e-05     -44.0602 
           0      2.63226 -7.70001e-06 -9.69959e-06     -44.0601 
           0      2.70389 -7.08581e-06 -9.36653e-06     -44.0601 
           0      2.77648 -6.43332e-06 -8.80878e-06       -44.06 
           0      2.85002 -5.67537e-06 -7.92437e-06     -44.0599 
           0      2.92453 -4.82609e-06 -7.11462e-06     -44.0599 
           0            3 -4.00242e-06 -6.31917e-06     -44.0598 
          20            0 -5.18925e-20 -4.24472e-24     -42.9976 
          20      0.00048 -4.86635e-06 -3.94285e-10     -42.9976 
          20     0.001922 -1.73389e-05 -1.35424e-09     -42.9976 
          20     0.004326 -3.20829e-05 -2.27361e-09     -42.9976 
          20      0.00769 -4.33646e-05  -2.3447e-09     -42.9976 
          20     0.012017 -4.81245e-05 -7.86273e-10     -42.9976 
          20     0.017304 -4.75561e-05  2.96019e-09     -42.9976 
          20     0.023553 -4.61649e-05  9.13097e-09     -42.9976 
          20     0.030763 -4.84349e-05   1.7638e-08     -42.9976 
          20     0.038936 -5.50895e-05  2.81222e-08     -42.9976 
          20     0.048069 -6.21422e-05  3.99296e-08     -42.9976 
          20     0.058163 -6.53122e-05  5.19599e-08     -42.9976 
          20     0.069219 -6.76265e-05  6.24401e-08     -42.9976 
          20     0.081236 -7.64106e-05  6.91853e-08     -42.9976 
          20     0.094215 -7.78103e-05  7.03244e-08     -42.9976 
          20     0.108155 -8.28522e-05  6.18977e-08     -42.9976 
          20     0.123056 -8.63031e-05  4.11649e-08     -42.9976 
          20     0.138918 -8.91865e-05   4.7132e-09     -42.9976 
          20     0.155744 -9.18853e-05 -5.08201e-08     -42.9976 
          20     0.173529 -9.42712e-05 -1.28567e-07     -42.9976 
          20     0.192276 -9.60345e-05 -2.31358e-07     -42.9976 
          20     0.211984 -9.70833e-05 -3.61587e-07     -42.9976 
          20     0.232655 -9.77386e-05 -5.21163e-07     -42.9976 
          20     0.254285 -9.82223e-05 -7.11342e-07     -42.9976 
          20     0.276877 -9.79026e-05 -9.32713e-07     -42.9976 
          20     0.300431  -9.7482e-05 -1.18566e-06     -42.9976 
          20     0.324946 -9.67425e-05 -1.46938e-06     -42.9976 
          20     0.350424 -9.57903e-05 -1.78264e-06     -42.9976 
          20     0.376861 -9.47092e-05 -2.12384e-06     -42.9976 
          20      0.40426 -9.35598e-05 -2.49117e-06     -42.9976 
          20     0.432621 -9.23827e-05 -2.88236e-06     -42.9976 
          20     0.461945 -9.12034e-05 -3.29468e-06     -42.9976 
          20     0.492228 -9.00379e-05 -3.72478e-06     -42.9976 
          20     0.523472 -8.88959e-05 -4.16897e-06     -42.9976 
          20     0.555678 -8.77798e-05 -4.62332e-06     -42.9976 
          20     0.588845 -8.66732e-05 -5.08415e-06     -42.9976 
          20     0.622976 -8.55145e-05 -5.54919e-06     -42.9976 
          20     0.658066 -8.43034e-05  -6.0137e-06     -42.9976 
          20     0.694117 -8.29847e-05  -6.4688e-06     -42.9976 
          20      0.73113 -8.15123e-05 -6.91506e-06     -42.9976 
          20     0.769107 -7.98518e-05 -7.35121e-06     -42.9976 
          20     0.808042 -7.79816e-05 -7.77465e-06     -42.9976 
          20     0.847939  -7.5893e-05 -8.18222e-06     -42.9976 
          20     0.888797 -7.35902e-05 -8.57076e-06     -42.9975 
          20      0.93062 -7.10892e-05 -8.93794e-06     -42.9975 
          20       0.9734 -6.84164e-05 -9.28268e-06     -42.9975 
          20      1.01714 -6.56048e-05 -9.60584e-06     -42.9975 
          20      1.06185 -6.26905e-05 -9.90999e-06     -42.9975 
          20      1.10751  -5.9708e-05 -1.01989e-05     -42.9975 
          20      1.15414  -5.6683e-05 -1.04762e-05     -42.9975 
          20      1.20173 -5.36265e-05 -1.07425e-05     -42.9975 
          20      1.25028 -5.05241e-05 -1.09917e-05     -42.9975 
          20      1.29979 -4.73278e-05 -1.12046e-05     -42.9975 
          20      1.35026  -4.4041e-05    -1.14e-05     -42.9975 
          20       1.4017 -4.06639e-05 -1.16388e-05     -42.9974 
          20      1.45409 -3.70911e-05 -1.18462e-05     -42.9974 
          20      1.50745 -3.33873e-05 -1.20181e-05     -42.9974 
          20      1.56176 -2.96243e-05 -1.21535e-05     -42.9974 
          20      1.61705 -2.58774e-05 -1.22541e-05     -42.9974 
          20      1.67329 -2.22233e-05 -1.23239e-05     -42.9974 
          20      1.73049 -1.87341e-05 -1.23678e-05     -42.9973 
          20      1.78865 -1.54742e-05 -1.23914e-05     -42.9973 
          20      1.84778 -1.24962e-05 -1.23999e-05     -42.9973 
          20      1.90786 -9.83755e-06 -1.23969e-05     -42.9973 
          20      1.96891 -7.51602e-06 -1.23845e-05     -42.9973 
          20      2.03092 -5.52811e-06 -1.23616e-05     -42.9972 
          20      2.09389 -3.84714e-06 -1.23244e-05     -42.9972 
          20      2.15782 -2.42395e-06 -1.22654e-05     -42.9972 
          20      2.22272 -1.18802e-06 -1.21742e-05     -42.9972 
          20      2.28857 -5.29369e-08 -1.20381e-05     -42.9971 
          20      2.35539  1.07626e-06 -1.18438e-05     -42.9971 
          20      2.42317  2.29136e-06 -1.15789e-05     -42.9971 
          20      2.49191  3.66438e-06 -1.12364e-05     -42.9971 
          20      2.56161  5.22632e-06 -1.08182e-05      -42.997 
          20      2.63226  6.93859e-06 -1.03414e-05      -42.997 
          20      2.70389  8.65728e-06 -9.84633e-06      -42.997 
          20      2.77648  1.01813e-05 -9.41331e-06     -42.9969 
          20      2.85002   1.1398e-05 -9.26401e-06     -42.9969 
          20      2.92453   1.2335e-05 -8.78958e-06     -42.9969 
          20            3  1.30186e-05 -8.53355e-06     -42.9968 
          40            0 -4.88841e-20 -2.62921e-24     -42.0063 
          40      0.00048 -4.58351e-06 -2.51525e-10     -42.0063 
          40     0.001922 -1.63226e-05 -9.55812e-10     -42.0063 
          40     0.004326 -3.01706e-05 -2.00005e-09     -42.0063 
          40      0.00769 -4.07005e-05 -3.31805e-09     -42.0063 
          40     0.012017 -4.50095e-05 -5.02869e-09     -42.0063 
          40     0.017304 -4.42125e-05  -7.5436e-09     -42.0063 
          40     0.023553 -4.25541e-05 -1.16211e-08     -42.0063 
          40     0.030763 -4.42601e-05 -1.83416e-08     -42.0063 
          40     0.038936  -5.0006e-05 -2.90555e-08     -42.0063 
          40     0.048069 -5.60212e-05 -4.53493e-08     -42.0063 
          40     0.058163 -5.82621e-05 -6.91173e-08     -42.0063 
          40     0.069219 -5.95961e-05 -1.02654e-07     -42.0063 
          40     0.081236 -6.69576e-05 -1.48436e-07     -42.0063 
          40     0.094215 -6.72749e-05 -2.08648e-07     -42.0063 
          40     0.108155 -7.09902e-05 -2.86612e-07     -42.0063 
          40     0.123056 -7.31857e-05 -3.84714e-07     -42.0063 
          40     0.138918 -7.48566e-05 -5.05551e-07     -42.0063 
          40     0.155744 -7.63932e-05 -6.51502e-07     -42.0063 
          40     0.173529 -7.77008e-05 -8.24534e-07     -42.0063 
          40     0.192276 -7.85099e-05 -1.02628e-06     -42.0063 
          40     0.211984 -7.87524e-05 -1.25787e-06     -42.0063 
          40     0.232655 -7.87454e-05 -1.52005e-06     -42.0063 
          40     0.254285 -7.87072e-05 -1.81297e-06     -42.0063 
          40     0.276877 -7.80439e-05 -2.13642e-06     -42.0063 
          40     0.300431 -7.74186e-05 -2.48983e-06     -42.0063 
          40     0.324946 -7.66199e-05 -2.87217e-06     -42.0063 
          40     0.350424 -7.57403e-05 -3.28217e-06     -42.0063 
          40     0.376861 -7.48503e-05 -3.71825e-06     -42.0063 
          40      0.40426 -7.39984e-05 -4.17873e-06     -42.0063 
          40     0.432621 -7.32146e-05 -4.66168e-06     -42.0063 
          40     0.461945 -7.25164e-05 -5.16502e-06     -42.0063 
          40     0.492228 -7.19136e-05 -5.68638e-06     -42.0063 
          40     0.523472  -7.1413e-05 -6.22336e-06     -42.0063 
          40     0.555678 -7.10161e-05 -6.77333e-06     -42.0063 
          40     0.588845 -7.07078e-05 -7.33347e-06     -42.0063 
          40     0.622976 -7.04301e-05 -7.90067e-06     -42.0063 
          40     0.658066 -7.01755e-05 -8.46913e-06     -42.0063 
          40     0.694117 -6.98923e-05 -9.03867e-06     -42.0063 
          40      0.73113 -6.95259e-05 -9.60445e-06     -42.0063 
          40     0.769107 -6.90278e-05 -1.01621e-05     -42.0063 
          40     0.808042 -6.83571e-05 -1.07076e-05     -42.0063 
          40     0.847939 -6.74831e-05 -1.12377e-05     -42.0063 
          40     0.888797 -6.63868e-05 -1.17495e-05     -42.0063 
          40      0.93062 -6.50619e-05  -1.2241e-05     -42.0063 
          40       0.9734 -6.35158e-05 -1.27102e-05     -42.0063 
          40      1.01714 -6.17677e-05 -1.31562e-05     -42.0063 
          40      1.06185 -5.98477e-05 -1.35784e-05     -42.0063 
          40      1.10751 -5.77913e-05 -1.39766e-05     -42.0063 
          40      1.15414 -5.56338e-05 -1.43514e-05     -42.0062 
          40      1.20173 -5.34007e-05 -1.47038e-05     -42.0062 
          40      1.25028 -5.10938e-05 -1.50359e-05     -42.0062 
          40      1.29979 -4.86744e-05 -1.53506e-05     -42.0062 
          40      1.35026 -4.61998e-05 -1.56544e-05     -42.0062 
          40       1.4017 -4.37757e-05 -1.59323e-05     -42.0062 
          40      1.45409 -4.12294e-05 -1.61753e-05     -42.0062 
          40      1.50745 -3.86032e-05 -1.63856e-05     -42.0062 
          40      1.56176 -3.59317e-05 -1.65642e-05     -42.0062 
          40      1.61705 -3.32411e-05 -1.67115e-05     -42.0062 
          40      1.67329 -3.05504e-05 -1.68271e-05     -42.0062 
          40      1.73049   -2.787e-05 -1.69102e-05     -42.0062 
          40      1.78865 -2.52033e-05 -1.69597e-05     -42.0061 
          40      1.84778 -2.25472e-05 -1.69744e-05     -42.0061 
          40      1.90786  -1.9894e-05  -1.6953e-05     -42.0061 
          40      1.96891  -1.7231e-05 -1.68945e-05     -42.0061 
          40      2.03092  -1.4544e-05 -1.67982e-05     -42.0061 
          40      2.09389 -1.18178e-05 -1.66637e-05     -42.0061 
          40      2.15782 -9.04031e-06 -1.64911e-05     -42.0061 
          40      2.22272 -6.20265e-06 -1.62805e-05      -42.006 
          40      2.28857 -3.30368e-06 -1.60319e-05      -42.006 
          40      2.35539 -3.51992e-07 -1.57449e-05      -42.006 
          40      2.42317  2.63092e-06 -1.54176e-05      -42.006 
          40      2.49191  5.60673e-06 -1.50458e-05      -42.006 
          40      2.56161  8.51858e-06 -1.46217e-05      -42.006 
          40      2.63226  1.12871e-05 -1.41322e-05     -42.0059 
          40      2.70389  1.38079e-05 -1.35562e-05     -42.0059 
          40      2.77648  1.59863e-05 -1.29391e-05     -42.0059 
          40      2.85002  1.80292e-05 -1.22974e-05     -42.0059 
          40      2.92453  1.99268e-05 -1.15801e-05     -42.0058 
          40            3  2.16061e-05 -1.08599e-05     -42.0058 
          60            0            0            0     -41.0596 
          60      0.00048 -4.27729e-06 -1.56633e-10     -41.0596 
          60     0.001922 -1.51753e-05 -5.65284e-10     -41.0596 
          60     0.004326 -2.78456e-05 -1.06283e-09     -41.0596 
          60      0.00769  -3.7083e-05 -1.44387e-09     -41.0596 
          60     0.012017 -4.01221e-05  -1.5325e-09     -41.0596 
          60     0.017304 -3.80777e-05  -1.2342e-09     -41.0596 
          60     0.023553 -3.50864e-05 -5.48921e-10     -41.0596 
          60     0.030763 -3.52734e-05  4.58506e-10     -41.0596 
          60     0.038936 -3.93473e-05   1.7057e-09     -41.0596 
          60     0.048069 -4.37362e-05  3.10994e-09     -41.0596 
          60     0.058163 -4.46048e-05  4.54248e-09     -41.0596 
          60     0.069219  -4.4774e-05  5.74815e-09     -41.0596 
          60     0.081236 -5.09782e-05  6.44257e-09     -41.0596 
          60     0.094215 -5.06681e-05  6.57715e-09     -41.0596 
          60     0.108155 -5.39391e-05  5.37286e-09     -41.0596 
          60     0.123056  -5.6074e-05  2.56187e-09     -41.0596 
          60     0.138918 -5.80396e-05  -2.3981e-09     -41.0596 
          60     0.155744  -6.0205e-05 -1.00934e-08     -41.0596 
          60     0.173529 -6.24582e-05 -2.11539e-08     -41.0596 
          60     0.192276 -6.45064e-05 -3.62717e-08     -41.0596 
          60     0.211984 -6.62406e-05 -5.62065e-08     -41.0596 
          60     0.232655 -6.79155e-05 -8.17926e-08     -41.0596 
          60     0.254285 -6.96857e-05 -1.13895e-07     -41.0596 
          60     0.276877 -7.09226e-05  -1.5338e-07     -41.0596 
          60     0.300431   -7.221e-05 -2.01412e-07     -41.0596 
          60     0.324946 -7.32943e-05 -2.58896e-07     -41.0596 
          60     0.350424  -7.4222e-05 -3.26761e-07     -41.0596 
          60     0.376861 -7.50265e-05 -4.05996e-07     -41.0596 
          60      0.40426 -7.57302e-05 -4.97599e-07     -41.0596 
          60     0.432621 -7.63483e-05  -6.0245e-07     -41.0596 
          60     0.461945 -7.68938e-05 -7.21229e-07     -41.0596 
          60     0.492228 -7.73823e-05 -8.54291e-07     -41.0596 
          60     0.523472 -7.78337e-05 -1.00168e-06     -41.0596 
          60     0.555678 -7.82693e-05 -1.16316e-06     -41.0596 
          60     0.588845 -7.86979e-05 -1.33837e-06     -41.0596 
          60     0.622976 -7.90896e-05 -1.52729e-06     -41.0596 
          60     0.658066 -7.94621e-05 -1.72723e-06     -41.0596 
          60     0.694117 -7.97893e-05 -1.93536e-06     -41.0596 
          60      0.73113 -8.00381e-05 -2.15095e-06     -41.0596 
          60     0.769107 -8.01729e-05 -2.37216e-06     -41.0596 
          60     0.808042 -8.01581e-05 -2.59628e-06     -41.0596 
          60     0.847939 -7.99598e-05 -2.82011e-06     -41.0596 
          60     0.888797 -7.95485e-05 -3.04033e-06     -41.0596 
          60      0.93062 -7.89015e-05  -3.2539e-06     -41.0596 
          60       0.9734 -7.80055e-05 -3.45844e-06     -41.0596 
          60      1.01714  -7.6857e-05  -3.6526e-06     -41.0596 
          60      1.06185 -7.54643e-05 -3.83614e-06     -41.0596 
          60      1.10751 -7.38459e-05 -4.00988e-06     -41.0596 
          60      1.15414 -7.20279e-05 -4.17524e-06     -41.0596 
          60      1.20173 -7.00392e-05 -4.33322e-06     -41.0596 
          60      1.25028  -6.7902e-05 -4.48286e-06     -41.0596 
          60      1.29979 -6.56188e-05 -4.61866e-06     -41.0596 