Variables = x, y, u, v, p

Zone, I=416, F=POINT
         -50            0            0            0      20.8797 
         -50     0.013333  0.000185809  3.17978e-08      20.8797 
         -50     0.053333  0.000184144 -4.95378e-09      20.8797 
         -50         0.12  0.000189746 -3.46299e-07      20.8797 
         -50     0.213332  0.000206516 -1.12797e-06      20.8797 
         -50     0.333332   0.00022338   -2.295e-06      20.8797 
         -50         0.48   0.00023429 -3.75712e-06      20.8796 
         -50     0.653331  0.000235925 -5.53643e-06      20.8796 
         -50     0.853332  0.000227226 -7.68396e-06      20.8795 
         -50         1.08  0.000212699 -9.92853e-06      20.8793 
         -50      1.33333  0.000196625 -1.18405e-05      20.8791 
         -50      1.61333   0.00018015 -1.27525e-05      20.8788 
         -50         1.92  0.000168455 -1.24811e-05      20.8784 
         -50      2.25333  0.000161269 -1.07675e-05       20.878 
         -50      2.61333  0.000159012 -8.04646e-06      20.8773 
         -50            3  0.000156257 -9.64628e-06      20.8766 
         -25            0   1.4993e-19  7.84992e-24       20.031 
         -25     0.013333  0.000142677  1.22092e-08       20.031 
         -25     0.053333  0.000157867   2.2737e-08       20.031 
         -25         0.12  0.000173669  1.41653e-07       20.031 
         -25     0.213332  0.000182593  7.49117e-07       20.031 
         -25     0.333332  0.000179477  2.22305e-06       20.031 
         -25         0.48  0.000171689  4.61523e-06       20.031 
         -25     0.653331  0.000165399  7.61829e-06       20.031 
         -25     0.853332  0.000158882  1.07019e-05      20.0309 
         -25         1.08  0.000150653  1.34913e-05      20.0309 
         -25      1.33333  0.000143469  1.58694e-05      20.0308 
         -25      1.61333  0.000135236  1.76126e-05      20.0307 
         -25         1.92  0.000122134  1.82329e-05      20.0305 
         -25      2.25333  0.000113371  1.85172e-05      20.0303 
         -25      2.61333  0.000113442  1.94975e-05      20.0301 
         -25            3  0.000122183  2.62748e-05      20.0298 
           0            0  1.20937e-19  3.76895e-24      19.3646 
           0     0.013333  0.000107489  4.08144e-09      19.3646 
           0     0.053333  9.21564e-05   -5.244e-08      19.3646 
           0         0.12  8.21996e-05 -4.33552e-07      19.3646 
           0     0.213332   8.8479e-05  -1.5394e-06      19.3646 
           0     0.333332  0.000103294 -3.57092e-06      19.3646 
           0         0.48  0.000115794 -6.38027e-06      19.3646 
           0     0.653331  0.000120441 -9.63659e-06      19.3645 
           0     0.853332  0.000119019 -1.29432e-05      19.3645 
           0         1.08  0.000116063  -1.5944e-05      19.3645 
           0      1.33333  0.000114646 -1.84061e-05      19.3645 
           0      1.61333  0.000114366 -2.00099e-05      19.3644 
           0         1.92  0.000117112 -2.04113e-05      19.3643 
           0      2.25333  0.000119845 -1.96608e-05      19.3642 
           0      2.61333  0.000124806 -1.66272e-05      19.3641 
           0            3  0.000137677 -9.20286e-06       19.364 
          20            0  1.10984e-19  2.25179e-24      18.8951 
          20     0.013333  9.88351e-05  -8.6967e-09      18.8951 
          20     0.053333  8.64515e-05 -1.90544e-07      18.8951 
          20         0.12  7.99347e-05 -9.16521e-07      18.8951 
          20     0.213332  8.46951e-05 -2.47168e-06      18.8951 
          20     0.333332  9.09876e-05 -4.79625e-06      18.8951 
          20         0.48  9.21858e-05 -7.63063e-06      18.8951 
          20     0.653331  8.79308e-05 -1.07593e-05      18.8951 
          20     0.853332   8.2294e-05  -1.3893e-05      18.8951 
          20         1.08  8.04662e-05 -1.65521e-05      18.8951 
          20      1.33333  8.21902e-05 -1.84629e-05      18.8951 
          20      1.61333  8.37846e-05 -1.94888e-05       18.895 
          20         1.92  8.82022e-05 -1.93658e-05       18.895 
          20      2.25333  9.49785e-05 -1.81196e-05      18.8949 
          20      2.61333  9.81248e-05 -1.65694e-05      18.8949 
          20            3   9.8434e-05  -1.2163e-05      18.8948 
          40            0  1.06219e-19  1.39356e-24      18.4575 
          40     0.013333  9.67584e-05 -9.74608e-09      18.4575 
          40     0.053333  9.29382e-05 -1.73611e-07      18.4575 
          40         0.12  9.44002e-05 -7.61388e-07      18.4575 
          40     0.213332  0.000102592  -1.9025e-06      18.4575 
          40     0.333332  0.000109094  -3.4876e-06      18.4575 
          40         0.48  0.000110185 -5.37609e-06      18.4575 
          40     0.653331  0.000105693 -7.56448e-06      18.4575 
          40     0.853332  9.70565e-05 -1.00371e-05      18.4575 
          40         1.08   8.8929e-05 -1.25249e-05      18.4574 
          40      1.33333  8.52648e-05 -1.46152e-05      18.4574 
          40      1.61333  8.24593e-05 -1.61042e-05      18.4574 
          40         1.92  8.20211e-05 -1.67488e-05      18.4574 
          40      2.25333  8.26613e-05 -1.66392e-05      18.4574 
          40      2.61333  8.09065e-05 -1.57372e-05      18.4573 
          40            3  8.15486e-05 -1.35166e-05      18.4573 
          60            0            0            0      18.0395 
          60     0.013333  0.000100757 -2.00879e-08      18.0395 
          60     0.053333   0.00011871 -3.03241e-07      18.0395 
          60         0.12  0.000150308 -1.24266e-06      18.0395 
          60     0.213332  0.000185322 -2.85021e-06      18.0395 
          60     0.333332  0.000206006 -4.60634e-06      18.0395 
          60         0.48  0.000209564 -5.96393e-06      18.0395 
          60     0.653331  0.000202876 -6.80203e-06      18.0395 
          60     0.853332  0.000190372 -7.29933e-06      18.0395 
          60         1.08  0.000173407 -7.56014e-06      18.0395 
          60      1.33333  0.000153399 -7.52747e-06      18.0394 
          60      1.61333  0.000126955  -7.1261e-06      18.0394 
          60         1.92  9.91318e-05 -6.37705e-06      18.0394 
          60      2.25333  7.87956e-05 -5.27316e-06      18.0394 
          60      2.61333  6.87168e-05 -3.75186e-06      18.0394 
          60            3  6.66357e-05 -3.32254e-06      18.0393 
          80            0            0            0      17.6338 
          80     0.013333  8.94223e-05 -3.99145e-08      17.6338 
          80     0.053333   8.9581e-05 -6.03608e-07      17.6338 
          80         0.12  0.000113435  -2.6547e-06      17.6338 
          80     0.213332  0.000160468  -6.7963e-06      17.6338 
          80     0.333332  0.000205752 -1.27391e-05      17.6338 
          80         0.48  0.000231916 -1.97852e-05      17.6338 
          80     0.653331  0.000235371  -2.7572e-05      17.6338 
          80     0.853332  0.000218827 -3.59743e-05      17.6338 
          80         1.08  0.000192824 -4.43962e-05      17.6338 
          80      1.33333  0.000170512 -5.18514e-05      17.6338 
          80      1.61333  0.000141716 -5.74911e-05      17.6338 
          80         1.92  0.000110933 -6.06461e-05      17.6338 
          80      2.25333  8.28036e-05  -6.1129e-05      17.6338 
          80      2.61333  5.82826e-05 -5.88171e-05      17.6338 
          80            3  5.02201e-05 -5.46214e-05      17.6337 
         100            0  9.44481e-20  3.66743e-25      17.2361 
         100     0.013333  7.97765e-05 -2.36571e-08      17.2361 
         100     0.053333  5.45965e-05 -3.72575e-07      17.2361 
         100         0.12  3.85636e-05 -1.72393e-06      17.2361 
         100     0.213332  4.20833e-05 -4.65676e-06      17.2361 
         100     0.333332  5.24108e-05 -9.20228e-06      17.2361 
         100         0.48  5.63836e-05 -1.50222e-05      17.2361 
         100     0.653331  4.95837e-05 -2.18252e-05      17.2361 
         100     0.853332  3.67773e-05 -2.92348e-05      17.2361 
         100         1.08  3.07915e-05  -3.6404e-05      17.2361 
         100      1.33333  3.97632e-05 -4.24675e-05      17.2361 
         100      1.61333  5.28564e-05 -4.69365e-05      17.2361 
         100         1.92  6.62792e-05 -4.92858e-05      17.2361 
         100      2.25333  7.74848e-05 -4.94632e-05      17.2361 
         100      2.61333  8.60672e-05 -4.73326e-05      17.2361 
         100            3  9.60561e-05 -4.28949e-05       17.236 
         150            0           -0           -0      16.2607 
         150     0.013333   0.00011369 -1.37497e-08      16.2607 
         150     0.053333  0.000176235 -1.54632e-07      16.2607 
         150         0.12  0.000252769 -3.55239e-07      16.2607 
         150     0.213332  0.000312317  5.64392e-08      16.2607 
         150     0.333332  0.000337204  1.99362e-06      16.2607 
         150         0.48  0.000338224  5.86115e-06      16.2607 
         150     0.653331  0.000332501  1.13079e-05      16.2607 
         150     0.853332  0.000321636  1.73972e-05      16.2607 
         150         1.08  0.000295409  2.30137e-05      16.2607 
         150      1.33333  0.000253348  2.76786e-05      16.2607 
         150      1.61333  0.000202445  3.14561e-05      16.2607 
         150         1.92  0.000150819  3.37801e-05      16.2607 
         150      2.25333  0.000105581  3.48107e-05      16.2607 
         150      2.61333  6.79965e-05  3.44445e-05      16.2607 
         150            3  5.11594e-05  3.29918e-05      16.2607 
         200            0           -0           -0      15.2972 
         200     0.013333  9.63839e-05  2.70688e-09      15.2972 
         200     0.053333  0.000112714  5.60899e-08      15.2972 
         200         0.12  0.000128401  3.54472e-07      15.2972 
         200     0.213332  0.000135723  1.23607e-06      15.2972 
         200     0.333332  0.000131588  2.95848e-06      15.2972 
         200         0.48  0.000123158  5.51065e-06      15.2972 
         200     0.653331  0.000117569  8.68082e-06      15.2972 
         200     0.853332  0.000115829  1.21698e-05      15.2972 
         200         1.08  0.000113728  1.55935e-05      15.2972 
         200      1.33333  0.000107692  1.86326e-05      15.2972 
         200      1.61333  0.000100131  2.11052e-05      15.2972 
         200         1.92   9.1829e-05  2.27888e-05      15.2972 
         200      2.25333  8.26887e-05  2.35786e-05      15.2972 
         200      2.61333  7.33445e-05  2.34193e-05      15.2972 
         200            3  6.62712e-05  2.24117e-05      15.2972 
         250            0            0            0       14.338 
         250     0.013333  9.83255e-05 -1.09136e-08       14.338 
         250     0.053333  0.000123887 -1.41693e-07       14.338 
         250         0.12  0.000158794 -4.92147e-07       14.338 
         250     0.213332  0.000190627  -8.6146e-07       14.338 
         250     0.333332   0.00020659 -8.13883e-07       14.338 
         250         0.48  0.000208505 -7.47546e-08       14.338 
         250     0.653331  0.000204289  1.24592e-06       14.338 
         250     0.853332  0.000196731  2.77859e-06       14.338 
         250         1.08  0.000183782  4.16594e-06       14.338 
         250      1.33333  0.000165896  5.31192e-06       14.338 
         250      1.61333  0.000145221  6.30015e-06       14.338 
         250         1.92   0.00012449  7.02136e-06       14.338 
         250      2.25333  0.000104685  7.45558e-06       14.338 
         250      2.61333  8.46973e-05  7.60862e-06       14.338 
         250            3  7.00432e-05  7.28969e-06       14.338 
         300            0           -0           -0      13.3806 
         300     0.013333  0.000105067 -4.80121e-08      13.3806 
         300     0.053333  0.000159206 -6.88303e-07      13.3806 
         300         0.12  0.000254161 -2.88225e-06      13.3806 
         300     0.213332   0.00036535 -6.95078e-06      13.3806 
         300     0.333332  0.000449238  -1.2068e-05      13.3806 
         300         0.48  0.000486579 -1.69828e-05      13.3806 
         300     0.653331  0.000487554 -2.10781e-05      13.3806 
         300     0.853332  0.000466054 -2.46255e-05      13.3806 
         300         1.08  0.000425962 -2.81602e-05      13.3806 
         300      1.33333  0.000372517  -3.1651e-05      13.3806 
         300      1.61333  0.000307535 -3.45138e-05      13.3806 
         300         1.92  0.000238224 -3.64655e-05      13.3805 
         300      2.25333  0.000170312 -3.72454e-05      13.3805 
         300      2.61333  0.000101309 -3.66713e-05      13.3805 
         300            3   5.2334e-05   -3.478e-05      13.3805 
         350            0  8.15974e-20  2.98875e-27      12.4234 
         350     0.013333  5.04392e-05  8.62226e-09      12.4234 
         350     0.053333 -5.08237e-05  7.21589e-08      12.4234 
         350         0.12 -0.000171986 -4.24818e-08      12.4234 
         350     0.213332 -0.000261807 -1.23012e-06      12.4234 
         350     0.333332 -0.000299658 -4.62299e-06      12.4234 
         350         0.48 -0.000299599 -1.07668e-05      12.4234 
         350     0.653331 -0.000288523 -1.93681e-05      12.4234 
         350     0.853332  -0.00027862 -2.95375e-05      12.4234 
         350         1.08 -0.000259618   -3.998e-05      12.4234 
         350      1.33333 -0.000216798 -4.95074e-05      12.4234 
         350      1.61333   -0.0001558   -5.759e-05      12.4234 
         350         1.92 -8.94258e-05 -6.38284e-05      12.4234 
         350      2.25333 -2.14326e-05 -6.80042e-05      12.4234 
         350      2.61333  4.97341e-05 -6.97061e-05      12.4234 
         350            3  0.000110724 -6.86268e-05      12.4234 
         400            0           -0           -0      11.4669 
         400     0.013333  0.000105287  1.24846e-08      11.4669 
         400     0.053333  0.000142946  2.09884e-07      11.4669 
         400         0.12  0.000177641  1.09533e-06      11.4669 
         400     0.213332   0.00019012  3.38416e-06      11.4669 
         400     0.333332  0.000176769  7.58077e-06      11.4669 
         400         0.48   0.00015333  1.36598e-05      11.4669 
         400     0.653331  0.000136028  2.12116e-05      11.4669 
         400     0.853332  0.000130178  2.97536e-05      11.4669 
         400         1.08  0.000130884  3.87757e-05      11.4669 
         400      1.33333  0.000128487  4.76664e-05      11.4669 
         400      1.61333  0.000121059  5.57724e-05      11.4669 
         400         1.92  0.000110284  6.25193e-05      11.4669 
         400      2.25333  9.72111e-05  6.75007e-05      11.4669 
         400      2.61333  8.40088e-05  7.03045e-05      11.4669 
         400            3   7.2315e-05  7.06621e-05      11.4669 
         450            0           -0           -0      10.5105 
         450     0.013333  8.66751e-05 -4.06195e-08      10.5105 
         450     0.053333  9.23853e-05 -6.07739e-07      10.5105 
         450         0.12  0.000128989 -2.72182e-06      10.5105 
         450     0.213332  0.000197846 -7.16165e-06      10.5105 
         450     0.333332   0.00026827 -1.37776e-05      10.5105 
         450         0.48  0.000312344 -2.16997e-05      10.5105 
         450     0.653331   0.00032399 -3.01796e-05      10.5105 
         450     0.853332  0.000310683 -3.90147e-05      10.5105 
         450         1.08  0.000281746 -4.81549e-05      10.5105 
         450      1.33333  0.000248805 -5.71389e-05      10.5105 
         450      1.61333  0.000215685 -6.52051e-05      10.5105 
         450         1.92  0.000182524 -7.17924e-05      10.5105 
         450      2.25333  0.000149058 -7.65187e-05      10.5105 
         450      2.61333  0.000112355 -7.89104e-05      10.5105 
         450            3  8.08261e-05 -7.87559e-05      10.5105 
         500            0           -0           -0      9.55413 
         500     0.013333  6.84937e-05  2.81817e-08      9.55413 
         500     0.053333  8.30582e-06  3.83222e-07      9.55413 
         500         0.12 -7.74193e-05  1.47131e-06      9.55413 
         500     0.213332 -0.000157376  3.14059e-06      9.55413 
         500     0.333332 -0.000207785  4.64337e-06      9.55413 
         500         0.48 -0.000226217  5.33748e-06      9.55413 
         500     0.653331 -0.000226743  5.24716e-06      9.55413 
         500     0.853332 -0.000217939   5.0201e-06      9.55413 
         500         1.08 -0.000194083  5.52582e-06      9.55413 
         500      1.33333 -0.000151474  7.14471e-06      9.55413 
         500      1.61333  -0.00010079  9.35966e-06      9.55413 
         500         1.92 -5.25855e-05  1.15927e-05      9.55413 
         500      2.25333  -5.6008e-06  1.35488e-05      9.55413 
         500      2.61333  4.43794e-05  1.51589e-05      9.55413 
         500            3  8.77556e-05   1.6316e-05      9.55414 
         550            0           -0           -0      8.59814 
         550     0.013333  0.000112226  2.40881e-08      8.59814 
         550     0.053333  0.000162954  4.00693e-07      8.59814 
         550         0.12  0.000199314  2.06625e-06      8.59814 
         550     0.213332  0.000189942  6.31005e-06      8.59814 
         550     0.333332  0.000137219  1.39557e-05      8.59814 
         550         0.48  7.58036e-05  2.47491e-05      8.59814 
         550     0.653331  3.61133e-05  3.76839e-05      8.59814 
         550     0.853332  2.43588e-05  5.17327e-05      8.59814 
         550         1.08  2.91155e-05  6.60738e-05      8.59814 
         550      1.33333   3.4493e-05  7.99257e-05      8.59814 
         550      1.61333   3.6685e-05  9.25583e-05      8.59814 
         550         1.92  3.88502e-05  0.000103401      8.59814 
         550      2.25333   4.2661e-05  0.000111973      8.59813 
         550      2.61333   5.0032e-05  0.000117564      8.59813 
         550            3  5.75756e-05  0.000119614      8.59813 
         600            0           -0           -0      7.64218 
         600     0.013333    2.735e-05 -6.92826e-08      7.64218 
         600     0.053333 -0.000109699 -1.11741e-06      7.64218 
         600         0.12 -0.000212345 -5.55692e-06      7.64218 
         600     0.213332    -0.000197 -1.64377e-05      7.64218 
         600     0.333332 -7.84522e-05 -3.55276e-05      7.64218 
         600         0.48  6.21955e-05 -6.22014e-05      7.64218 
         600     0.653331  0.000154277 -9.44235e-05      7.64218 
         600     0.853332  0.000177431 -0.000130267      7.64218 
         600         1.08  0.000154115 -0.000167965      7.64218 
         600      1.33333  0.000128829 -0.000205254      7.64218 
         600      1.61333  0.000120305  -0.00023987      7.64218 
         600         1.92  0.000120262 -0.000270254      7.64218 
         600      2.25333  0.000120396 -0.000295113      7.64218 
         600      2.61333  0.000114431 -0.000312576      7.64218 
         600            3  0.000109856 -0.000321008      7.64218 
         650            0            0            0      6.68645 
         650     0.013333  0.000123245  4.47901e-08      6.68645 
         650     0.053333  0.000200478  6.94034e-07      6.68645 
         650         0.12  0.000268267  3.26518e-06      6.68645 
         650     0.213332  0.000293777   9.0949e-06      6.68645 
         650     0.333332  0.000282802  1.86146e-05      6.68645 
         650         0.48  0.000265421  3.13246e-05      6.68645 
         650     0.653331  0.000263728  4.66885e-05      6.68645 
         650     0.853332  0.000286708  6.46606e-05      6.68645 
         650         1.08   0.00033043  8.49837e-05      6.68645 
         650      1.33333  0.000364659  0.000106025      6.68645 
         650      1.61333  0.000358258  0.000125259      6.68645 
         650         1.92  0.000320976  0.000141374      6.68645 
         650      2.25333  0.000274988  0.000154186      6.68645 
         650      2.61333  0.000226452  0.000163016      6.68645 
         650            3  0.000173936  0.000167023      6.68645 
         700            0           -0           -0      5.73097 
         700     0.013333   0.00014376 -4.95175e-08      5.73097 
         700     0.053333  0.000300816 -6.73369e-07      5.73097 
         700         0.12  0.000525402 -2.56429e-06      5.73097 
         700     0.213332  0.000745052 -5.28792e-06      5.73097 
         700     0.333332  0.000883896 -7.03734e-06      5.73097 
         700         0.48  0.000923998 -5.96033e-06      5.73097 
         700     0.653331  0.000902753 -1.55393e-06      5.73097 
         700     0.853332  0.000860828  5.16732e-06      5.73098 
         700         1.08  0.000804693  1.24053e-05      5.73098 
         700      1.33333   0.00072195  1.87687e-05      5.73097 
         700      1.61333  0.000619815  2.42827e-05      5.73097 
         700         1.92  0.000516242  2.95688e-05      5.73097 
         700      2.25333  0.000409811  3.47167e-05      5.73097 
         700      2.61333  0.000293958  3.92583e-05      5.73096 
         700            3  0.000178312  4.27976e-05      5.73095 
         750            0           -0           -0      4.77521 
         750     0.013333   0.00010497  3.16789e-08      4.77521 
         750     0.053333   0.00013766  4.76453e-07      4.77521 
         750         0.12   0.00015704  2.17644e-06      4.77521 
         750     0.213332   0.00014436  5.98122e-06      4.77521 
         750     0.333332  9.98857e-05  1.23368e-05      4.77521 
         750         0.48  4.17126e-05  2.12186e-05      4.77521 
         750     0.653331 -1.13938e-05   3.2352e-05      4.77521 
         750     0.853332  -4.7142e-05  4.55303e-05      4.77521 
         750         1.08 -5.61255e-05  6.08155e-05      4.77521 
         750      1.33333 -3.50217e-05  7.82149e-05      4.77521 
         750      1.61333  1.57081e-06  9.68437e-05      4.77521 
         750         1.92  2.88192e-05  0.000114995      4.77521 
         750      2.25333  4.52305e-05  0.000131323      4.77521 
         750      2.61333  6.24294e-05  0.000144958      4.77521 
         750            3  7.80313e-05  0.000154995      4.77521 
         800            0            0            0      3.81973 
         800     0.013333   8.9354e-05   6.1379e-08      3.81973 
         800     0.053333  6.97315e-05  9.26054e-07      3.81973 
         800         0.12 -5.13029e-06  4.21361e-06      3.81973 
         800     0.213332  -0.00013751  1.13443e-05      3.81973 
         800     0.333332 -0.000286511  2.24167e-05      3.81973 
         800         0.48 -0.000397767  3.62085e-05      3.81973 
         800     0.653331 -0.000447267   5.1332e-05      3.81973 
         800     0.853332 -0.000442255  6.72048e-05      3.81973 
         800         1.08 -0.000398696  8.38297e-05      3.81973 
         800      1.33333 -0.000335878  0.000100848      3.81973 
         800      1.61333 -0.000272351  0.000117244      3.81973 
         800         1.92 -0.000213396  0.000132131      3.81973 
         800      2.25333 -0.000152512  0.000144918      3.81974 
         800      2.61333 -8.37611e-05  0.000154899      3.81974 
         800            3 -1.36919e-05  0.000161284      3.81974 
         850            0            0            0      2.86457 
         850     0.013333  4.07289e-05  -3.5196e-08      2.86457 
         850     0.053333 -7.43842e-05 -5.75235e-07      2.86457 
         850         0.12 -0.000184674 -2.91225e-06      2.86457 
         850     0.213332 -0.000227026 -8.78721e-06      2.86457 
         850     0.333332 -0.000196408 -1.93839e-05      2.86457 
         850         0.48 -0.000133478 -3.46283e-05      2.86457 
         850     0.653331 -8.38808e-05 -5.36043e-05      2.86457 
         850     0.853332 -7.01461e-05 -7.53995e-05      2.86457 
         850         1.08 -8.84281e-05 -9.91539e-05      2.86457 
         850      1.33333 -0.000110512 -0.000123411      2.86457 
         850      1.61333 -0.000106486 -0.000146256      2.86457 
         850         1.92 -7.77929e-05 -0.000166558      2.86457 
         850      2.25333 -4.28928e-05 -0.000183965      2.86457 
         850      2.61333 -8.83102e-06   -0.0001978      2.86457 
         850            3  2.72597e-05 -0.000206959      2.86457 
         900            0            0            0      1.90952 
         900     0.013333  9.02744e-05  3.32268e-08      1.90952 
         900     0.053333   8.0979e-05  5.15416e-07      1.90952 
         900         0.12  3.81627e-05  2.42513e-06      1.90952 
         900     0.213332 -4.02195e-05  6.71181e-06      1.90952 
         900     0.333332 -0.000126039  1.34412e-05      1.90952 
         900         0.48 -0.000177895  2.16211e-05      1.90952 
         900     0.653331 -0.000177754   3.0048e-05      1.90952 
         900     0.853332 -0.000136359  3.81213e-05      1.90952 
         900         1.08 -7.73801e-05  4.55899e-05      1.90952 
         900      1.33333 -2.93035e-05    5.179e-05      1.90952 
         900      1.61333 -8.97161e-06  5.58945e-05      1.90952 
         900         1.92 -1.79321e-06  5.80033e-05      1.90952 
         900      2.25333  1.11739e-05  5.87452e-05      1.90952 
         900      2.61333  3.08207e-05  5.82549e-05      1.90952 
         900            3  5.19553e-05   5.6364e-05      1.90952 
         950            0            0            0     0.954504 
         950     0.013333  -1.9271e-05 -4.68756e-08     0.954504 
         950     0.053333 -0.000285868 -8.23539e-07     0.954504 
         950         0.12 -0.000562148 -4.54871e-06     0.954503 
         950     0.213332 -0.000696151 -1.49152e-05     0.954503 
         950     0.333332 -0.000641211 -3.53194e-05     0.954503 
         950         0.48 -0.000472151 -6.66574e-05     0.954503 
         950     0.653331 -0.000306572 -0.000107097     0.954503 
         950     0.853332 -0.000215244 -0.000153723     0.954502 
         950         1.08 -0.000195276 -0.000203652     0.954502 
         950      1.33333 -0.000192327 -0.000253856     0.954502 
         950      1.61333 -0.000160513  -0.00030156     0.954503 
         950         1.92  -0.00010403 -0.000345577     0.954504 
         950      2.25333 -4.59356e-05 -0.000385173     0.954507 
         950      2.61333  8.84345e-06  -0.00041826      0.95451 
         950            3  6.42545e-05 -0.000443083     0.954515 
        1000            0            0            0            0 
        1000     0.013333  1.24145e-05  5.73154e-06           -0 
        1000     0.053333 -0.000173332  2.50588e-05           -0 
        1000         0.12 -0.000291782  7.12253e-05  7.95378e-17 
        1000     0.213332  -0.00025298   0.00020053  9.46314e-16 
        1000     0.333332 -0.000372121  0.000620719  5.23099e-16 
        1000         0.48   0.00112118  0.000877662           -0 
        1000     0.653331  0.000893388  0.000824568            0 
        1000     0.853332   0.00105799   0.00138278            0 
        1000         1.08   0.00226846    0.0017438            0 
        1000      1.33333   0.00675394   0.00135127  3.91503e-16 
        1000      1.61333   0.00268952 -0.000501814           -0 
        1000         1.92    0.0018707 -0.000187407  9.48789e-16 
        1000      2.25333   0.00224723 -3.48772e-05  9.52174e-16 
        1000      2.61333   0.00325193 -0.000879878           -0 
        1000            3  0.000979222 -0.000997155  1.04253e-15 
