Variables = x, y, u, v, p

Zone, I=416, F=POINT
         -50            0            0            0     -34.9846 
         -50     0.013333 -0.000174418 -5.39025e-08     -34.9846 
         -50     0.053333 -0.000165703 -1.52918e-07     -34.9846 
         -50         0.12 -0.000171381 -3.24022e-07     -34.9845 
         -50     0.213332 -0.000182682  -5.8195e-07     -34.9845 
         -50     0.333332 -0.000196525 -9.19629e-07     -34.9845 
         -50         0.48 -0.000209767 -1.30205e-06     -34.9844 
         -50     0.653331 -0.000218503  -1.6218e-06     -34.9843 
         -50     0.853332 -0.000219508 -1.83634e-06     -34.9841 
         -50         1.08 -0.000214154 -2.00542e-06     -34.9839 
         -50      1.33333 -0.000205442  -2.2511e-06     -34.9835 
         -50      1.61333 -0.000192566 -2.48338e-06      -34.983 
         -50         1.92 -0.000176432 -2.35362e-06     -34.9824 
         -50      2.25333 -0.000167858 -3.42227e-06     -34.9816 
         -50      2.61333 -0.000162659 -3.39151e-06     -34.9806 
         -50            3 -0.000150453  5.20213e-06     -34.9793 
         -25            0 -1.40644e-19   -1.227e-23     -33.5625 
         -25     0.013333 -0.000118991  -1.1542e-08     -33.5625 
         -25     0.053333 -9.41524e-05  9.35165e-08     -33.5625 
         -25         0.12 -8.00662e-05  6.24507e-07     -33.5625 
         -25     0.213332 -7.61139e-05  1.91795e-06     -33.5625 
         -25     0.333332 -7.69405e-05  4.09155e-06     -33.5625 
         -25         0.48 -7.55258e-05  7.04571e-06     -33.5625 
         -25     0.653331 -7.01458e-05  1.05595e-05     -33.5624 
         -25     0.853332 -6.60824e-05  1.42179e-05     -33.5623 
         -25         1.08 -7.01984e-05  1.74164e-05     -33.5622 
         -25      1.33333 -8.21894e-05  1.98141e-05     -33.5621 
         -25      1.61333 -9.77147e-05  2.11432e-05     -33.5619 
         -25         1.92 -0.000112529  2.10411e-05     -33.5617 
         -25      2.25333 -0.000123136  2.02995e-05     -33.5614 
         -25      2.61333 -0.000127191  1.85594e-05      -33.561 
         -25            3 -0.000130083  1.39943e-05     -33.5605 
           0            0 -1.22225e-19 -5.88879e-24     -32.4466 
           0     0.013333 -0.000110809 -1.37608e-08     -32.4466 
           0     0.053333 -0.000115213 -9.60245e-08     -32.4466 
           0         0.12 -0.000125323 -4.35473e-07     -32.4466 
           0     0.213332  -0.00012999 -1.29892e-06     -32.4466 
           0     0.333332 -0.000129188 -2.85357e-06     -32.4466 
           0         0.48 -0.000127914 -5.08544e-06     -32.4466 
           0     0.653331 -0.000129303 -7.83875e-06     -32.4466 
           0     0.853332 -0.000130059 -1.07763e-05     -32.4466 
           0         1.08 -0.000124708 -1.34652e-05     -32.4465 
           0      1.33333 -0.000113873 -1.56871e-05     -32.4465 
           0      1.61333 -0.000103162 -1.73662e-05     -32.4464 
           0         1.92 -9.79252e-05 -1.83245e-05     -32.4462 
           0      2.25333  -9.6659e-05 -1.85042e-05     -32.4461 
           0      2.61333 -9.51602e-05 -1.83465e-05     -32.4459 
           0            3 -9.56448e-05 -1.88067e-05     -32.4457 
          20            0 -1.10685e-19 -3.51799e-24     -31.6608 
          20     0.013333 -9.79744e-05 -6.37476e-09     -31.6608 
          20     0.053333 -9.34067e-05 -2.61557e-08     -31.6608 
          20         0.12  -9.4629e-05 -9.90869e-08     -31.6608 
          20     0.213332 -9.52874e-05 -2.89887e-07     -31.6608 
          20     0.333332 -9.45206e-05 -6.37942e-07     -31.6608 
          20         0.48 -9.33955e-05  -1.1258e-06     -31.6608 
          20     0.653331  -9.2955e-05 -1.70325e-06     -31.6608 
          20     0.853332 -9.27421e-05 -2.28402e-06     -31.6608 
          20         1.08 -9.12039e-05 -2.76816e-06     -31.6607 
          20      1.33333 -8.71876e-05 -3.07053e-06     -31.6607 
          20      1.61333 -8.09174e-05 -3.24915e-06     -31.6606 
          20         1.92 -7.74476e-05 -3.37878e-06     -31.6606 
          20      2.25333 -7.84886e-05 -3.34557e-06     -31.6605 
          20      2.61333 -7.50781e-05 -2.50563e-06     -31.6604 
          20            3 -6.66414e-05 -1.22684e-06     -31.6602 
          40            0 -1.05299e-19 -2.17781e-24     -30.9284 
          40     0.013333 -9.44538e-05 -6.77935e-10     -30.9284 
          40     0.053333 -9.55278e-05  2.59908e-08     -30.9284 
          40         0.12 -0.000103862  8.17004e-08     -30.9284 
          40     0.213332  -0.00010963  4.89011e-08     -30.9284 
          40     0.333332 -0.000109423 -2.57585e-07     -30.9284 
          40         0.48 -0.000105373  -9.3131e-07     -30.9284 
          40     0.653331  -0.00010124 -1.92068e-06     -30.9284 
          40     0.853332 -9.81679e-05 -3.08332e-06     -30.9284 
          40         1.08 -9.51612e-05 -4.27374e-06     -30.9284 
          40      1.33333 -9.09298e-05  -5.3726e-06     -30.9283 
          40      1.61333 -8.39274e-05 -6.29599e-06     -30.9283 
          40         1.92 -7.38063e-05 -6.83367e-06     -30.9283 
          40      2.25333 -6.17312e-05 -6.94856e-06     -30.9282 
          40      2.61333 -5.06667e-05 -6.95838e-06     -30.9281 
          40            3 -4.89624e-05 -7.68203e-06      -30.928 
          60            0            0            0     -30.2289 
          60     0.013333  -9.1448e-05  5.91305e-09     -30.2289 
          60     0.053333 -9.45905e-05  1.03228e-07     -30.2289 
          60         0.12 -0.000107322  3.90175e-07     -30.2289 
          60     0.213332 -0.000119043  7.87597e-07     -30.2289 
          60     0.333332 -0.000124367  1.08706e-06     -30.2289 
          60         0.48 -0.000123941  1.18797e-06     -30.2289 
          60     0.653331  -0.00012007  1.20251e-06     -30.2289 
          60     0.853332 -0.000112804  1.32995e-06     -30.2289 
          60         1.08  -0.00010352  1.61502e-06     -30.2289 
          60      1.33333 -9.57483e-05  1.90849e-06     -30.2289 
          60      1.61333 -8.76777e-05  2.09478e-06     -30.2289 
          60         1.92 -7.87103e-05  2.25407e-06     -30.2288 
          60      2.25333 -6.79317e-05  2.30007e-06     -30.2288 
          60      2.61333 -5.73237e-05  1.98445e-06     -30.2287 
          60            3 -5.78437e-05 -4.28068e-07     -30.2287 
          80            0            0            0     -29.5502 
          80     0.013333  -8.6715e-05  1.07025e-09     -29.5502 
          80     0.053333 -8.24207e-05  2.81628e-08     -29.5502 
          80         0.12 -8.50595e-05  1.03265e-07     -29.5502 
          80     0.213332 -8.96176e-05  2.07397e-07     -29.5502 
          80     0.333332 -9.47639e-05  3.24984e-07     -29.5502 
          80         0.48 -0.000100079  4.89065e-07     -29.5502 
          80     0.653331 -0.000104197  7.85964e-07     -29.5502 
          80     0.853332 -0.000103964  1.35232e-06     -29.5502 
          80         1.08 -9.87296e-05  2.23588e-06     -29.5502 
          80      1.33333 -9.30421e-05  3.22038e-06     -29.5502 
          80      1.61333 -8.78827e-05  4.08833e-06     -29.5502 
          80         1.92 -8.31738e-05   4.7459e-06     -29.5502 
          80      2.25333 -7.90992e-05   5.1773e-06     -29.5501 
          80      2.61333 -7.53235e-05  5.09186e-06     -29.5501 
          80            3  -7.7452e-05  3.85544e-06     -29.5501 
         100            0  -9.6422e-20 -5.71308e-25     -28.8848 
         100     0.013333  -8.4352e-05 -1.10268e-08     -28.8848 
         100     0.053333 -7.42594e-05 -1.52163e-07     -28.8848 
         100         0.12 -6.21591e-05 -6.65206e-07     -28.8848 
         100     0.213332 -4.49384e-05 -1.70686e-06     -28.8848 
         100     0.333332 -2.76099e-05 -3.20731e-06     -28.8848 
         100         0.48 -1.49619e-05  -4.9927e-06     -28.8848 
         100     0.653331 -9.33433e-06 -6.98076e-06     -28.8848 
         100     0.853332 -1.11333e-05 -9.14376e-06     -28.8848 
         100         1.08 -1.78656e-05 -1.13141e-05     -28.8848 
         100      1.33333 -2.61815e-05 -1.32814e-05     -28.8848 
         100      1.61333 -3.86634e-05 -1.47856e-05     -28.8848 
         100         1.92 -5.39593e-05 -1.57696e-05     -28.8848 
         100      2.25333 -6.88115e-05 -1.60039e-05     -28.8848 
         100      2.61333 -8.11907e-05 -1.55662e-05     -28.8848 
         100            3  -8.5274e-05 -1.42084e-05     -28.8848 
         150            0           -0           -0     -27.2529 
         150     0.013333 -8.98621e-05  2.65274e-08     -27.2529 
         150     0.053333 -0.000107425  3.78936e-07     -27.2529 
         150         0.12  -0.00014785  1.55435e-06     -27.2529 
         150     0.213332  -0.00019356  3.65097e-06     -27.2529 
         150     0.333332 -0.000225721  6.19209e-06     -27.2529 
         150         0.48 -0.000238366  8.63901e-06     -27.2529 
         150     0.653331 -0.000236038  1.09044e-05     -27.2529 
         150     0.853332 -0.000221338   1.3278e-05     -27.2529 
         150         1.08 -0.000196405  1.58945e-05     -27.2529 
         150      1.33333 -0.000168833     1.84e-05     -27.2529 
         150      1.61333 -0.000136432  2.03326e-05     -27.2529 
         150         1.92 -0.000103377  2.15742e-05     -27.2529 
         150      2.25333 -7.44767e-05  2.19815e-05     -27.2528 
         150      2.61333 -4.63274e-05  2.15591e-05     -27.2528 
         150            3 -3.23798e-05  2.02129e-05     -27.2528 
         200            0           -0           -0     -25.6408 
         200     0.013333 -9.85207e-05  1.24083e-08     -25.6408 
         200     0.053333 -0.000135268  1.48457e-07     -25.6408 
         200         0.12 -0.000186741  4.20109e-07     -25.6408 
         200     0.213332 -0.000224758  3.78191e-07     -25.6408 
         200     0.333332 -0.000236384 -6.57231e-07     -25.6408 
         200         0.48 -0.000229451  -3.0016e-06     -25.6408 
         200     0.653331 -0.000217922 -6.38874e-06     -25.6408 
         200     0.853332  -0.00020526 -1.01659e-05     -25.6408 
         200         1.08 -0.000186207 -1.36458e-05     -25.6408 
         200      1.33333 -0.000160393 -1.66028e-05     -25.6408 
         200      1.61333 -0.000131252 -1.91421e-05     -25.6408 
         200         1.92 -0.000101921  -2.0921e-05     -25.6408 
         200      2.25333 -7.50224e-05 -2.19417e-05     -25.6408 
         200      2.61333 -4.96809e-05 -2.20151e-05     -25.6408 
         200            3  -3.3536e-05 -2.11796e-05     -25.6408 
         250            0            0            0     -24.0355 
         250     0.013333 -7.80524e-05  1.40191e-08     -24.0355 
         250     0.053333 -6.50415e-05  2.15738e-07     -24.0355 
         250         0.12 -6.62838e-05   1.0056e-06     -24.0355 
         250     0.213332 -8.22629e-05  2.77859e-06     -24.0355 
         250     0.333332 -0.000104775  5.63528e-06     -24.0355 
         250         0.48 -0.000122647  9.34073e-06     -24.0355 
         250     0.653331 -0.000130837   1.3568e-05     -24.0355 
         250     0.853332 -0.000130139  1.81014e-05     -24.0355 
         250         1.08 -0.000123242  2.28163e-05     -24.0355 
         250      1.33333 -0.000114183  2.75145e-05     -24.0355 
         250      1.61333 -0.000103055  3.17787e-05     -24.0355 
         250         1.92 -9.16507e-05  3.51733e-05     -24.0355 
         250      2.25333 -8.06667e-05  3.74225e-05     -24.0355 
         250      2.61333  -6.7923e-05  3.82868e-05     -24.0355 
         250            3 -6.14322e-05  3.75994e-05     -24.0355 
         300            0           -0           -0     -22.4325 
         300     0.013333  -6.3931e-05  3.18586e-08     -22.4325 
         300     0.053333 -2.05113e-05  5.07665e-07     -22.4325 
         300         0.12 -5.69386e-07  2.46335e-06     -22.4325 
         300     0.213332 -2.03453e-05  7.02524e-06     -22.4325 
         300     0.333332 -6.36534e-05  1.45456e-05     -22.4325 
         300         0.48 -0.000100082  2.44472e-05     -22.4325 
         300     0.653331  -0.00011277  3.59229e-05     -22.4325 
         300     0.853332 -0.000103728  4.83035e-05     -22.4325 
         300         1.08 -8.89534e-05  6.06812e-05     -22.4325 
         300      1.33333 -8.52649e-05  7.19823e-05     -22.4325 
         300      1.61333 -8.50496e-05  8.15269e-05     -22.4325 
         300         1.92 -8.41206e-05  8.86596e-05     -22.4325 
         300      2.25333 -8.31935e-05  9.29675e-05     -22.4325 
         300      2.61333 -7.83218e-05   9.3943e-05     -22.4325 
         300            3 -7.38235e-05  9.14878e-05     -22.4325 
         350            0 -8.85923e-20 -3.16997e-27     -20.8304 
         350     0.013333 -6.95043e-05  1.81284e-08     -20.8304 
         350     0.053333 -3.50724e-05  2.81397e-07     -20.8304 
         350         0.12 -1.10367e-05  1.31766e-06     -20.8304 
         350     0.213332 -5.34935e-06  3.62544e-06     -20.8304 
         350     0.333332  -1.2467e-05  7.31371e-06     -20.8304 
         350         0.48 -2.09784e-05  1.22053e-05     -20.8304 
         350     0.653331 -2.27302e-05  1.82263e-05     -20.8304 
         350     0.853332 -1.37173e-05  2.53876e-05     -20.8304 
         350         1.08  -5.2144e-07   3.3211e-05     -20.8304 
         350      1.33333 -1.34196e-07  4.05888e-05     -20.8304 
         350      1.61333 -1.22297e-05  4.67281e-05     -20.8304 
         350         1.92 -2.74984e-05  5.13405e-05     -20.8304 
         350      2.25333 -4.45376e-05  5.43792e-05     -20.8304 
         350      2.61333  -6.2423e-05  5.54281e-05     -20.8304 
         350            3  -7.7471e-05  5.46116e-05     -20.8304 
         400            0           -0           -0     -19.2287 
         400     0.013333 -0.000103535  6.70215e-08     -19.2287 
         400     0.053333 -0.000170138  9.57731e-07     -19.2287 
         400         0.12 -0.000296055  3.99071e-06     -19.2287 
         400     0.213332 -0.000441272  9.56735e-06     -19.2287 
         400     0.333332 -0.000550297  1.65447e-05     -19.2287 
         400         0.48 -0.000598821  2.33669e-05     -19.2287 
         400     0.653331 -0.000600011  2.95449e-05     -19.2287 
         400     0.853332 -0.000568955  3.58122e-05     -19.2287 
         400         1.08 -0.000509811  4.29446e-05     -19.2287 
         400      1.33333  -0.00043664  5.04558e-05     -19.2287 
         400      1.61333 -0.000359653  5.70784e-05     -19.2287 
         400         1.92 -0.000280982   6.2281e-05     -19.2287 
         400      2.25333 -0.000201032  6.57056e-05     -19.2287 
         400      2.61333  -0.00011581  6.70382e-05     -19.2287 
         400            3   -4.614e-05  6.61604e-05     -19.2287 
         450            0           -0           -0     -17.6268 
         450     0.013333 -5.19296e-05  6.84203e-08     -17.6268 
         450     0.053333  1.04715e-05  1.07362e-06     -17.6268 
         450         0.12  2.21369e-05  5.12858e-06     -17.6268 
         450     0.213332 -4.85472e-05   1.4459e-05     -17.6268 
         450     0.333332 -0.000164071  2.97017e-05     -17.6268 
         450         0.48 -0.000258009  4.95451e-05     -17.6268 
         450     0.653331 -0.000294871  7.21565e-05     -17.6268 
         450     0.853332  -0.00027893  9.63245e-05     -17.6268 
         450         1.08  -0.00023718  0.000120914     -17.6268 
         450      1.33333 -0.000205312  0.000144123     -17.6268 
         450      1.61333   -0.0001857  0.000164262     -17.6268 
         450         1.92 -0.000165836    0.0001804     -17.6268 
         450      2.25333 -0.000143214  0.000191785     -17.6268 
         450      2.61333 -0.000114343  0.000197313     -17.6268 
         450            3 -8.84506e-05  0.000196311     -17.6268 
         500            0           -0           -0     -16.0246 
         500     0.013333 -6.40216e-05 -1.25463e-07     -16.0246 
         500     0.053333  2.61501e-05 -1.84102e-06     -16.0246 
         500         0.12  0.000215722 -8.02574e-06     -16.0246 
         500     0.213332  0.000478799 -2.05032e-05     -16.0246 
         500     0.333332  0.000721955 -3.83366e-05     -16.0246 
         500         0.48  0.000871266 -5.88527e-05     -16.0246 
         500     0.653331  0.000919997 -8.01151e-05     -16.0246 
         500     0.853332  0.000892978 -0.000102085     -16.0246 
         500         1.08  0.000805454 -0.000125585     -16.0246 
         500      1.33333  0.000677588 -0.000150228     -16.0246 
         500      1.61333    0.0005329 -0.000173814     -16.0246 
         500         1.92  0.000389038 -0.000194245     -16.0246 
         500      2.25333  0.000244238  -0.00021005     -16.0247 
         500      2.61333  8.59994e-05 -0.000219968     -16.0247 
         500            3 -5.44669e-05 -0.000223079     -16.0247 
         550            0           -0           -0     -14.4231 
         550     0.013333 -8.76485e-05   8.0758e-08     -14.4231 
         550     0.053333  -0.00011732   1.1768e-06     -14.4231 
         550         0.12 -0.000211176  5.08849e-06     -14.4231 
         550     0.213332 -0.000352393  1.29316e-05     -14.4231 
         550     0.333332 -0.000489012  2.42222e-05     -14.4231 
         550         0.48 -0.000580301  3.76078e-05     -14.4231 
         550     0.653331 -0.000620768  5.22678e-05     -14.4231 
         550     0.853332 -0.000617301  6.84957e-05     -14.4231 
         550         1.08 -0.000568849  8.70692e-05     -14.4231 
         550      1.33333  -0.00048516   0.00010778     -14.4231 
         550      1.61333 -0.000392824  0.000128704     -14.4231 
         550         1.92 -0.000312035  0.000147759     -14.4231 
         550      2.25333 -0.000237264  0.000163594     -14.4231 
         550      2.61333  -0.00015461  0.000175151      -14.423 
         550            3 -8.07359e-05  0.000181509      -14.423 
         600            0           -0           -0     -12.8208 
         600     0.013333 -7.40098e-05 -1.28624e-08     -12.8208 
         600     0.053333 -4.27211e-05 -1.80358e-07     -12.8208 
         600         0.12 -3.83527e-06  -7.3148e-07     -12.8208 
         600     0.213332  3.45255e-05 -1.69575e-06     -12.8208 
         600     0.333332  5.90051e-05 -2.79838e-06     -12.8208 
         600         0.48  6.44212e-05 -3.65412e-06     -12.8208 
         600     0.653331  5.64834e-05 -4.02043e-06     -12.8208 
         600     0.853332  4.46429e-05 -3.89903e-06     -12.8208 
         600         1.08  3.25113e-05 -3.54595e-06     -12.8208 
         600      1.33333  1.62887e-05 -3.35588e-06     -12.8208 
         600      1.61333  -5.0102e-06 -3.46512e-06     -12.8208 
         600         1.92 -2.56757e-05 -3.62955e-06     -12.8208 
         600      2.25333 -4.51273e-05 -3.65391e-06     -12.8208 
         600      2.61333  -6.5706e-05 -3.54127e-06     -12.8208 
         600            3 -8.47767e-05 -3.30407e-06     -12.8208 
         650            0            0            0     -11.2188 
         650     0.013333 -5.65553e-05  8.02267e-08     -11.2188 
         650     0.053333 -1.16324e-05  1.25319e-06     -11.2188 
         650         0.12 -3.88634e-05  5.98214e-06     -11.2188 
         650     0.213332 -0.000174524  1.69646e-05     -11.2188 
         650     0.333332 -0.000371819  3.52044e-05     -11.2188 
         650         0.48 -0.000540888  5.92604e-05     -11.2188 
         650     0.653331 -0.000626427  8.65934e-05     -11.2188 
         650     0.853332 -0.000631296  0.000115249     -11.2188 
         650         1.08 -0.000589209  0.000144002     -11.2188 
         650      1.33333 -0.000535551  0.000171707     -11.2188 
         650      1.61333 -0.000478896  0.000197318     -11.2188 
         650         1.92 -0.000415881  0.000219963     -11.2188 
         650      2.25333 -0.000345871  0.000238532     -11.2188 
         650      2.61333 -0.000264879  0.000251579     -11.2187 
         650            3 -0.000184958  0.000257851     -11.2187 
         700            0           -0           -0     -9.61648 
         700     0.013333  -0.00021072 -1.03291e-07     -9.61648 
         700     0.053333 -0.000504307 -1.69518e-06     -9.61648 
         700         0.12 -0.000775003 -8.62615e-06     -9.61648 
         700     0.213332  -0.00084928 -2.61523e-05     -9.61648 
         700     0.333332 -0.000713462 -5.79013e-05     -9.61648 
         700         0.48 -0.000492918 -0.000103647     -9.61648 
         700     0.653331 -0.000323442 -0.000160418     -9.61648 
         700     0.853332 -0.000263623  -0.00022499     -9.61648 
         700         1.08 -0.000290454 -0.000294247     -9.61648 
         700      1.33333 -0.000324561 -0.000363969     -9.61648 
         700      1.61333 -0.000310923 -0.000429532     -9.61648 
         700         1.92 -0.000262255 -0.000488039     -9.61648 
         700      2.25333 -0.000206402  -0.00053758     -9.61647 
         700      2.61333 -0.000155258 -0.000575095     -9.61647 
         700            3 -0.000101283 -0.000597363     -9.61646 
         750            0           -0           -0     -8.01377 
         750     0.013333 -2.19378e-05  1.00491e-08     -8.01377 
         750     0.053333  0.000139806  2.14022e-07     -8.01377 
         750         0.12  0.000325366  1.36078e-06     -8.01377 
         750     0.213332  0.000471164  4.77971e-06     -8.01377 
         750     0.333332  0.000552691  1.15602e-05     -8.01377 
         750         0.48  0.000590712  2.18593e-05     -8.01377 
         750     0.653331  0.000618896  3.52593e-05     -8.01377 
         750     0.853332  0.000657918  5.12941e-05     -8.01377 
         750         1.08  0.000699817  6.88938e-05     -8.01377 
         750      1.33333  0.000700314  8.55692e-05     -8.01377 
         750      1.61333  0.000626259  9.86943e-05     -8.01377 
         750         1.92  0.000509511  0.000107933     -8.01378 
         750      2.25333  0.000385871  0.000114274     -8.01378 
         750      2.61333  0.000255421  0.000117674     -8.01378 
         750            3   0.00012003  0.000117595     -8.01379 
         800            0            0            0     -6.41108 
         800     0.013333 -2.26726e-05 -1.41364e-07     -6.41108 
         800     0.053333  0.000185765  -2.0699e-06     -6.41108 
         800         0.12  0.000547539 -8.96895e-06     -6.41108 
         800     0.213332  0.000991136 -2.25878e-05     -6.41108 
         800     0.333332   0.00136513 -4.10683e-05     -6.41108 
         800         0.48   0.00155926  -6.0241e-05     -6.41108 
         800     0.653331   0.00157737 -7.71355e-05     -6.41108 
         800     0.853332   0.00148443 -9.18237e-05     -6.41108 
         800         1.08   0.00132838 -0.000105991     -6.41108 
         800      1.33333   0.00114156 -0.000120095     -6.41108 
         800      1.61333   0.00095845 -0.000132556     -6.41108 
         800         1.92   0.00078589 -0.000142119     -6.41109 
         800      2.25333  0.000602813 -0.000148637     -6.41109 
         800      2.61333  0.000396587 -0.000151959      -6.4111 
         800            3  0.000183874 -0.000151654     -6.41112 
         850            0            0            0     -4.80903 
         850     0.013333  2.32578e-05  2.05378e-07     -4.80903 
         850     0.053333   0.00023889  3.18591e-06     -4.80903 
         850         0.12  0.000324379  1.50883e-05     -4.80903 
         850     0.213332  0.000142624  4.25711e-05     -4.80903 
         850     0.333332 -0.000232919  8.84009e-05     -4.80903 
         850         0.48 -0.000603154  0.000149994     -4.80903 
         850     0.653331 -0.000820494  0.000222584     -4.80903 
         850     0.853332 -0.000850963  0.000303019     -4.80903 
         850         1.08 -0.000731302  0.000389683     -4.80903 
         850      1.33333 -0.000551406  0.000479257     -4.80903 
         850      1.61333 -0.000414175  0.000565694     -4.80903 
         850         1.92 -0.000344524  0.000644019     -4.80903 
         850      2.25333 -0.000293325  0.000711645     -4.80903 
         850      2.61333 -0.000225725  0.000765632     -4.80903 
         850            3 -0.000158197  0.000801877     -4.80902 
         900            0            0            0     -3.20638 
         900     0.013333 -0.000214901  -5.2451e-08     -3.20638 
         900     0.053333 -0.000535558 -9.39716e-07     -3.20638 
         900         0.12  -0.00088048 -5.25182e-06     -3.20638 
         900     0.213332  -0.00107427 -1.71916e-05     -3.20638 
         900     0.333332  -0.00107094 -4.02176e-05     -3.20638 
         900         0.48 -0.000963162 -7.46547e-05     -3.20638 
         900     0.653331 -0.000875986 -0.000118153     -3.20638 
         900     0.853332   -0.0008725 -0.000167831     -3.20638 
         900         1.08 -0.000932055 -0.000220648     -3.20638 
         900      1.33333 -0.000964724 -0.000272165     -3.20638 
         900      1.61333    -0.000894  -0.00031767     -3.20638 
         900         1.92 -0.000752323 -0.000355757     -3.20638 
         900      2.25333  -0.00060471 -0.000387259     -3.20638 
         900      2.61333 -0.000460976 -0.000411397     -3.20637 
         900            3 -0.000311001 -0.000426035     -3.20636 
         950            0            0            0      -1.6028 
         950     0.013333  4.86957e-05  3.24429e-08      -1.6028 
         950     0.053333  0.000383015  6.59967e-07      -1.6028 
         950         0.12  0.000736106  4.15693e-06      -1.6028 
         950     0.213332  0.000924161  1.49242e-05      -1.6028 
         950     0.333332  0.000877785  3.73552e-05      -1.6028 
         950         0.48  0.000687914  7.26727e-05      -1.6028 
         950     0.653331  0.000506192  0.000118355      -1.6028 
         950     0.853332  0.000420298  0.000170257      -1.6028 
         950         1.08   0.00041172   0.00022405      -1.6028 
         950      1.33333  0.000391945  0.000275236      -1.6028 
         950      1.61333  0.000306264  0.000320563      -1.6028 
         950         1.92  0.000194763  0.000360292     -1.60281 
         950      2.25333  0.000101349  0.000395191     -1.60281 
         950      2.61333  1.88406e-05  0.000423481     -1.60282 
         950            3 -6.26174e-05  0.000443456     -1.60282 
        1000            0            0            0            0 
        1000     0.013333  2.00622e-05 -1.37426e-05           -0 
        1000     0.053333  0.000238258 -5.99673e-05           -0 
        1000         0.12  0.000250787 -0.000164369 -1.33282e-16 
        1000     0.213332 -0.000178272 -0.000379819 -1.58469e-15 
        1000     0.333332  8.42037e-06 -0.000973795 -8.75433e-16 
        1000         0.48  -0.00208774  -0.00136521           -0 
        1000     0.653331  -0.00202137  -0.00118037            0 
        1000     0.853332  -0.00169081  -0.00191528            0 
        1000         1.08  -0.00343554  -0.00248897            0 
        1000      1.33333    -0.010003  -0.00193043 -6.81088e-16 
        1000      1.61333   -0.0039066  0.000711004           -0 
        1000         1.92  -0.00264859  0.000208138 -1.61707e-15 
        1000      2.25333  -0.00312373 -3.65342e-05 -1.64409e-15 
        1000      2.61333  -0.00439087    0.0010793           -0 
        1000            3  -0.00124719   0.00119706 -1.76489e-15 
