Variables = x, y, u, v, p

Zone, I=2080, F=POINT
         -50            0            0            0      -77.705 
         -50      0.00048 -7.13034e-05 -7.27652e-09      -77.705 
         -50     0.001922 -0.000253487 -2.78808e-08      -77.705 
         -50     0.004326 -0.000466656 -5.86027e-08      -77.705 
         -50      0.00769 -0.000623963 -9.56717e-08      -77.705 
         -50     0.012017 -0.000677002 -1.36396e-07      -77.705 
         -50     0.017304 -0.000639916 -1.79911e-07      -77.705 
         -50     0.023553  -0.00057697 -2.26874e-07      -77.705 
         -50     0.030763 -0.000555012 -2.77778e-07      -77.705 
         -50     0.038936 -0.000588764 -3.31106e-07      -77.705 
         -50     0.048069 -0.000624927 -3.82741e-07      -77.705 
         -50     0.058163 -0.000602919  -4.2823e-07      -77.705 
         -50     0.069219 -0.000564425 -4.67063e-07      -77.705 
         -50     0.081236  -0.00062055  -5.0312e-07      -77.705 
         -50     0.094215 -0.000585986 -5.31118e-07      -77.705 
         -50     0.108155 -0.000598304 -5.50333e-07      -77.705 
         -50     0.123056 -0.000598799 -5.60782e-07      -77.705 
         -50     0.138918 -0.000597832 -5.62453e-07      -77.705 
         -50     0.155744 -0.000599535  -5.5544e-07      -77.705 
         -50     0.173529 -0.000603015 -5.39962e-07      -77.705 
         -50     0.192276 -0.000605452 -5.16408e-07      -77.705 
         -50     0.211984 -0.000605896 -4.85407e-07      -77.705 
         -50     0.232655 -0.000607167 -4.47804e-07     -77.7049 
         -50     0.254285 -0.000611109 -4.04453e-07     -77.7049 
         -50     0.276877 -0.000611244 -3.56011e-07     -77.7049 
         -50     0.300431 -0.000613387 -3.03187e-07     -77.7049 
         -50     0.324946 -0.000614998  -2.4643e-07     -77.7049 
         -50     0.350424 -0.000616381 -1.86206e-07     -77.7049 
         -50     0.376861 -0.000617682 -1.22695e-07     -77.7048 
         -50      0.40426 -0.000618926 -5.57828e-08     -77.7048 
         -50     0.432621 -0.000620051  1.48405e-08     -77.7048 
         -50     0.461945 -0.000620972   8.9591e-08     -77.7047 
         -50     0.492228 -0.000621633  1.68847e-07     -77.7047 
         -50     0.523472 -0.000622047  2.52849e-07     -77.7047 
         -50     0.555678 -0.000622276  3.41578e-07     -77.7046 
         -50     0.588845  -0.00062233   4.3473e-07     -77.7046 
         -50     0.622976 -0.000621953  5.31881e-07     -77.7045 
         -50     0.658066 -0.000621413  6.35556e-07     -77.7045 
         -50     0.694117 -0.000620571  7.44852e-07     -77.7044 
         -50      0.73113 -0.000619467   8.5654e-07     -77.7043 
         -50     0.769107 -0.000618146  9.67323e-07     -77.7042 
         -50     0.808042 -0.000616657  1.07376e-06     -77.7042 
         -50     0.847939 -0.000615052  1.17229e-06     -77.7041 
         -50     0.888797  -0.00061338  1.25913e-06      -77.704 
         -50      0.93062 -0.000611688  1.33031e-06     -77.7039 
         -50       0.9734 -0.000610012  1.38168e-06     -77.7038 
         -50      1.01714 -0.000608381  1.40898e-06     -77.7037 
         -50      1.06185 -0.000606811  1.40807e-06     -77.7036 
         -50      1.10751 -0.000605306  1.37519e-06     -77.7034 
         -50      1.15414 -0.000603861  1.30746e-06     -77.7033 
         -50      1.20173 -0.000602468   1.2036e-06     -77.7032 
         -50      1.25028 -0.000601124  1.06487e-06      -77.703 
         -50      1.29979 -0.000599847  8.96477e-07     -77.7028 
         -50      1.35026 -0.000598483  7.05676e-07     -77.7027 
         -50       1.4017 -0.000596921  4.69305e-07     -77.7025 
         -50      1.45409 -0.000595345  1.91908e-07     -77.7023 
         -50      1.50745 -0.000593639  -1.1668e-07     -77.7021 
         -50      1.56176 -0.000591745 -4.52197e-07     -77.7019 
         -50      1.61705 -0.000589661 -8.15265e-07     -77.7016 
         -50      1.67329 -0.000587427 -1.21031e-06     -77.7014 
         -50      1.73049 -0.000585122 -1.64462e-06     -77.7012 
         -50      1.78865 -0.000582844 -2.12697e-06     -77.7009 
         -50      1.84778 -0.000580706 -2.66631e-06     -77.7006 
         -50      1.90786 -0.000578816 -3.27019e-06     -77.7003 
         -50      1.96891 -0.000577269 -3.94365e-06        -77.7 
         -50      2.03092 -0.000576131 -4.68773e-06     -77.6997 
         -50      2.09389 -0.000575428 -5.49861e-06     -77.6994 
         -50      2.15782 -0.000575145 -6.36657e-06      -77.699 
         -50      2.22272 -0.000575215 -7.27627e-06     -77.6987 
         -50      2.28857 -0.000575526 -8.20684e-06     -77.6983 
         -50      2.35539 -0.000575931 -9.13343e-06     -77.6979 
         -50      2.42317 -0.000576269 -1.00296e-05     -77.6975 
         -50      2.49191 -0.000576396 -1.08708e-05      -77.697 
         -50      2.56161 -0.000576235 -1.16404e-05     -77.6966 
         -50      2.63226 -0.000575839 -1.23367e-05     -77.6961 
         -50      2.70389 -0.000575483 -1.29827e-05     -77.6956 
         -50      2.77648 -0.000575612 -1.38051e-05     -77.6951 
         -50      2.85002 -0.000575606 -1.47583e-05     -77.6946 
         -50      2.92453 -0.000575404 -1.55527e-05      -77.694 
         -50            3 -0.000575129 -1.62878e-05     -77.6934 
         -25            0 -5.54389e-19  -2.9589e-23      -74.544 
         -25      0.00048 -5.19574e-05 -2.85029e-09      -74.544 
         -25     0.001922 -0.000184722 -1.10364e-08      -74.544 
         -25     0.004326 -0.000340101 -2.36412e-08      -74.544 
         -25      0.00769 -0.000454832 -3.97347e-08      -74.544 
         -25     0.012017 -0.000493644 -5.89923e-08      -74.544 
         -25     0.017304  -0.00046681 -8.19469e-08      -74.544 
         -25     0.023553 -0.000421103 -1.09836e-07      -74.544 
         -25     0.030763 -0.000405174 -1.43885e-07      -74.544 
         -25     0.038936 -0.000429718 -1.84549e-07      -74.544 
         -25     0.048069 -0.000455896 -2.31207e-07      -74.544 
         -25     0.058163 -0.000439575 -2.83018e-07      -74.544 
         -25     0.069219 -0.000411105 -3.40534e-07      -74.544 
         -25     0.081236 -0.000451403 -4.05832e-07      -74.544 
         -25     0.094215  -0.00042553 -4.77187e-07      -74.544 
         -25     0.108155 -0.000433695 -5.54443e-07      -74.544 
         -25     0.123056 -0.000433173 -6.37457e-07      -74.544 
         -25     0.138918 -0.000431541 -7.25862e-07      -74.544 
         -25     0.155744 -0.000431841 -8.19178e-07      -74.544 
         -25     0.173529 -0.000433458  -9.1677e-07      -74.544 
         -25     0.192276 -0.000434369 -1.01799e-06      -74.544 
         -25     0.211984  -0.00043391 -1.12216e-06      -74.544 
         -25     0.232655 -0.000434159 -1.22869e-06      -74.544 
         -25     0.254285 -0.000436476 -1.33704e-06      -74.544 
         -25     0.276877 -0.000436155 -1.44713e-06      -74.544 
         -25     0.300431 -0.000437439 -1.55761e-06      -74.544 
         -25     0.324946 -0.000438479 -1.66839e-06      -74.544 
         -25     0.350424 -0.000439493 -1.77988e-06      -74.544 
         -25     0.376861 -0.000440588 -1.89205e-06      -74.544 
         -25      0.40426 -0.000441774 -2.00469e-06     -74.5439 
         -25     0.432621 -0.000443005 -2.11756e-06     -74.5439 
         -25     0.461945 -0.000444215  -2.2307e-06     -74.5439 
         -25     0.492228 -0.000445363 -2.34453e-06     -74.5439 
         -25     0.523472  -0.00044646 -2.45985e-06     -74.5439 
         -25     0.555678 -0.000447553 -2.57749e-06     -74.5439 
         -25     0.588845 -0.000448655  -2.6974e-06     -74.5439 
         -25     0.622976 -0.000449579 -2.81575e-06     -74.5438 
         -25     0.658066 -0.000450509 -2.92886e-06     -74.5438 
         -25     0.694117 -0.000451346 -3.05964e-06     -74.5438 
         -25      0.73113  -0.00045208  -3.1952e-06     -74.5438 
         -25     0.769107 -0.000452704 -3.32834e-06     -74.5437 
         -25     0.808042 -0.000453208 -3.45667e-06     -74.5437 
         -25     0.847939 -0.000453589 -3.58134e-06     -74.5437 
         -25     0.888797 -0.000453843 -3.70544e-06     -74.5436 
         -25      0.93062 -0.000453971 -3.83239e-06     -74.5436 
         -25       0.9734  -0.00045398 -3.96436e-06     -74.5436 
         -25      1.01714 -0.000453875 -4.10113e-06     -74.5435 
         -25      1.06185 -0.000453671 -4.23966e-06     -74.5435 
         -25      1.10751 -0.000453378 -4.37494e-06     -74.5434 
         -25      1.15414  -0.00045301 -4.50257e-06     -74.5434 
         -25      1.20173 -0.000452574 -4.62383e-06     -74.5433 
         -25      1.25028 -0.000452067 -4.75417e-06     -74.5432 
         -25      1.29979 -0.000451469 -4.93595e-06     -74.5432 
         -25      1.35026 -0.000450617 -5.07542e-06     -74.5431 
         -25       1.4017 -0.000449634 -5.10875e-06      -74.543 
         -25      1.45409  -0.00044858 -5.24506e-06      -74.543 
         -25      1.50745 -0.000447243 -5.41852e-06     -74.5429 
         -25      1.56176 -0.000445483 -5.58431e-06     -74.5428 
         -25      1.61705 -0.000443229 -5.71692e-06     -74.5427 
         -25      1.67329 -0.000440476 -5.80766e-06     -74.5426 
         -25      1.73049 -0.000437275 -5.86173e-06     -74.5425 
         -25      1.78865 -0.000433727 -5.89471e-06     -74.5424 
         -25      1.84778 -0.000429972 -5.92877e-06     -74.5423 
         -25      1.90786 -0.000426177 -5.98875e-06     -74.5422 
         -25      1.96891 -0.000422521 -6.09824e-06     -74.5421 
         -25      2.03092 -0.000419185 -6.27613e-06      -74.542 
         -25      2.09389 -0.000416332 -6.53385e-06     -74.5418 
         -25      2.15782 -0.000414102 -6.87357e-06     -74.5417 
         -25      2.22272  -0.00041259 -7.28834e-06     -74.5415 
         -25      2.28857 -0.000411844 -7.76405e-06     -74.5414 
         -25      2.35539 -0.000411854 -8.28439e-06     -74.5412 
         -25      2.42317 -0.000412553  -8.8394e-06     -74.5411 
         -25      2.49191 -0.000413824 -9.43811e-06     -74.5409 
         -25      2.56161 -0.000415509 -1.01271e-05     -74.5407 
         -25      2.63226 -0.000417439 -1.10149e-05     -74.5405 
         -25      2.70389 -0.000419466 -1.23047e-05     -74.5404 
         -25      2.77648  -0.00042129 -1.33045e-05     -74.5402 
         -25      2.85002 -0.000422921   -1.332e-05     -74.5399 
         -25      2.92453  -0.00042468 -1.40403e-05     -74.5397 
         -25            3 -0.000426447  -1.5033e-05     -74.5395 
           0            0 -4.64738e-19   -1.421e-23     -72.0615 
           0      0.00048 -4.35558e-05 -1.35917e-09     -72.0615 
           0     0.001922 -0.000154857  -5.1454e-09     -72.0615 
           0     0.004326 -0.000285136 -1.05723e-08     -72.0615 
           0      0.00769 -0.000381381 -1.66269e-08     -72.0615 
           0     0.012017 -0.000414048 -2.23774e-08     -72.0615 
           0     0.017304 -0.000391772 -2.71211e-08     -72.0615 
           0     0.023553 -0.000353784 -3.03319e-08     -72.0615 
           0     0.030763 -0.000340887 -3.13604e-08     -72.0615 
           0     0.038936 -0.000362066 -2.91027e-08     -72.0615 
           0     0.048069 -0.000384779 -2.19268e-08     -72.0615 
           0     0.058163 -0.000372039 -8.11839e-09     -72.0615 
           0     0.069219 -0.000349289  1.32726e-08     -72.0615 
           0     0.081236 -0.000384347   4.2295e-08     -72.0615 
           0     0.094215 -0.000364084  8.06038e-08     -72.0615 
           0     0.108155 -0.000372476  1.28834e-07     -72.0615 
           0     0.123056 -0.000373675  1.87271e-07     -72.0615 
           0     0.138918 -0.000373992  2.55964e-07     -72.0615 
           0     0.155744 -0.000375936  3.34681e-07     -72.0615 
           0     0.173529 -0.000378947  4.22845e-07     -72.0615 
           0     0.192276 -0.000381284  5.19602e-07     -72.0615 
           0     0.211984 -0.000382352  6.23773e-07     -72.0615 
           0     0.232655 -0.000383859  7.33917e-07     -72.0614 
           0     0.254285  -0.00038692  8.48343e-07     -72.0614 
           0     0.276877 -0.000387572  9.65222e-07     -72.0614 
           0     0.300431 -0.000389366  1.08298e-06     -72.0614 
           0     0.324946 -0.000390754  1.19962e-06     -72.0614 
           0     0.350424 -0.000391932  1.31322e-06     -72.0614 
           0     0.376861 -0.000393005  1.42206e-06     -72.0614 
           0      0.40426 -0.000394008  1.52475e-06     -72.0614 
           0     0.432621 -0.000394929  1.62006e-06     -72.0614 
           0     0.461945 -0.000395743  1.70687e-06     -72.0614 
           0     0.492228 -0.000396445  1.78416e-06     -72.0614 
           0     0.523472 -0.000397071  1.85101e-06     -72.0614 
           0     0.555678 -0.000397685  1.90676e-06     -72.0614 
           0     0.588845 -0.000398312  1.95141e-06     -72.0614 
           0     0.622976 -0.000398811  1.98612e-06     -72.0614 
           0     0.658066 -0.000399346  2.00718e-06     -72.0614 
           0     0.694117 -0.000399833  2.01729e-06     -72.0613 
           0      0.73113 -0.000400266  2.01659e-06     -72.0613 
           0     0.769107 -0.000400634  2.00526e-06     -72.0613 
           0     0.808042 -0.000400921  1.98343e-06     -72.0613 
           0     0.847939 -0.000401106  1.95125e-06     -72.0613 
           0     0.888797 -0.000401168  1.90893e-06     -72.0613 
           0      0.93062 -0.000401082  1.85671e-06     -72.0613 
           0       0.9734  -0.00040083  1.79488e-06     -72.0612 
           0      1.01714 -0.000400392  1.72381e-06     -72.0612 
           0      1.06185 -0.000399759  1.64388e-06     -72.0612 
           0      1.10751 -0.000398927  1.55541e-06     -72.0612 
           0      1.15414 -0.000397903   1.4586e-06     -72.0611 
           0      1.20173 -0.000396703  1.35329e-06     -72.0611 
           0      1.25028 -0.000395352  1.23877e-06     -72.0611 
           0      1.29979 -0.000393883  1.11335e-06     -72.0611 
           0      1.35026 -0.000392296  9.80189e-07      -72.061 
           0       1.4017 -0.000390526  8.40203e-07      -72.061 
           0      1.45409 -0.000388652  6.84007e-07      -72.061 
           0      1.50745  -0.00038672  5.13537e-07     -72.0609 
           0      1.56176 -0.000384753  3.31576e-07     -72.0609 
           0      1.61705 -0.000382755   1.4135e-07     -72.0608 
           0      1.67329 -0.000380716 -5.38303e-08     -72.0608 
           0      1.73049 -0.000378615 -2.51102e-07     -72.0607 
           0      1.78865  -0.00037643 -4.48454e-07     -72.0607 
           0      1.84778 -0.000374142 -6.45173e-07     -72.0606 
           0      1.90786 -0.000371743 -8.42176e-07     -72.0606 
           0      1.96891 -0.000369242  -1.0424e-06     -72.0605 
           0      2.03092 -0.000366666 -1.25091e-06     -72.0605 
           0      2.09389  -0.00036407  -1.4749e-06     -72.0604 
           0      2.15782 -0.000361535 -1.72338e-06     -72.0603 
           0      2.22272 -0.000359162 -2.00674e-06     -72.0603 
           0      2.28857 -0.000357074 -2.33569e-06     -72.0602 
           0      2.35539 -0.000355399 -2.71988e-06     -72.0601 
           0      2.42317 -0.000354254 -3.16593e-06       -72.06 
           0      2.49191  -0.00035372 -3.67458e-06       -72.06 
           0      2.56161 -0.000353809 -4.23742e-06     -72.0599 
           0      2.63226 -0.000354413 -4.83222e-06     -72.0598 
           0      2.70389 -0.000355252  -5.4175e-06     -72.0597 
           0      2.77648    -0.000356 -5.89384e-06     -72.0596 
           0      2.85002 -0.000356726 -6.22535e-06     -72.0595 
           0      2.92453 -0.000357178 -6.41517e-06     -72.0594 
           0            3  -0.00035735  -6.4146e-06     -72.0593 
          20            0 -4.22633e-19 -8.48778e-24     -70.3124 
          20      0.00048 -3.95957e-05 -8.16788e-10     -70.3124 
          20     0.001922 -0.000140615 -3.15165e-09     -70.3124 
          20     0.004326 -0.000258321 -6.70261e-09     -70.3124 
          20      0.00769 -0.000344091  -1.1118e-08     -70.3124 
          20     0.012017 -0.000370844 -1.61445e-08     -70.3124 
          20     0.017304 -0.000346542 -2.16631e-08     -70.3124 
          20     0.023553 -0.000307229  -2.7601e-08     -70.3124 
          20     0.030763 -0.000290406  -3.3682e-08     -70.3124 
          20     0.038936 -0.000304386 -3.91619e-08     -70.3124 
          20     0.048069  -0.00031939 -4.27072e-08     -70.3124 
          20     0.058163 -0.000301575 -4.26047e-08     -70.3124 
          20     0.069219 -0.000274386 -3.72096e-08     -70.3124 
          20     0.081236 -0.000300161 -2.49896e-08     -70.3124 
          20     0.094215 -0.000275205 -3.01201e-09     -70.3124 
          20     0.108155 -0.000276687  3.15088e-08     -70.3124 
          20     0.123056 -0.000271824   8.1545e-08     -70.3124 
          20     0.138918  -0.00026651  1.50304e-07     -70.3124 
          20     0.155744 -0.000263138  2.41151e-07     -70.3124 
          20     0.173529 -0.000261275  3.57449e-07     -70.3124 
          20     0.192276 -0.000259383  5.02533e-07     -70.3124 
          20     0.211984 -0.000256956  6.79539e-07     -70.3124 
          20     0.232655  -0.00025558  8.91365e-07     -70.3124 
          20     0.254285 -0.000256273  1.14055e-06     -70.3124 
          20     0.276877 -0.000255374  1.42945e-06     -70.3124 
          20     0.300431 -0.000256094  1.75987e-06     -70.3124 
          20     0.324946  -0.00025695  2.13311e-06     -70.3124 
          20     0.350424 -0.000258044  2.55017e-06     -70.3124 
          20     0.376861 -0.000259387  3.01156e-06     -70.3124 
          20      0.40426 -0.000260918  3.51747e-06     -70.3124 
          20     0.432621 -0.000262534  4.06767e-06     -70.3124 
          20     0.461945 -0.000264125  4.66149e-06     -70.3124 
          20     0.492228 -0.000265607  5.29777e-06     -70.3124 
          20     0.523472 -0.000266947  5.97507e-06     -70.3124 
          20     0.555678 -0.000268153  6.69162e-06     -70.3124 
          20     0.588845  -0.00026922  7.44532e-06     -70.3124 
          20     0.622976 -0.000270006  8.23427e-06     -70.3123 
          20     0.658066 -0.000270676  9.05564e-06     -70.3123 
          20     0.694117 -0.000271179   9.9007e-06     -70.3123 
          20      0.73113 -0.000271568  1.07695e-05     -70.3123 
          20     0.769107 -0.000271907  1.16597e-05     -70.3123 
          20     0.808042 -0.000272261  1.25663e-05     -70.3123 
          20     0.847939 -0.000272698  1.34835e-05     -70.3123 
          20     0.888797 -0.000273284  1.44041e-05     -70.3123 
          20      0.93062 -0.000274076  1.53217e-05     -70.3123 
          20       0.9734 -0.000275121    1.623e-05     -70.3123 
          20      1.01714 -0.000276453  1.71247e-05     -70.3123 
          20      1.06185 -0.000278087  1.80029e-05     -70.3122 
          20      1.10751 -0.000280024  1.88636e-05     -70.3122 
          20      1.15414 -0.000282253  1.97062e-05     -70.3122 
          20      1.20173 -0.000284752  2.05289e-05     -70.3122 
          20      1.25028 -0.000287508  2.13252e-05     -70.3122 
          20      1.29979  -0.00029053   2.2079e-05     -70.3122 
          20      1.35026 -0.000293731  2.27948e-05     -70.3121 
          20       1.4017 -0.000296767   2.3514e-05     -70.3121 
          20      1.45409 -0.000299732  2.41879e-05     -70.3121 
          20      1.50745 -0.000302625  2.48083e-05     -70.3121 
          20      1.56176 -0.000305439  2.53707e-05     -70.3121 
          20      1.61705 -0.000308167  2.58732e-05      -70.312 
          20      1.67329 -0.000310797  2.63167e-05      -70.312 
          20      1.73049 -0.000313322  2.67034e-05      -70.312 
          20      1.78865 -0.000315733  2.70363e-05     -70.3119 
          20      1.84778 -0.000318031  2.73179e-05     -70.3119 
          20      1.90786 -0.000320219  2.75499e-05     -70.3119 
          20      1.96891 -0.000322313  2.77315e-05     -70.3118 
          20      2.03092 -0.000324336  2.78593e-05     -70.3118 
          20      2.09389 -0.000326325  2.79265e-05     -70.3118 
          20      2.15782 -0.000328326  2.79223e-05     -70.3117 
          20      2.22272 -0.000330397  2.78326e-05     -70.3117 
          20      2.28857 -0.000332606  2.76402e-05     -70.3117 
          20      2.35539 -0.000335024  2.73263e-05     -70.3116 
          20      2.42317 -0.000337723  2.68726e-05     -70.3116 
          20      2.49191 -0.000340769  2.62645e-05     -70.3115 
          20      2.56161 -0.000344208  2.54955e-05     -70.3115 
          20      2.63226 -0.000348053  2.45733e-05     -70.3114 
          20      2.70389 -0.000352269  2.35273e-05     -70.3114 
          20      2.77648 -0.000356726  2.24618e-05     -70.3113 
          20      2.85002 -0.000360675  2.15093e-05     -70.3112 
          20      2.92453  -0.00036418  2.09365e-05     -70.3112 
          20            3 -0.000366802   2.0538e-05     -70.3111 
          40            0 -4.01804e-19 -5.25509e-24     -68.6818 
          40      0.00048 -3.76515e-05 -5.45491e-10     -68.6818 
          40     0.001922 -0.000133794 -2.58745e-09     -68.6818 
          40     0.004326 -0.000246087 -7.35742e-09     -68.6818 
          40      0.00769 -0.000328489 -1.69523e-08     -68.6818 
          40     0.012017 -0.000355297 -3.43723e-08     -68.6818 
          40     0.017304 -0.000333916 -6.34224e-08     -68.6818 
          40     0.023553 -0.000298286  -1.0857e-07     -68.6818 
          40     0.030763 -0.000283717 -1.74615e-07     -68.6818 
          40     0.038936 -0.000297925 -2.66399e-07     -68.6818 
          40     0.048069 -0.000312627 -3.88468e-07     -68.6818 
          40     0.058163 -0.000295708 -5.45102e-07     -68.6818 
          40     0.069219  -0.00026924  -7.4037e-07     -68.6818 
          40     0.081236 -0.000292081 -9.77926e-07     -68.6818 
          40     0.094215 -0.000266162 -1.25996e-06     -68.6818 
          40     0.108155 -0.000264423 -1.58801e-06     -68.6818 
          40     0.123056 -0.000255891 -1.96258e-06     -68.6818 
          40     0.138918 -0.000246185 -2.38312e-06     -68.6818 
          40     0.155744 -0.000237639 -2.84817e-06     -68.6818 
          40     0.173529 -0.000229939 -3.35514e-06     -68.6818 
          40     0.192276 -0.000221739 -3.90084e-06     -68.6818 
          40     0.211984 -0.000212682 -4.48137e-06     -68.6818 
          40     0.232655 -0.000204389 -5.09251e-06     -68.6818 
          40     0.254285 -0.000197953 -5.72978e-06     -68.6818 
          40     0.276877  -0.00019003 -6.38904e-06     -68.6818 
          40     0.300431 -0.000183771 -7.06558e-06     -68.6818 
          40     0.324946 -0.000177881 -7.75582e-06     -68.6818 
          40     0.350424 -0.000172548 -8.45686e-06     -68.6817 
          40     0.376861  -0.00016787 -9.16607e-06     -68.6817 
          40      0.40426 -0.000163866  -9.8816e-06     -68.6817 
          40     0.432621 -0.000160506 -1.06023e-05     -68.6817 
          40     0.461945 -0.000157744 -1.13279e-05     -68.6817 
          40     0.492228 -0.000155552 -1.20588e-05     -68.6817 
          40     0.523472 -0.000153941 -1.27961e-05     -68.6817 
          40     0.555678 -0.000152956 -1.35413e-05     -68.6817 
          40     0.588845 -0.000152618 -1.42952e-05     -68.6817 
          40     0.622976 -0.000152805 -1.50577e-05     -68.6817 
          40     0.658066 -0.000153667 -1.58357e-05     -68.6817 
          40     0.694117 -0.000155134 -1.66257e-05     -68.6817 
          40      0.73113  -0.00015721  -1.7429e-05     -68.6817 
          40     0.769107 -0.000159883 -1.82456e-05     -68.6817 
          40     0.808042 -0.000163126 -1.90746e-05     -68.6817 
          40     0.847939 -0.000166894 -1.99139e-05     -68.6817 
          40     0.888797  -0.00017113  -2.0761e-05     -68.6817 
          40      0.93062 -0.000175767 -2.16125e-05     -68.6817 
          40       0.9734 -0.000180729 -2.24643e-05     -68.6817 
          40      1.01714 -0.000185938 -2.33124e-05     -68.6817 
          40      1.06185 -0.000191315 -2.41526e-05     -68.6817 
          40      1.10751 -0.000196787 -2.49805e-05     -68.6817 
          40      1.15414 -0.000202289 -2.57918e-05     -68.6816 
          40      1.20173 -0.000207766 -2.65816e-05     -68.6816 
          40      1.25028 -0.000213178 -2.73445e-05     -68.6816 
          40      1.29979 -0.000218497 -2.80735e-05     -68.6816 
          40      1.35026 -0.000223829 -2.87979e-05     -68.6816 
          40       1.4017 -0.000229872 -2.94761e-05     -68.6816 
          40      1.45409 -0.000236519 -3.00613e-05     -68.6816 
          40      1.50745  -0.00024354 -3.05918e-05     -68.6816 
          40      1.56176 -0.000250737 -3.10916e-05     -68.6815 
          40      1.61705 -0.000257945 -3.15713e-05     -68.6815 
          40      1.67329 -0.000265028 -3.20309e-05     -68.6815 
          40      1.73049 -0.000271881 -3.24625e-05     -68.6815 
          40      1.78865 -0.000278435 -3.28525e-05     -68.6815 
          40      1.84778 -0.000284646 -3.31858e-05     -68.6815 
          40      1.90786 -0.000290498  -3.3448e-05     -68.6814 
          40      1.96891 -0.000295998 -3.36289e-05     -68.6814 
          40      2.03092 -0.000301172 -3.37252e-05     -68.6814 
          40      2.09389  -0.00030606 -3.37419e-05     -68.6814 
          40      2.15782 -0.000310709 -3.36932e-05     -68.6813 
          40      2.22272 -0.000315167 -3.36021e-05     -68.6813 
          40      2.28857 -0.000319477 -3.34973e-05     -68.6813 
          40      2.35539  -0.00032367 -3.34083e-05     -68.6813 
          40      2.42317 -0.000327756 -3.33567e-05     -68.6812 
          40      2.49191 -0.000331718 -3.33443e-05     -68.6812 
          40      2.56161 -0.000335506 -3.33363e-05     -68.6812 
          40      2.63226 -0.000339035 -3.32384e-05     -68.6812 
          40      2.70389 -0.000342176 -3.28681e-05     -68.6811 
          40      2.77648 -0.000344438 -3.27155e-05     -68.6811 
          40      2.85002 -0.000346312  -3.3126e-05      -68.681 
          40      2.92453 -0.000348569 -3.30972e-05      -68.681 
          40            3  -0.00035099  -3.2972e-05      -68.681 
          60            0            0            0     -67.1242 
          60      0.00048 -3.65533e-05 -3.59172e-10     -67.1242 
          60     0.001922 -0.000130006 -1.86036e-09     -67.1242 
          60     0.004326 -0.000239539 -5.78343e-09     -67.1242 
          60      0.00769 -0.000320752 -1.42838e-08     -67.1242 
          60     0.012017 -0.000348846 -3.04138e-08     -67.1242 
          60     0.017304  -0.00033092 -5.80369e-08     -67.1242 
          60     0.023553 -0.000299643 -1.01728e-07     -67.1242 
          60     0.030763 -0.000288996  -1.6652e-07     -67.1242 
          60     0.038936 -0.000306361 -2.57688e-07     -67.1242 
          60     0.048069 -0.000324419 -3.80451e-07     -67.1242 
          60     0.058163 -0.000312157  -5.3995e-07     -67.1242 
          60     0.069219 -0.000290787 -7.41194e-07     -67.1242 
          60     0.081236 -0.000316983 -9.88823e-07     -67.1242 
          60     0.094215 -0.000296166 -1.28639e-06     -67.1242 
          60     0.108155 -0.000298594 -1.63674e-06     -67.1242 
          60     0.123056 -0.000294372 -2.04175e-06     -67.1242 
          60     0.138918 -0.000288886 -2.50221e-06     -67.1242 
          60     0.155744 -0.000284364 -3.01796e-06     -67.1242 
          60     0.173529 -0.000280486 -3.58755e-06     -67.1242 
          60     0.192276 -0.000275953 -4.20883e-06     -67.1242 
          60     0.211984 -0.000270422 -4.87874e-06     -67.1242 
          60     0.232655 -0.000265466 -5.59371e-06     -67.1242 
          60     0.254285 -0.000262149  -6.3496e-06     -67.1242 
          60     0.276877 -0.000257265  -7.1424e-06     -67.1242 
          60     0.300431 -0.000253869 -7.96761e-06     -67.1242 
          60     0.324946 -0.000250726 -8.82142e-06     -67.1242 
          60     0.350424 -0.000248032 -9.70043e-06     -67.1242 
          60     0.376861  -0.00024589 -1.06014e-05     -67.1242 
          60      0.40426 -0.000244324 -1.15216e-05     -67.1242 
          60     0.432621 -0.000243303 -1.24591e-05     -67.1242 
          60     0.461945 -0.000242775 -1.34124e-05     -67.1242 
          60     0.492228 -0.000242697 -1.43805e-05     -67.1242 
          60     0.523472 -0.000243057 -1.53631e-05     -67.1242 
          60     0.555678  -0.00024387 -1.63598e-05     -67.1242 
          60     0.588845 -0.000245122 -1.73698e-05     -67.1242 
          60     0.622976 -0.000246654 -1.83914e-05     -67.1242 
          60     0.658066 -0.000248564 -1.94261e-05     -67.1242 
          60     0.694117 -0.000250744 -2.04718e-05     -67.1242 
          60      0.73113 -0.000253152 -2.15257e-05     -67.1242 
          60     0.769107 -0.000255735 -2.25847e-05     -67.1242 
          60     0.808042 -0.000258433 -2.36451e-05     -67.1242 
          60     0.847939 -0.000261182 -2.47031e-05     -67.1242 
          60     0.888797 -0.000263918 -2.57543e-05     -67.1242 
          60      0.93062  -0.00026658 -2.67943e-05     -67.1242 
          60       0.9734 -0.000269112  -2.7818e-05     -67.1242 
          60      1.01714 -0.000271471 -2.88205e-05     -67.1241 
          60      1.06185 -0.000273625 -2.97966e-05     -67.1241 
          60      1.10751 -0.000275556 -3.07419e-05     -67.1241 
          60      1.15414 -0.000277259 -3.16523e-05     -67.1241 
          60      1.20173 -0.000278734 -3.25246e-05     -67.1241 
          60      1.25028 -0.000279985 -3.33575e-05     -67.1241 
          60      1.29979 -0.000280998 -3.41522e-05     -67.1241 