Variables = x, y, u, v, p

Zone, I=2080, F=POINT
         -50            0            0            0      33.0636 
         -50      0.00048 -6.35222e-06  2.23314e-09      33.0636 
         -50     0.001922 -2.20908e-05  8.00725e-09      33.0636 
         -50     0.004326 -3.90118e-05  1.49027e-08      33.0636 
         -50      0.00769 -4.86476e-05  1.99982e-08      33.0636 
         -50     0.012017 -4.72295e-05  2.10028e-08      33.0636 
         -50     0.017304 -3.80915e-05   1.6943e-08      33.0636 
         -50     0.023553   -2.971e-05  8.06161e-09      33.0636 
         -50     0.030763   -2.977e-05 -5.06866e-09      33.0636 
         -50     0.038936 -3.86843e-05 -2.26601e-08      33.0636 
         -50     0.048069 -4.81747e-05 -4.60863e-08      33.0636 
         -50     0.058163 -4.94349e-05 -7.68946e-08      33.0636 
         -50     0.069219 -4.73064e-05 -1.15274e-07      33.0636 
         -50     0.081236 -5.70299e-05 -1.62672e-07      33.0636 
         -50     0.094215 -5.65262e-05 -2.27366e-07      33.0636 
         -50     0.108155 -5.99648e-05 -3.01861e-07      33.0636 
         -50     0.123056 -6.27338e-05 -3.92571e-07      33.0636 
         -50     0.138918 -6.52542e-05 -5.00516e-07      33.0636 
         -50     0.155744 -6.77138e-05 -6.26931e-07      33.0636 
         -50     0.173529 -7.00991e-05 -7.73109e-07      33.0636 
         -50     0.192276 -7.23038e-05 -9.40356e-07      33.0636 
         -50     0.211984 -7.42726e-05  -1.1297e-06      33.0636 
         -50     0.232655 -7.60981e-05 -1.34183e-06      33.0636 
         -50     0.254285 -7.79068e-05 -1.57713e-06      33.0636 
         -50     0.276877  -7.9524e-05 -1.83596e-06      33.0636 
         -50     0.300431 -8.10736e-05 -2.11873e-06      33.0636 
         -50     0.324946 -8.25558e-05 -2.42517e-06      33.0636 
         -50     0.350424 -8.39814e-05 -2.75447e-06      33.0636 
         -50     0.376861 -8.53611e-05 -3.10573e-06      33.0636 
         -50      0.40426 -8.67051e-05  -3.4781e-06      33.0635 
         -50     0.432621 -8.80204e-05  -3.8705e-06      33.0635 
         -50     0.461945 -8.93096e-05  -4.2817e-06      33.0635 
         -50     0.492228 -9.05689e-05 -4.71015e-06      33.0635 
         -50     0.523472 -9.17888e-05 -5.15433e-06      33.0635 
         -50     0.555678 -9.29535e-05 -5.61296e-06      33.0635 
         -50     0.588845 -9.40438e-05 -6.08579e-06      33.0634 
         -50     0.622976 -9.50426e-05 -6.57453e-06      33.0634 
         -50     0.658066 -9.59287e-05 -7.06943e-06      33.0634 
         -50     0.694117 -9.66697e-05 -7.57033e-06      33.0634 
         -50      0.73113 -9.72423e-05 -8.07855e-06      33.0633 
         -50     0.769107 -9.76191e-05 -8.59305e-06      33.0633 
         -50     0.808042 -9.77705e-05 -9.11068e-06      33.0633 
         -50     0.847939 -9.76664e-05 -9.62697e-06      33.0632 
         -50     0.888797 -9.72783e-05 -1.01367e-05      33.0632 
         -50      0.93062 -9.65813e-05 -1.06345e-05      33.0632 
         -50       0.9734 -9.55564e-05 -1.11159e-05      33.0631 
         -50      1.01714 -9.41917e-05 -1.15774e-05      33.0631 
         -50      1.06185  -9.2484e-05 -1.20174e-05       33.063 
         -50      1.10751 -9.04379e-05 -1.24356e-05       33.063 
         -50      1.15414 -8.80642e-05 -1.28325e-05      33.0629 
         -50      1.20173 -8.53766e-05 -1.32075e-05      33.0628 
         -50      1.25028 -8.23836e-05 -1.35561e-05      33.0628 
         -50      1.29979 -7.90778e-05 -1.38657e-05      33.0627 
         -50      1.35026 -7.54956e-05 -1.41637e-05      33.0626 
         -50       1.4017   -7.185e-05 -1.44568e-05      33.0625 
         -50      1.45409 -6.81785e-05 -1.46893e-05      33.0625 
         -50      1.50745  -6.4542e-05 -1.48916e-05      33.0624 
         -50      1.56176 -6.09765e-05 -1.50808e-05      33.0623 
         -50      1.61705 -5.74949e-05  -1.5262e-05      33.0622 
         -50      1.67329 -5.40926e-05 -1.54303e-05      33.0621 
         -50      1.73049 -5.07496e-05 -1.55735e-05       33.062 
         -50      1.78865 -4.74372e-05 -1.56748e-05      33.0619 
         -50      1.84778 -4.41235e-05 -1.57163e-05      33.0617 
         -50      1.90786 -4.07801e-05 -1.56819e-05      33.0616 
         -50      1.96891 -3.73868e-05  -1.5561e-05      33.0615 
         -50      2.03092  -3.3939e-05 -1.53515e-05      33.0614 
         -50      2.09389 -3.04522e-05 -1.50632e-05      33.0612 
         -50      2.15782 -2.69674e-05 -1.47197e-05      33.0611 
         -50      2.22272 -2.35519e-05 -1.43598e-05      33.0609 
         -50      2.28857  -2.0301e-05 -1.40378e-05      33.0607 
         -50      2.35539 -1.73346e-05 -1.38218e-05      33.0606 
         -50      2.42317 -1.47901e-05 -1.37902e-05      33.0604 
         -50      2.49191  -1.2812e-05 -1.40247e-05      33.0602 
         -50      2.56161 -1.15325e-05 -1.46013e-05        33.06 
         -50      2.63226 -1.10471e-05  -1.5576e-05      33.0598 
         -50      2.70389 -1.13809e-05 -1.69665e-05      33.0596 
         -50      2.77648 -1.23072e-05 -1.87795e-05      33.0594 
         -50      2.85002  -1.3467e-05 -2.06554e-05      33.0592 
         -50      2.92453 -1.47231e-05  -2.2413e-05      33.0589 
         -50            3  -1.5802e-05 -2.40894e-05      33.0587 
         -25            0 -4.62883e-20  9.28964e-24      31.7258 
         -25      0.00048 -4.29304e-06  8.63947e-10      31.7258 
         -25     0.001922 -1.47516e-05  2.98276e-09      31.7258 
         -25     0.004326 -2.53959e-05  5.08737e-09      31.7258 
         -25      0.00769 -3.00615e-05  5.53405e-09      31.7258 
         -25     0.012017 -2.60172e-05  2.79469e-09      31.7258 
         -25     0.017304 -1.57289e-05 -4.20271e-09      31.7258 
         -25     0.023553 -5.42289e-06 -1.60441e-08      31.7258 
         -25     0.030763 -7.61281e-07 -3.30883e-08      31.7258 
         -25     0.038936 -2.10925e-06 -5.58303e-08      31.7258 
         -25     0.048069 -3.50383e-06 -8.49609e-08      31.7258 
         -25     0.058163  1.39561e-06 -1.20937e-07      31.7258 
         -25     0.069219  8.96261e-06 -1.63329e-07      31.7258 
         -25     0.081236  7.98146e-06 -2.11819e-07      31.7258 
         -25     0.094215  1.44784e-05 -2.68373e-07      31.7258 
         -25     0.108155  1.80151e-05 -3.28465e-07      31.7258 
         -25     0.123056  2.18818e-05 -3.92657e-07      31.7258 
         -25     0.138918  2.56973e-05 -4.59167e-07      31.7258 
         -25     0.155744  2.92643e-05 -5.26166e-07      31.7258 
         -25     0.173529  3.25443e-05 -5.91773e-07      31.7258 
         -25     0.192276   3.5584e-05 -6.54132e-07      31.7258 
         -25     0.211984  3.84065e-05 -7.11351e-07      31.7258 
         -25     0.232655  4.09414e-05 -7.61576e-07      31.7258 
         -25     0.254285  4.31054e-05  -8.0317e-07      31.7258 
         -25     0.276877  4.50488e-05 -8.35245e-07      31.7258 
         -25     0.300431  4.67086e-05 -8.55701e-07      31.7258 
         -25     0.324946  4.81187e-05 -8.64102e-07      31.7258 
         -25     0.350424  4.93067e-05 -8.60517e-07      31.7258 
         -25     0.376861  5.02978e-05 -8.44863e-07      31.7258 
         -25      0.40426  5.11138e-05 -8.17114e-07      31.7258 
         -25     0.432621  5.17709e-05 -7.77568e-07      31.7258 
         -25     0.461945  5.22795e-05 -7.27097e-07      31.7258 
         -25     0.492228  5.26432e-05 -6.67314e-07      31.7258 
         -25     0.523472   5.2859e-05 -6.00503e-07      31.7258 
         -25     0.555678  5.29171e-05 -5.29184e-07      31.7257 
         -25     0.588845  5.28012e-05 -4.55086e-07      31.7257 
         -25     0.622976  5.24872e-05 -3.77267e-07      31.7257 
         -25     0.658066   5.1946e-05 -3.01336e-07      31.7257 
         -25     0.694117  5.11679e-05 -2.32336e-07      31.7257 
         -25      0.73113  5.01272e-05 -1.70219e-07      31.7257 
         -25     0.769107  4.88108e-05 -1.15452e-07      31.7257 
         -25     0.808042  4.72181e-05 -6.88224e-08      31.7257 
         -25     0.847939  4.53594e-05 -3.11631e-08      31.7257 
         -25     0.888797   4.3255e-05 -3.11035e-09      31.7256 
         -25      0.93062  4.09321e-05  1.51509e-08      31.7256 
         -25       0.9734   3.8423e-05  2.40689e-08      31.7256 
         -25      1.01714  3.57605e-05  2.48105e-08      31.7256 
         -25      1.06185  3.29758e-05  1.91472e-08      31.7256 
         -25      1.10751   3.0094e-05  9.08275e-09      31.7255 
         -25      1.15414   2.7132e-05 -3.89493e-09      31.7255 
         -25      1.20173  2.40966e-05 -2.00569e-08      31.7255 
         -25      1.25028  2.09834e-05 -4.33357e-08      31.7255 
         -25      1.29979  1.77789e-05 -8.40462e-08      31.7254 
         -25      1.35026  1.44531e-05 -1.46111e-07      31.7254 
         -25       1.4017   1.0802e-05 -1.66232e-07      31.7254 
         -25      1.45409  6.86218e-06 -1.64926e-07      31.7254 
         -25      1.50745   2.7402e-06 -1.66251e-07      31.7253 
         -25      1.56176 -1.47986e-06 -1.86011e-07      31.7253 
         -25      1.61705 -5.73472e-06 -2.32391e-07      31.7252 
         -25      1.67329 -9.97726e-06 -3.06814e-07      31.7252 
         -25      1.73049 -1.41749e-05  -4.0506e-07      31.7252 
         -25      1.78865  -1.8304e-05 -5.18561e-07      31.7251 
         -25      1.84778 -2.23459e-05 -6.35844e-07      31.7251 
         -25      1.90786 -2.62804e-05 -7.44025e-07       31.725 
         -25      1.96891 -3.00841e-05   -8.304e-07       31.725 
         -25      2.03092 -3.37242e-05 -8.83837e-07      31.7249 
         -25      2.09389 -3.71563e-05 -8.96014e-07      31.7249 
         -25      2.15782 -4.03219e-05 -8.62279e-07      31.7248 
         -25      2.22272 -4.31508e-05 -7.81999e-07      31.7247 
         -25      2.28857 -4.55629e-05 -6.58173e-07      31.7247 
         -25      2.35539 -4.74762e-05 -4.96093e-07      31.7246 
         -25      2.42317 -4.88184e-05 -3.00784e-07      31.7245 
         -25      2.49191 -4.95435e-05 -7.30138e-08      31.7245 
         -25      2.56161 -4.96576e-05  1.96718e-07      31.7244 
         -25      2.63226 -4.92505e-05  5.36262e-07      31.7243 
         -25      2.70389 -4.85383e-05  1.00269e-06      31.7242 
         -25      2.77648   -4.786e-05  1.70696e-06      31.7241 
         -25      2.85002 -4.73505e-05  1.61528e-06      31.7241 
         -25      2.92453 -4.67569e-05  1.66592e-06       31.724 
         -25            3 -4.61839e-05   1.8521e-06      31.7239 
           0            0 -3.80597e-20  4.47358e-24      30.6752 
           0      0.00048 -3.52626e-06   4.1522e-10      30.6752 
           0     0.001922 -1.20747e-05  1.42368e-09      30.6752 
           0     0.004326 -2.06318e-05   2.3901e-09      30.6752 
           0      0.00769 -2.40333e-05  2.49612e-09      30.6752 
           0     0.012017 -2.00006e-05   9.9512e-10      30.6752 
           0     0.017304 -1.06231e-05 -2.59885e-09      30.6752 
           0     0.023553 -1.14958e-06   -8.469e-09      30.6752 
           0     0.030763  3.64108e-06 -1.65908e-08      30.6752 
           0     0.038936  3.41536e-06 -2.68793e-08      30.6752 
           0     0.048069  3.15063e-06 -3.91946e-08      30.6752 
           0     0.058163  8.14205e-06  -5.3119e-08      30.6752 
           0     0.069219  1.53193e-05 -6.76377e-08      30.6752 
           0     0.081236   1.5246e-05 -8.16245e-08      30.6752 
           0     0.094215  2.13598e-05 -9.49102e-08      30.6752 
           0     0.108155  2.48798e-05 -1.04077e-07      30.6752 
           0     0.123056  2.85626e-05 -1.08099e-07      30.6752 
           0     0.138918  3.20839e-05 -1.04801e-07      30.6752 
           0     0.155744  3.52791e-05 -9.20048e-08      30.6752 
           0     0.173529  3.81229e-05 -6.76239e-08      30.6752 
           0     0.192276  4.06658e-05 -2.97181e-08      30.6752 
           0     0.211984  4.29422e-05  2.34471e-08      30.6752 
           0     0.232655  4.49101e-05   9.3359e-08      30.6752 
           0     0.254285  4.65186e-05  1.81129e-07      30.6752 
           0     0.276877  4.79137e-05  2.87388e-07      30.6752 
           0     0.300431  4.90603e-05  4.12656e-07      30.6752 
           0     0.324946  5.00039e-05  5.56782e-07      30.6752 
           0     0.350424  5.07816e-05  7.19244e-07      30.6752 
           0     0.376861  5.14258e-05  8.99209e-07      30.6752 
           0      0.40426  5.19627e-05   1.0956e-06      30.6752 
           0     0.432621  5.24114e-05  1.30703e-06      30.6752 
           0     0.461945  5.27832e-05  1.53185e-06      30.6752 
           0     0.492228   5.3082e-05  1.76811e-06      30.6752 
           0     0.523472  5.33053e-05  2.01373e-06      30.6752 
           0     0.555678  5.34443e-05  2.26654e-06      30.6752 
           0     0.588845   5.3485e-05  2.52447e-06      30.6752 
           0     0.622976  5.34067e-05  2.78607e-06      30.6752 
           0     0.658066  5.31921e-05  3.04914e-06      30.6752 
           0     0.694117  5.28207e-05  3.30824e-06      30.6752 
           0      0.73113   5.2275e-05  3.56409e-06      30.6752 
           0     0.769107  5.15423e-05  3.81639e-06      30.6752 
           0     0.808042  5.06165e-05  4.06402e-06      30.6751 
           0     0.847939  4.94975e-05  4.30543e-06      30.6751 
           0     0.888797  4.81921e-05  4.53892e-06      30.6751 
           0      0.93062  4.67132e-05  4.76302e-06      30.6751 
           0       0.9734  4.50801e-05  4.97674e-06      30.6751 
           0      1.01714  4.33158e-05  5.17994e-06      30.6751 
           0      1.06185   4.1446e-05  5.37327e-06      30.6751 
           0      1.10751  3.94953e-05  5.55806e-06      30.6751 
           0      1.15414  3.74838e-05  5.73568e-06      30.6751 
           0      1.20173  3.54212e-05  5.90642e-06      30.6751 
           0      1.25028  3.32999e-05  6.06776e-06      30.6751 
           0      1.29979   3.1086e-05  6.21158e-06       30.675 
           0      1.35026  2.88759e-05  6.35355e-06       30.675 
           0       1.4017  2.66019e-05  6.50104e-06       30.675 
           0      1.45409  2.40519e-05  6.61316e-06       30.675 
           0      1.50745  2.13405e-05  6.70121e-06       30.675 
           0      1.56176  1.85628e-05  6.77353e-06       30.675 
           0      1.61705  1.57934e-05  6.83544e-06      30.6749 
           0      1.67329  1.30856e-05  6.88941e-06      30.6749 
           0      1.73049  1.04701e-05  6.93519e-06      30.6749 
           0      1.78865  7.95628e-06  6.97018e-06      30.6749 
           0      1.84778  5.53261e-06  6.98979e-06      30.6749 
           0      1.90786  3.16962e-06  6.98795e-06      30.6748 
           0      1.96891  8.21584e-07   6.9578e-06      30.6748 
           0      2.03092  -1.5685e-06  6.89232e-06      30.6748 
           0      2.09389 -4.06418e-06  6.78522e-06      30.6748 
           0      2.15782 -6.72798e-06  6.63186e-06      30.6747 
           0      2.22272 -9.61487e-06  6.43018e-06      30.6747 
           0      2.28857 -1.27614e-05   6.1818e-06      30.6747 
           0      2.35539 -1.61753e-05  5.89311e-06      30.6746 
           0      2.42317 -1.98221e-05  5.57632e-06      30.6746 
           0      2.49191 -2.36092e-05   5.2507e-06      30.6746 
           0      2.56161 -2.73706e-05  4.94346e-06      30.6745 
           0      2.63226 -3.08464e-05  4.69081e-06      30.6745 
           0      2.70389 -3.36617e-05  4.53875e-06      30.6745 
           0      2.77648 -3.55217e-05  4.43791e-06      30.6744 
           0      2.85002 -3.70574e-05  4.24639e-06      30.6744 
           0      2.92453 -3.82162e-05  4.11665e-06      30.6743 
           0            3 -3.89921e-05  4.03779e-06      30.6743 
          20            0 -3.43742e-20  2.67762e-24      29.9354 
          20      0.00048 -3.18225e-06   2.5242e-10      29.9354 
          20     0.001922  -1.0867e-05  9.15056e-10      29.9354 
          20     0.004326 -1.84587e-05   1.7535e-09      29.9354 
          20      0.00769 -2.12293e-05  2.53223e-09      29.9354 
          20     0.012017 -1.71065e-05  3.18421e-09      29.9354 
          20     0.017304 -8.03486e-06  3.93937e-09      29.9354 
          20     0.023553   1.1361e-06  5.37094e-09      29.9354 
          20     0.030763  5.98683e-06  8.34806e-09      29.9354 
          20     0.038936    6.181e-06  1.39579e-08      29.9354 
          20     0.048069  6.26167e-06  2.34853e-08      29.9354 
          20     0.058163  1.10666e-05   3.8539e-08      29.9354 
          20     0.069219  1.77536e-05  6.12069e-08      29.9354 
          20     0.081236  1.76393e-05  9.37146e-08      29.9354 
          20     0.094215  2.30594e-05  1.37742e-07      29.9354 
          20     0.108155  2.59421e-05  1.96849e-07      29.9354 
          20     0.123056  2.88266e-05  2.73076e-07      29.9354 
          20     0.138918  3.14265e-05  3.68979e-07      29.9354 
          20     0.155744  3.36085e-05  4.86907e-07      29.9354 
          20     0.173529  3.53735e-05  6.28841e-07      29.9354 
          20     0.192276  3.67963e-05  7.96448e-07      29.9354 
          20     0.211984   3.7939e-05  9.90963e-07      29.9354 
          20     0.232655  3.87947e-05  1.21322e-06      29.9354 
          20     0.254285  3.93477e-05  1.46349e-06      29.9354 
          20     0.276877  3.97622e-05  1.74153e-06      29.9354 
          20     0.300431  4.00325e-05  2.04713e-06      29.9353 
          20     0.324946  4.02235e-05  2.37926e-06      29.9353 
          20     0.350424  4.03888e-05  2.73657e-06      29.9353 
          20     0.376861  4.05735e-05  3.11747e-06      29.9353 
          20      0.40426  4.08131e-05   3.5203e-06      29.9353 
          20     0.432621  4.11321e-05  3.94314e-06      29.9353 
          20     0.461945  4.15431e-05  4.38385e-06      29.9353 
          20     0.492228  4.20479e-05  4.83994e-06      29.9353 
          20     0.523472  4.26373e-05   5.3088e-06      29.9353 
          20     0.555678  4.32924e-05  5.78766e-06      29.9353 
          20     0.588845  4.39843e-05  6.27383e-06      29.9353 
          20     0.622976  4.46719e-05  6.76523e-06      29.9353 
          20     0.658066  4.53153e-05  7.25752e-06      29.9353 
          20     0.694117  4.58718e-05  7.74585e-06      29.9353 
          20      0.73113  4.62879e-05   8.2284e-06      29.9353 
          20     0.769107  4.65193e-05  8.70293e-06      29.9353 
          20     0.808042  4.65321e-05   9.1668e-06      29.9353 
          20     0.847939  4.63046e-05  9.61749e-06      29.9353 
          20     0.888797  4.58271e-05  1.00526e-05      29.9353 
          20      0.93062  4.51022e-05  1.04703e-05      29.9353 
          20       0.9734  4.41444e-05  1.08691e-05      29.9353 
          20      1.01714  4.29772e-05  1.12488e-05      29.9353 
          20      1.06185  4.16313e-05  1.16097e-05      29.9353 
          20      1.10751  4.01397e-05  1.19528e-05      29.9353 
          20      1.15414  3.85318e-05  1.22794e-05      29.9353 
          20      1.20173  3.68271e-05  1.25903e-05      29.9353 
          20      1.25028  3.50243e-05  1.28844e-05      29.9353 
          20      1.29979  3.30905e-05  1.31569e-05      29.9352 
          20      1.35026  3.10246e-05  1.34192e-05      29.9352 
          20       1.4017  2.89654e-05  1.36767e-05      29.9352 
          20      1.45409  2.68389e-05   1.3898e-05      29.9352 
          20      1.50745  2.46314e-05  1.40863e-05      29.9352 
          20      1.56176  2.23413e-05  1.42442e-05      29.9352 
          20      1.61705   1.9978e-05  1.43732e-05      29.9352 
          20      1.67329  1.75614e-05  1.44747e-05      29.9352 
          20      1.73049  1.51189e-05  1.45493e-05      29.9352 
          20      1.78865  1.26843e-05  1.45979e-05      29.9352 
          20      1.84778  1.02954e-05  1.46213e-05      29.9351 
          20      1.90786  7.99192e-06  1.46207e-05      29.9351 
          20      1.96891  5.81233e-06  1.45978e-05      29.9351 
          20      2.03092  3.79173e-06  1.45548e-05      29.9351 
          20      2.09389  1.95934e-06  1.44947e-05      29.9351 
          20      2.15782  3.37071e-07   1.4421e-05      29.9351 
          20      2.22272 -1.06303e-06  1.43374e-05       29.935 
          20      2.28857 -2.23864e-06  1.42477e-05       29.935 
          20      2.35539  -3.1973e-06  1.41543e-05       29.935 
          20      2.42317 -3.95466e-06   1.4058e-05       29.935 
          20      2.49191 -4.53096e-06  1.39562e-05       29.935 
          20      2.56161 -4.94594e-06  1.38409e-05      29.9349 
          20      2.63226 -5.21055e-06  1.36964e-05      29.9349 
          20      2.70389 -5.31583e-06  1.34963e-05      29.9349 
          20      2.77648 -5.32434e-06  1.32939e-05      29.9349 
          20      2.85002 -5.26794e-06  1.32755e-05      29.9348 
          20      2.92453 -4.98232e-06  1.33604e-05      29.9348 
          20            3 -4.75307e-06  1.33933e-05      29.9348 
          40            0 -3.31222e-20  1.65908e-24      29.2459 
          40      0.00048 -3.06939e-06  1.65091e-10      29.2459 
          40     0.001922 -1.05174e-05  7.05882e-10      29.2459 
          40     0.004326 -1.79996e-05  1.78677e-09      29.2459 
          40      0.00769 -2.10481e-05  3.76673e-09      29.2459 
          40     0.012017 -1.77094e-05  7.29198e-09      29.2459 
          40     0.017304 -9.82992e-06   1.3348e-08      29.2459 
          40     0.023553  -2.0041e-06  2.32672e-08      29.2459 
          40     0.030763  1.58279e-06  3.86577e-08      29.2459 
          40     0.038936  6.11481e-07   6.1324e-08      29.2459 
          40     0.048069 -6.16279e-07  9.31917e-08      29.2459 
          40     0.058163  2.48359e-06  1.36359e-07      29.2459 
          40     0.069219  7.23305e-06  1.93139e-07      29.2459 
          40     0.081236  5.43341e-06  2.65796e-07      29.2459 
          40     0.094215  8.77815e-06  3.56101e-07      29.2459 
          40     0.108155  9.65119e-06   4.6679e-07      29.2459 
          40     0.123056  1.04822e-05  5.99456e-07      29.2459 
          40     0.138918  1.10249e-05  7.55804e-07      29.2458 
          40     0.155744  1.11773e-05  9.37233e-07      29.2458 
          40     0.173529  1.09627e-05  1.14469e-06      29.2458 
          40     0.192276    1.047e-05  1.37884e-06      29.2458 
          40     0.211984  9.77309e-06  1.63994e-06      29.2458 
          40     0.232655  8.87553e-06  1.92801e-06      29.2458 
          40     0.254285  7.76983e-06  2.24263e-06      29.2458 
          40     0.276877  6.61483e-06  2.58318e-06      29.2458 
          40     0.300431  5.40678e-06  2.94911e-06      29.2458 
          40     0.324946   4.2076e-06  3.33949e-06      29.2458 
          40     0.350424  3.06814e-06  3.75335e-06      29.2458 
          40     0.376861  2.03372e-06  4.18966e-06      29.2458 
          40      0.40426  1.14241e-06  4.64755e-06      29.2458 
          40     0.432621   4.2499e-07  5.12611e-06      29.2458 
          40     0.461945 -9.52843e-08  5.62437e-06      29.2458 
          40     0.492228 -4.02282e-07  6.14114e-06      29.2458 
          40     0.523472 -4.86926e-07   6.6752e-06      29.2458 
          40     0.555678 -3.47381e-07  7.22516e-06      29.2458 
          40     0.588845  9.08935e-09  7.78964e-06      29.2458 
          40     0.622976  5.61465e-07  8.36757e-06      29.2458 
          40     0.658066  1.28269e-06    8.954e-06      29.2458 
          40     0.694117  2.14448e-06  9.54747e-06      29.2458 
          40      0.73113  3.09602e-06  1.01455e-05      29.2458 
          40     0.769107  4.08551e-06  1.07449e-05      29.2458 
          40     0.808042  5.06211e-06  1.13423e-05      29.2458 
          40     0.847939  5.97881e-06   1.1934e-05      29.2458 
          40     0.888797  6.79433e-06  1.25165e-05      29.2458 
          40      0.93062  7.47557e-06  1.30864e-05      29.2458 
          40       0.9734  7.99907e-06   1.3641e-05      29.2458 
          40      1.01714  8.35263e-06  1.41782e-05      29.2458 
          40      1.06185  8.53499e-06  1.46967e-05      29.2458 
          40      1.10751  8.55473e-06  1.51961e-05      29.2458 
          40      1.15414  8.42688e-06  1.56765e-05      29.2458 
          40      1.20173   8.1672e-06  1.61381e-05      29.2458 
          40      1.25028  7.78302e-06  1.65805e-05      29.2458 
          40      1.29979  7.26014e-06  1.70012e-05      29.2458 
          40      1.35026  6.67185e-06   1.7385e-05      29.2458 
          40       1.4017  6.23727e-06  1.77551e-05      29.2458 
          40      1.45409  5.84141e-06  1.81212e-05      29.2458 
          40      1.50745   5.4856e-06  1.84633e-05      29.2458 
          40      1.56176  5.16945e-06  1.87685e-05      29.2458 
          40      1.61705  4.89006e-06  1.90295e-05      29.2457 
          40      1.67329  4.64143e-06  1.92439e-05      29.2457 
          40      1.73049  4.41364e-06  1.94132e-05      29.2457 
          40      1.78865  4.19244e-06  1.95414e-05      29.2457 
          40      1.84778  3.95885e-06  1.96332e-05      29.2457 
          40      1.90786  3.68909e-06  1.96936e-05      29.2457 
          40      1.96891  3.35466e-06  1.97257e-05      29.2457 
          40      2.03092  2.92314e-06  1.97304e-05      29.2457 
          40      2.09389  2.35924e-06  1.97052e-05      29.2457 
          40      2.15782  1.62688e-06  1.96443e-05      29.2457 
          40      2.22272  6.91589e-07  1.95389e-05      29.2457 
          40      2.28857 -4.75555e-07  1.93792e-05      29.2456 
          40      2.35539 -1.89323e-06  1.91564e-05      29.2456 
          40      2.42317 -3.56364e-06  1.88671e-05      29.2456 
          40      2.49191 -5.46409e-06  1.85194e-05      29.2456 
          40      2.56161 -7.53802e-06  1.81405e-05      29.2456 
          40      2.63226 -9.68246e-06  1.77879e-05      29.2456 
          40      2.70389 -1.17339e-05  1.75628e-05      29.2456 
          40      2.77648 -1.35333e-05  1.72758e-05      29.2456 
          40      2.85002 -1.52119e-05  1.67522e-05      29.2455 
          40      2.92453 -1.67123e-05  1.64052e-05      29.2455 
          40            3 -1.80162e-05  1.60744e-05      29.2455 
          60            0            0            0      28.5874 
          60      0.00048 -3.19173e-06  1.09333e-10      28.5874 
          60     0.001922 -1.10666e-05  5.24585e-10      28.5874 
          60     0.004326 -1.94235e-05  1.51862e-09      28.5874 
          60      0.00769 -2.39334e-05   3.5777e-09      28.5874 
          60     0.012017 -2.26866e-05  7.43052e-09      28.5874 
          60     0.017304 -1.74275e-05   1.4037e-08      28.5874 
          60     0.023553 -1.25446e-05  2.45488e-08      28.5874 
          60     0.030763 -1.20228e-05  4.02084e-08      28.5874 
          60     0.038936 -1.61125e-05  6.22508e-08      28.5874 
          60     0.048069 -2.05994e-05  9.18005e-08      28.5874 
          60     0.058163  -2.0994e-05  1.29872e-07      28.5874 
          60     0.069219 -1.98079e-05  1.77365e-07      28.5874 
          60     0.081236 -2.48756e-05   2.3488e-07      28.5874 
          60     0.094215 -2.48505e-05  3.02443e-07      28.5874 
          60     0.108155 -2.70157e-05  3.80458e-07      28.5874 
          60     0.123056 -2.89716e-05  4.68385e-07      28.5874 
          60     0.138918 -3.09109e-05  5.65605e-07      28.5874 
          60     0.155744 -3.28989e-05  6.71217e-07      28.5874 
          60     0.173529 -3.48918e-05  7.84012e-07      28.5874 
          60     0.192276 -3.67968e-05  9.02632e-07      28.5874 
          60     0.211984 -3.85484e-05  1.02558e-06      28.5874 
          60     0.232655 -4.01617e-05  1.15133e-06      28.5874 
          60     0.254285 -4.16729e-05  1.27838e-06      28.5874 
          60     0.276877  -4.2967e-05  1.40535e-06      28.5874 
          60     0.300431 -4.40926e-05    1.531e-06      28.5874 
          60     0.324946 -4.50391e-05  1.65435e-06      28.5874 
          60     0.350424 -4.58084e-05  1.77468e-06      28.5874 
          60     0.376861 -4.64068e-05  1.89149e-06      28.5874 
          60      0.40426 -4.68445e-05   2.0046e-06      28.5874 
          60     0.432621 -4.71331e-05  2.11406e-06      28.5874 
          60     0.461945 -4.72843e-05  2.22018e-06      28.5874 
          60     0.492228 -4.73078e-05  2.32344e-06      28.5874 
          60     0.523472 -4.72097e-05  2.42447e-06      28.5874 
          60     0.555678 -4.69927e-05  2.52392e-06      28.5874 
          60     0.588845 -4.66574e-05  2.62236e-06      28.5874 
          60     0.622976 -4.62066e-05  2.72018e-06      28.5874 
          60     0.658066  -4.5638e-05  2.81792e-06      28.5874 
          60     0.694117 -4.49528e-05  2.91644e-06      28.5874 
          60      0.73113 -4.41544e-05   3.0149e-06      28.5874 
          60     0.769107 -4.32497e-05  3.11253e-06      28.5874 
          60     0.808042 -4.22493e-05  3.20853e-06      28.5874 
          60     0.847939 -4.11662e-05  3.30208e-06      28.5874 
          60     0.888797 -4.00148e-05  3.39232e-06      28.5874 
          60      0.93062 -3.88101e-05  3.47835e-06      28.5874 
          60       0.9734 -3.75667e-05  3.55915e-06      28.5874 
          60      1.01714  -3.6297e-05  3.63369e-06      28.5874 
          60      1.06185 -3.50109e-05  3.70093e-06      28.5874 
          60      1.10751 -3.37152e-05  3.75995e-06      28.5874 
          60      1.15414 -3.24135e-05  3.81011e-06      28.5874 
          60      1.20173 -3.11074e-05  3.85129e-06      28.5874 
          60      1.25028 -2.97983e-05  3.88428e-06      28.5874 
          60      1.29979 -2.84913e-05   3.9113e-06      28.5874 