Variables = x, y, u, v, p

Zone, I=416, F=POINT
         -50            0            0            0      20.0098 
         -50     0.013333  0.000336807  7.35344e-08      20.0098 
         -50     0.053333  0.000318393  4.23933e-07      20.0098 
         -50         0.12  0.000309215  1.30077e-06      20.0098 
         -50     0.213332  0.000305399  2.86309e-06      20.0098 
         -50     0.333332  0.000305425  5.00589e-06      20.0098 
         -50         0.48  0.000310096  7.49413e-06      20.0098 
         -50     0.653331  0.000316939  1.01514e-05      20.0097 
         -50     0.853332  0.000322389  1.28258e-05      20.0096 
         -50         1.08  0.000325274  1.53908e-05      20.0095 
         -50      1.33333  0.000326395  1.77086e-05      20.0093 
         -50      1.61333  0.000327296  1.98854e-05       20.009 
         -50         1.92  0.000331648  2.17351e-05      20.0086 
         -50      2.25333  0.000331837  2.31991e-05      20.0082 
         -50      2.61333  0.000329326  2.43217e-05      20.0076 
         -50            3  0.000321618  2.05514e-05      20.0069 
         -25            0  2.64332e-19  7.97212e-24      19.1998 
         -25     0.013333  0.000241916  1.80285e-08      19.1998 
         -25     0.053333  0.000222686  5.98918e-09      19.1998 
         -25         0.12  0.000215081 -1.93308e-07      19.1998 
         -25     0.213332  0.000216484 -6.71651e-07      19.1998 
         -25     0.333332  0.000220061  -1.3975e-06      19.1998 
         -25         0.48  0.000222923 -2.31227e-06      19.1998 
         -25     0.653331  0.000224007 -3.39213e-06      19.1998 
         -25     0.853332  0.000223771 -4.52065e-06      19.1997 
         -25         1.08  0.000224386 -5.37887e-06      19.1997 
         -25      1.33333  0.000225406 -5.80257e-06      19.1996 
         -25      1.61333   0.00022578 -5.62261e-06      19.1995 
         -25         1.92  0.000227171 -5.06522e-06      19.1993 
         -25      2.25333  0.000231535 -3.62484e-06      19.1992 
         -25      2.61333  0.000235649 -3.34951e-06      19.1989 
         -25            3   0.00022772 -8.80941e-06      19.1987 
           0            0  2.21572e-19  3.83123e-24      18.5631 
           0     0.013333  0.000202215  2.54059e-08      18.5631 
           0     0.053333  0.000180248  2.43342e-07      18.5631 
           0         0.12  0.000158628  9.08421e-07      18.5631 
           0     0.213332  0.000140479  2.06421e-06      18.5631 
           0     0.333332  0.000129618  3.45543e-06      18.5631 
           0         0.48  0.000127193  4.82574e-06      18.5631 
           0     0.653331  0.000131134  6.13357e-06      18.5631 
           0     0.853332  0.000139232  7.40451e-06      18.5631 
           0         1.08  0.000149103  8.55659e-06      18.5631 
           0      1.33333  0.000159071   9.4868e-06       18.563 
           0      1.61333  0.000169815  1.00857e-05       18.563 
           0         1.92  0.000177701   1.0248e-05      18.5629 
           0      2.25333    0.0001845  1.06447e-05      18.5628 
           0      2.61333  0.000199489  1.22261e-05      18.5627 
           0            3  0.000214786  1.48545e-05      18.5626 
          20            0  2.02018e-19  2.28816e-24      18.1144 
          20     0.013333  0.000182159  2.04407e-08      18.1144 
          20     0.053333  0.000153817   2.0438e-07      18.1144 
          20         0.12  0.000126282  6.91881e-07      18.1144 
          20     0.213332  0.000106261   1.3335e-06      18.1144 
          20     0.333332  9.54956e-05  1.81871e-06      18.1144 
          20         0.48  9.12999e-05  2.06236e-06      18.1144 
          20     0.653331  9.23353e-05   2.3235e-06      18.1144 
          20     0.853332  0.000101076  2.96112e-06      18.1144 
          20         1.08  0.000115318  3.96377e-06      18.1144 
          20      1.33333  0.000128686  5.00891e-06      18.1144 
          20      1.61333  0.000143952  5.87815e-06      18.1143 
          20         1.92  0.000160362  6.71979e-06      18.1143 
          20      2.25333  0.000175528  7.47576e-06      18.1143 
          20      2.61333  0.000191842   8.6893e-06      18.1142 
          20            3  0.000201802   9.1795e-06      18.1141 
          40            0  1.90927e-19  1.41575e-24      17.6961 
          40     0.013333  0.000172273  4.95935e-09      17.6961 
          40     0.053333  0.000147919   1.2562e-08      17.6961 
          40         0.12  0.000129362  -6.9829e-08      17.6961 
          40     0.213332  0.000120423 -4.44985e-07      17.6961 
          40     0.333332  0.000118031 -1.27816e-06      17.6961 
          40         0.48  0.000117233 -2.58483e-06      17.6961 
          40     0.653331  0.000115073 -4.23085e-06      17.6961 
          40     0.853332  0.000113989 -5.90972e-06      17.6961 
          40         1.08  0.000118026 -7.26162e-06       17.696 
          40      1.33333  0.000125661 -8.25034e-06       17.696 
          40      1.61333   0.00013461  -8.8368e-06       17.696 
          40         1.92  0.000143248 -8.98203e-06       17.696 
          40      2.25333  0.000151435 -8.51354e-06       17.696 
          40      2.61333  0.000160732 -7.47775e-06      17.6959 
          40            3  0.000167859  -5.5965e-06      17.6959 
          60            0            0            0      17.2964 
          60     0.013333  0.000172644  4.94686e-10      17.2964 
          60     0.053333  0.000166172 -1.85908e-08      17.2964 
          60         0.12  0.000167464  -8.0404e-08      17.2964 
          60     0.213332  0.000170932 -1.33706e-07      17.2964 
          60     0.333332  0.000171116 -5.66819e-08      17.2964 
          60         0.48  0.000168226  2.40866e-07      17.2964 
          60     0.653331  0.000164411  7.50375e-07      17.2964 
          60     0.853332  0.000160644  1.41292e-06      17.2964 
          60         1.08  0.000157028  2.19658e-06      17.2964 
          60      1.33333   0.00015314  3.05596e-06      17.2964 
          60      1.61333  0.000148958  3.87268e-06      17.2964 
          60         1.92  0.000144638  4.54313e-06      17.2963 
          60      2.25333  0.000142775  5.17306e-06      17.2963 
          60      2.61333  0.000147171  5.66801e-06      17.2963 
          60            3  0.000149136  4.46187e-06      17.2963 
          80            0            0            0      16.9085 
          80     0.013333   0.00016656 -1.07649e-08      16.9085 
          80     0.053333  0.000158434 -1.82477e-07      16.9085 
          80         0.12  0.000165662 -8.43162e-07      16.9085 
          80     0.213332    0.0001847 -2.23981e-06      16.9085 
          80     0.333332  0.000203465 -4.29144e-06      16.9085 
          80         0.48  0.000214128 -6.67026e-06      16.9085 
          80     0.653331  0.000216001  -9.1023e-06      16.9085 
          80     0.853332  0.000210853 -1.14955e-05      16.9085 
          80         1.08  0.000200374 -1.37873e-05      16.9085 
          80      1.33333  0.000187637 -1.58095e-05      16.9085 
          80      1.61333  0.000171355 -1.72573e-05      16.9085 
          80         1.92  0.000155606 -1.79401e-05      16.9085 
          80      2.25333  0.000142906 -1.78908e-05      16.9085 
          80      2.61333  0.000130884 -1.71859e-05      16.9084 
          80            3  0.000122509 -1.67295e-05      16.9084 
         100            0  1.72656e-19  3.71218e-25      16.5281 
         100     0.013333  0.000148962 -5.97703e-09      16.5281 
         100     0.053333  0.000102276  -1.3575e-07      16.5281 
         100         0.12  6.50373e-05 -8.31472e-07      16.5281 
         100     0.213332  5.46732e-05 -2.81886e-06      16.5281 
         100     0.333332  6.69445e-05 -6.62036e-06      16.5281 
         100         0.48  8.48754e-05 -1.21855e-05      16.5281 
         100     0.653331  9.54039e-05 -1.90468e-05      16.5281 
         100     0.853332  9.84034e-05 -2.65341e-05      16.5281 
         100         1.08  0.000102026 -3.38678e-05      16.5281 
         100      1.33333  0.000111447  -4.0447e-05      16.5281 
         100      1.61333  0.000121795  -4.5786e-05      16.5281 
         100         1.92   0.00013271 -4.91143e-05      16.5281 
         100      2.25333   0.00014232 -5.03397e-05      16.5281 
         100      2.61333  0.000148092 -4.94434e-05      16.5281 
         100            3  0.000150498 -4.67779e-05      16.5281 
         150            0           -0           -0      15.5951 
         150     0.013333  0.000162065 -5.53638e-08      15.5951 
         150     0.053333  0.000168747 -8.20595e-07      15.5951 
         150         0.12   0.00021756 -3.58798e-06      15.5951 
         150     0.213332  0.000296397 -9.13286e-06      15.5951 
         150     0.333332  0.000366944 -1.69506e-05      15.5951 
         150         0.48  0.000404444 -2.58929e-05      15.5951 
         150     0.653331  0.000408046 -3.53006e-05      15.5951 
         150     0.853332  0.000384584 -4.51228e-05      15.5951 
         150         1.08  0.000344589 -5.50512e-05      15.5951 
         150      1.33333  0.000304036 -6.41187e-05      15.5951 
         150      1.61333  0.000254461 -7.12545e-05      15.5951 
         150         1.92  0.000202844 -7.56977e-05       15.595 
         150      2.25333  0.000158947 -7.70613e-05       15.595 
         150      2.61333  0.000118597 -7.51798e-05       15.595 
         150            3  9.81552e-05 -7.07749e-05       15.595 
         200            0           -0           -0      14.6731 
         200     0.013333  0.000154458  -4.4005e-08      14.6731 
         200     0.053333   0.00014084 -6.48367e-07      14.6731 
         200         0.12  0.000157143 -2.83775e-06      14.6731 
         200     0.213332  0.000202052 -7.31452e-06      14.6731 
         200     0.333332  0.000251896 -1.39527e-05      14.6731 
         200         0.48  0.000286976 -2.21916e-05      14.6731 
         200     0.653331  0.000299819 -3.17368e-05      14.6731 
         200     0.853332  0.000288008 -4.26738e-05      14.6731 
         200         1.08  0.000257413  -5.4756e-05      14.6731 
         200      1.33333  0.000228603 -6.67847e-05      14.6731 
         200      1.61333  0.000200507 -7.71959e-05      14.6731 
         200         1.92   0.00017314 -8.50554e-05      14.6731 
         200      2.25333   0.00014957 -8.97087e-05      14.6731 
         200      2.61333  0.000124516 -9.08247e-05      14.6731 
         200            3  0.000110202 -8.86245e-05      14.6731 
         250            0            0            0       13.755 
         250     0.013333  0.000143065  6.86005e-09       13.755 
         250     0.053333  8.95929e-05  7.19334e-08       13.755 
         250         0.12  3.44767e-05  1.21177e-07       13.755 
         250     0.213332 -2.82833e-07 -3.14464e-07       13.755 
         250     0.333332 -6.02352e-06 -1.90539e-06       13.755 
         250         0.48  8.22885e-06 -5.00167e-06       13.755 
         250     0.653331  2.67244e-05 -9.42055e-06       13.755 
         250     0.853332  4.18679e-05 -1.46533e-05       13.755 
         250         1.08  5.60482e-05 -2.01398e-05       13.755 
         250      1.33333  7.38302e-05 -2.54743e-05       13.755 
         250      1.61333  9.53482e-05 -3.03533e-05       13.755 
         250         1.92   0.00011883 -3.42519e-05       13.755 
         250      2.25333   0.00014139 -3.70041e-05       13.755 
         250      2.61333  0.000159832 -3.83357e-05       13.755 
         250            3  0.000169544 -3.81247e-05       13.755 
         300            0           -0           -0      12.8383 
         300     0.013333  0.000159315  1.70952e-08      12.8383 
         300     0.053333  0.000145366  2.41131e-07      12.8383 
         300         0.12  0.000129996  9.91599e-07      12.8383 
         300     0.213332   0.00011467  2.37412e-06      12.8383 
         300     0.333332  0.000103467  4.21491e-06      12.8383 
         300         0.48  9.82107e-05  6.35296e-06      12.8383 
         300     0.653331  9.80552e-05  8.87947e-06      12.8383 
         300     0.853332  0.000104699  1.20797e-05      12.8383 
         300         1.08  0.000119323  1.60921e-05      12.8383 
         300      1.33333  0.000134232  2.04909e-05      12.8383 
         300      1.61333  0.000144989   2.4548e-05      12.8383 
         300         1.92  0.000152922  2.79115e-05      12.8383 
         300      2.25333  0.000159222  3.03592e-05      12.8383 
         300      2.61333  0.000166504  3.16851e-05      12.8383 
         300            3  0.000171119  3.18108e-05      12.8383 
         350            0    1.725e-19  3.12598e-28      11.9219 
         350     0.013333  0.000157932 -1.83458e-08      11.9219 
         350     0.053333  0.000149487 -2.81298e-07      11.9219 
         350         0.12  0.000160549 -1.29176e-06      11.9219 
         350     0.213332  0.000187847  -3.4451e-06      11.9219 
         350     0.333332   0.00021326 -6.60801e-06      11.9219 
         350         0.48  0.000222538 -1.02352e-05      11.9219 
         350     0.653331  0.000214714 -1.38841e-05      11.9219 
         350     0.853332  0.000197764 -1.73407e-05      11.9219 
         350         1.08  0.000182844 -2.02952e-05      11.9219 
         350      1.33333  0.000176495 -2.24203e-05      11.9219 
         350      1.61333  0.000171466 -2.37429e-05      11.9219 
         350         1.92  0.000164053  -2.4366e-05      11.9219 
         350      2.25333  0.000156175  -2.4221e-05      11.9219 
         350      2.61333  0.000148787 -2.32483e-05      11.9219 
         350            3  0.000145247 -2.14313e-05      11.9219 
         400            0           -0           -0      11.0054 
         400     0.013333  0.000118843 -5.18281e-08      11.0054 
         400     0.053333  2.10318e-05 -8.40397e-07      11.0054 
         400         0.12 -4.34354e-05 -4.18054e-06      11.0054 
         400     0.213332 -2.71565e-05 -1.22626e-05      11.0054 
         400     0.333332  4.84541e-05 -2.60999e-05      11.0054 
         400         0.48   0.00012494 -4.49089e-05      11.0054 
         400     0.653331  0.000161533 -6.71482e-05      11.0054 
         400     0.853332  0.000154934   -9.145e-05      11.0054 
         400         1.08  0.000131608 -0.000116211      11.0054 
         400      1.33333  0.000126034 -0.000139442      11.0054 
         400      1.61333  0.000133409 -0.000159699      11.0054 
         400         1.92  0.000141797 -0.000175975      11.0054 
         400      2.25333  0.000150532 -0.000187428      11.0054 
         400      2.61333  0.000154837 -0.000192855      11.0054 
         400            3  0.000158834 -0.000191648      11.0054 
         450            0           -0           -0      10.0887 
         450     0.013333  0.000115236  3.37126e-08      10.0887 
         450     0.053333 -1.53746e-05  4.20052e-07      10.0887 
         450         0.12 -0.000173552   1.3358e-06      10.0887 
         450     0.213332 -0.000296658  1.85413e-06      10.0887 
         450     0.333332 -0.000346604  2.96561e-07      10.0887 
         450         0.48 -0.000336965 -4.33377e-06      10.0887 
         450     0.653331 -0.000307556  -1.1616e-05      10.0887 
         450     0.853332 -0.000278547 -2.00869e-05      10.0887 
         450         1.08 -0.000237312 -2.79033e-05      10.0887 
         450      1.33333 -0.000170418 -3.39667e-05      10.0887 
         450      1.61333 -9.29036e-05 -3.86781e-05      10.0887 
         450         1.92 -1.97683e-05 -4.24182e-05      10.0887 
         450      2.25333  5.16136e-05 -4.52107e-05      10.0887 
         450      2.61333  0.000126144 -4.66341e-05      10.0887 
         450            3  0.000190162 -4.65186e-05      10.0887 
         500            0           -0           -0      9.17236 
         500     0.013333  0.000223186 -1.15499e-08      9.17236 
         500     0.053333  0.000379983 -9.19713e-08      9.17236 
         500         0.12  0.000575495  1.40986e-07      9.17236 
         500     0.213332   0.00071952  2.20472e-06      9.17236 
         500     0.333332  0.000760047  8.25923e-06      9.17236 
         500         0.48  0.000716725  1.96082e-05      9.17236 
         500     0.653331  0.000645405  3.58936e-05      9.17236 
         500     0.853332  0.000584791  5.56948e-05      9.17236 
         500         1.08  0.000539368   7.7427e-05      9.17236 
         500      1.33333  0.000492297  9.96103e-05      9.17236 
         500      1.61333  0.000431835  0.000120746      9.17235 
         500         1.92  0.000360287  0.000139444      9.17235 
         500      2.25333  0.000283476  0.000154848      9.17235 
         500      2.61333  0.000204426  0.000165777      9.17234 
         500            3  0.000130848  0.000171233      9.17234 
         550            0           -0           -0      8.25506 
         550     0.013333 -9.04688e-06  1.83819e-08      8.25506 
         550     0.053333 -0.000453492  2.69334e-08      8.25506 
         550         0.12  -0.00095943 -1.54326e-06      8.25506 
         550     0.213332  -0.00129435 -9.40562e-06      8.25506 
         550     0.333332  -0.00135349 -2.93233e-05      8.25506 
         550         0.48  -0.00122179 -6.37675e-05      8.25506 
         550     0.653331  -0.00105775 -0.000110427      8.25506 
         550     0.853332  -0.00094353 -0.000164276      8.25506 
         550         1.08  -0.00085039 -0.000219781      8.25506 
         550      1.33333 -0.000716254 -0.000272663      8.25506 
         550      1.61333 -0.000545454 -0.000320993      8.25506 
         550         1.92 -0.000367599 -0.000363366      8.25507 
         550      2.25333 -0.000186161 -0.000398042      8.25508 
         550      2.61333 -8.17461e-07 -0.000422141      8.25509 
         550            3  0.000172018 -0.000433276      8.25511 
         600            0           -0           -0      7.33901 
         600     0.013333  0.000389954  6.93193e-08      7.33901 
         600     0.053333  0.000950843  1.34416e-06      7.33901 
         600         0.12   0.00155222   8.0729e-06      7.33901 
         600     0.213332   0.00188674  2.78278e-05      7.33902 
         600     0.333332   0.00186528   6.7425e-05      7.33902 
         600         0.48   0.00164514  0.000128221      7.33902 
         600     0.653331   0.00144112  0.000206295      7.33902 
         600     0.853332   0.00135381   0.00029576      7.33902 
         600         1.08   0.00133466   0.00038986      7.33902 
         600      1.33333   0.00125599  0.000480974      7.33902 
         600      1.61333   0.00107973  0.000563336      7.33901 
         600         1.92  0.000865986  0.000634332      7.33901 
         600      2.25333  0.000646437  0.000692009        7.339 
         600      2.61333   0.00042355  0.000732012      7.33898 
         600            3  0.000206723  0.000750368      7.33897 
         650            0            0            0      6.42132 
         650     0.013333  1.54472e-05 -7.44087e-08      6.42132 
         650     0.053333 -0.000344382 -1.28239e-06      6.42132 
         650         0.12 -0.000706726 -6.86394e-06      6.42132 
         650     0.213332 -0.000895064 -2.16255e-05      6.42132 
         650     0.333332 -0.000879994 -4.91071e-05      6.42132 
         650         0.48 -0.000766364 -8.93682e-05      6.42131 
         650     0.653331 -0.000676518 -0.000140013      6.42131 
         650     0.853332 -0.000666676 -0.000198297      6.42131 
         650         1.08 -0.000709614 -0.000260846      6.42131 
         650      1.33333 -0.000710459 -0.000322288      6.42131 
         650      1.61333 -0.000613785 -0.000377193      6.42132 
         650         1.92 -0.000464935 -0.000423412      6.42132 
         650      2.25333  -0.00030845  -0.00046042      6.42132 
         650      2.61333 -0.000148592  -0.00048593      6.42133 
         650            3  1.27976e-05  -0.00049732      6.42134 
         700            0           -0           -0      5.50442 
         700     0.013333  0.000156837  6.42396e-08      5.50442 
         700     0.053333  0.000122086  9.48564e-07      5.50442 
         700         0.12  4.63815e-05  4.15056e-06      5.50442 
         700     0.213332 -5.85654e-05  1.05504e-05      5.50442 
         700     0.333332 -0.000143767  1.94005e-05      5.50442 
         700         0.48 -0.000171358  2.90405e-05      5.50442 
         700     0.653331 -0.000145319  3.85949e-05      5.50442 
         700     0.853332 -8.52307e-05  4.86145e-05      5.50442 
         700         1.08 -2.27523e-06  5.99316e-05      5.50442 
         700      1.33333  7.98084e-05  7.18042e-05      5.50442 
         700      1.61333  0.000126576  8.19146e-05      5.50442 
         700         1.92  0.000142837  8.90627e-05      5.50442 
         700      2.25333  0.000155547  9.35475e-05      5.50442 
         700      2.61333    0.0001719  9.54526e-05      5.50442 
         700            3   0.00018413  9.44303e-05      5.50443 
         750            0           -0           -0      4.58759 
         750     0.013333   0.00018786 -1.17798e-07      4.58759 
         750     0.053333  0.000289901 -1.72932e-06      4.58759 
         750         0.12  0.000515141 -7.55104e-06      4.58759 
         750     0.213332  0.000826451 -1.93413e-05      4.58759 
         750     0.333332   0.00111873 -3.62368e-05      4.58759 
         750         0.48   0.00130599 -5.55584e-05      4.58759 
         750     0.653331   0.00137699 -7.51414e-05      4.58759 
         750     0.853332   0.00136396  -9.4758e-05      4.58759 
         750         1.08   0.00128644 -0.000115616      4.58759 
         750      1.33333   0.00115303 -0.000138417      4.58759 
         750      1.61333  0.000992802 -0.000161704      4.58759 
         750         1.92  0.000839018 -0.000183071      4.58759 
         750      2.25333  0.000686083 -0.000200997      4.58758 
         750      2.61333  0.000516178 -0.000214601      4.58758 
         750            3  0.000344446 -0.000222851      4.58757 
         800            0            0            0      3.67022 
         800     0.013333  0.000259553 -2.96641e-09      3.67022 
         800     0.053333  0.000513495  4.12618e-08      3.67022 
         800         0.12  0.000835111  7.86556e-07      3.67022 
         800     0.213332   0.00109499  4.15534e-06      3.67022 
         800     0.333332   0.00120917   1.2844e-05      3.67022 
         800         0.48   0.00118677  2.87665e-05      3.67022 
         800     0.653331   0.00109893  5.20139e-05      3.67022 
         800     0.853332   0.00101207  8.12382e-05      3.67022 
         800         1.08  0.000950472  0.000114592      3.67022 
         800      1.33333  0.000898857  0.000150105      3.67022 
         800      1.61333  0.000828836  0.000185549      3.67022 
         800         1.92  0.000727386   0.00021879      3.67022 
         800      2.25333  0.000605287  0.000248447      3.67021 
         800      2.61333  0.000473837  0.000273082      3.67021 
         800            3  0.000336202  0.000290949       3.6702 
         850            0            0            0      2.75228 
         850     0.013333  0.000182067  1.53422e-07      2.75228 
         850     0.053333  0.000181747  2.32606e-06      2.75228 
         850         0.12  6.30378e-05  1.06656e-05      2.75228 
         850     0.213332 -0.000211208  2.90084e-05      2.75228 
         850     0.333332 -0.000550157  5.80221e-05      2.75228 
         850         0.48 -0.000816935  9.49787e-05      2.75228 
         850     0.653331 -0.000941345  0.000136458      2.75228 
         850     0.853332 -0.000932352   0.00018082      2.75228 
         850         1.08  -0.00082718  0.000227844      2.75228 
         850      1.33333 -0.000675443  0.000276488      2.75228 
         850      1.61333 -0.000529133  0.000323967      2.75228 
         850         1.92 -0.000408093  0.000367551      2.75228 
         850      2.25333 -0.000293143  0.000405385      2.75228 
         850      2.61333 -0.000162892  0.000435617      2.75229 
         850            3  -2.8563e-05  0.000455982       2.7523 
         900            0            0            0      1.83487 
         900     0.013333  1.67358e-05 -8.68391e-08      1.83487 
         900     0.053333 -0.000334232 -1.46762e-06      1.83487 
         900         0.12 -0.000667462 -7.73976e-06      1.83486 
         900     0.213332 -0.000791336 -2.42718e-05      1.83486 
         900     0.333332  -0.00067409 -5.52459e-05      1.83486 
         900         0.48 -0.000444696 -0.000100856      1.83486 
         900     0.653331 -0.000261401 -0.000157875      1.83486 
         900     0.853332 -0.000199131 -0.000222379      1.83486 
         900         1.08 -0.000233619 -0.000290739      1.83486 
         900      1.33333 -0.000273879 -0.000358619      1.83486 
         900      1.61333  -0.00024603 -0.000421574      1.83486 
         900         1.92 -0.000167101 -0.000477563      1.83487 
         900      2.25333 -8.44018e-05  -0.00052601      1.83487 
         900      2.61333 -9.18055e-06 -0.000564927      1.83487 
         900            3  6.87263e-05 -0.000591274      1.83488 
         950            0            0            0     0.918103 
         950     0.013333  0.000300943 -9.71574e-08     0.918103 
         950     0.053333  0.000691274  -1.2978e-06     0.918103 
         950         0.12   0.00124573 -4.78094e-06     0.918103 
         950     0.213332    0.0017793 -9.27974e-06     0.918103 
         950     0.333332    0.0021202 -1.08043e-05     0.918104 
         950         0.48   0.00223006 -5.50337e-06     0.918104 
         950     0.653331   0.00219795  7.57633e-06     0.918105 
         950     0.853332   0.00212766  2.62819e-05     0.918106 
         950         1.08   0.00204316  4.65319e-05     0.918106 
         950      1.33333   0.00189307  6.38512e-05     0.918106 
         950      1.61333   0.00165254  7.60695e-05     0.918104 
         950         1.92   0.00138226  8.48446e-05       0.9181 
         950      2.25333   0.00112153  9.23733e-05     0.918093 
         950      2.61333  0.000851355  9.86229e-05     0.918081 
         950            3  0.000568191  0.000102757     0.918065 
        1000            0            0            0            0 
        1000     0.013333   0.00016052  3.69931e-06           -0 
        1000     0.053333  0.000170705  1.61079e-05           -0 
        1000         0.12  0.000245781  4.23658e-05  7.63184e-17 
        1000     0.213332  0.000458671  7.22411e-05  9.06122e-16 
        1000     0.333332  0.000444163  0.000106069  4.99942e-16 
        1000         0.48  0.000562511  0.000139816           -0 
        1000     0.653331  0.000768543  4.21717e-05            0 
        1000     0.853332  0.000314629  9.80062e-06            0 
        1000         1.08   0.00033415  7.62106e-05            0 
        1000      1.33333  0.000553284  0.000102867  4.76257e-16 
        1000      1.61333  0.000409445  0.000112551           -0 
        1000         1.92  0.000392461  0.000190648  9.85011e-16 
        1000      2.25333  0.000424681  0.000229495  1.03255e-15 
        1000      2.61333  0.000460717  0.000176992           -0 
        1000            3  0.000205568  0.000212135  1.03882e-15 
