Variables = x, y, u, v, p

Zone, I=416, F=POINT
         -50            0            0            0     -26.4264 
         -50     0.013333  6.56171e-05 -1.98246e-08     -26.4264 
         -50     0.053333  8.62462e-05 -2.47518e-08     -26.4264 
         -50         0.12  9.38179e-05 -1.00663e-07     -26.4264 
         -50     0.213332  9.75889e-05 -1.82963e-07     -26.4264 
         -50     0.333332  9.54662e-05 -7.86826e-08     -26.4264 
         -50         0.48  8.85538e-05  3.51331e-07     -26.4263 
         -50     0.653331  8.17574e-05  1.14618e-06     -26.4262 
         -50     0.853332  7.80794e-05  2.25363e-06     -26.4261 
         -50         1.08  7.62843e-05    3.511e-06     -26.4259 
         -50      1.33333  7.51011e-05  4.74711e-06     -26.4256 
         -50      1.61333  7.69945e-05  5.89507e-06     -26.4253 
         -50         1.92  8.41229e-05  7.18357e-06     -26.4248 
         -50      2.25333  8.77165e-05   7.4919e-06     -26.4242 
         -50      2.61333  8.57312e-05  8.10962e-06     -26.4234 
         -50            3  8.00986e-05  4.84743e-06     -26.4225 
         -25            0  3.41887e-20 -7.78493e-24     -25.3581 
         -25     0.013333  5.21112e-05  8.97538e-09     -25.3581 
         -25     0.053333   7.4309e-05  2.44538e-07     -25.3581 
         -25         0.12  8.06968e-05  1.11294e-06     -25.3581 
         -25     0.213332   7.8415e-05  2.97287e-06     -25.3581 
         -25     0.333332  7.47906e-05  5.83603e-06     -25.3581 
         -25         0.48  7.58659e-05  9.45544e-06      -25.358 
         -25     0.653331   8.2422e-05  1.35651e-05      -25.358 
         -25     0.853332  8.95864e-05  1.78133e-05      -25.358 
         -25         1.08  9.07627e-05    2.164e-05     -25.3579 
         -25      1.33333  8.55518e-05  2.46177e-05     -25.3578 
         -25      1.61333  8.04048e-05  2.64232e-05     -25.3576 
         -25         1.92  7.57632e-05  2.69671e-05     -25.3575 
         -25      2.25333  6.85326e-05  2.58797e-05     -25.3572 
         -25      2.61333  5.94316e-05  2.44794e-05     -25.3569 
         -25            3  5.93697e-05   2.7031e-05     -25.3565 
           0            0  2.51681e-20 -3.75008e-24     -24.5189 
           0     0.013333  3.45103e-05  1.01188e-08     -24.5189 
           0     0.053333   2.9413e-05  1.87175e-07     -24.5189 
           0         0.12  6.60563e-06  7.44198e-07     -24.5189 
           0     0.213332 -1.87075e-05  1.70434e-06     -24.5189 
           0     0.333332 -3.85368e-05  2.86383e-06     -24.5189 
           0         0.48 -5.03226e-05  4.03779e-06     -24.5189 
           0     0.653331 -5.22266e-05   5.2821e-06     -24.5188 
           0     0.853332 -4.11895e-05  6.82828e-06     -24.5188 
           0         1.08 -1.97323e-05  8.68772e-06     -24.5188 
           0      1.33333  2.59349e-06  1.04823e-05     -24.5187 
           0      1.61333  2.57928e-05  1.18454e-05     -24.5187 
           0         1.92  4.75279e-05  1.26985e-05     -24.5186 
           0      2.25333  6.42194e-05  1.29233e-05     -24.5184 
           0      2.61333   7.6982e-05  1.19723e-05     -24.5183 
           0            3   7.3594e-05  6.35703e-06     -24.5181 
          20            0  2.65777e-20 -2.24495e-24     -23.9277 
          20     0.013333  4.08454e-05  2.48581e-09     -23.9277 
          20     0.053333  6.08865e-05  7.72173e-08     -23.9277 
          20         0.12  7.10546e-05  4.06059e-07     -23.9277 
          20     0.213332  7.29049e-05  1.25441e-06     -23.9277 
          20     0.333332  6.78515e-05  2.79686e-06     -23.9277 
          20         0.48  6.10284e-05  5.00867e-06     -23.9277 
          20     0.653331  5.69641e-05  7.73503e-06     -23.9277 
          20     0.853332  5.61688e-05   1.0749e-05     -23.9277 
          20         1.08  5.64294e-05  1.37486e-05     -23.9277 
          20      1.33333  5.60783e-05  1.64039e-05     -23.9277 
          20      1.61333  5.64521e-05  1.84791e-05     -23.9276 
          20         1.92  5.49666e-05  1.94787e-05     -23.9276 
          20      2.25333  4.93685e-05  1.93115e-05     -23.9275 
          20      2.61333  4.04088e-05  1.74473e-05     -23.9274 
          20            3  2.73474e-05  1.32279e-05     -23.9273 
          40            0  2.64695e-20 -1.39099e-24     -23.3768 
          40     0.013333  4.24179e-05 -1.16647e-08     -23.3768 
          40     0.053333  7.42104e-05 -1.33241e-07     -23.3768 
          40         0.12  0.000105433 -4.51857e-07     -23.3768 
          40     0.213332  0.000130269 -7.48549e-07     -23.3768 
          40     0.333332  0.000141434 -5.86744e-07     -23.3768 
          40         0.48  0.000141718   2.9244e-07     -23.3768 
          40     0.653331  0.000137293  1.77655e-06     -23.3768 
          40     0.853332  0.000128677  3.50909e-06     -23.3768 
          40         1.08  0.000114075  5.14777e-06     -23.3768 
          40      1.33333  9.58674e-05   6.6144e-06     -23.3768 
          40      1.61333  7.56441e-05  7.86958e-06     -23.3767 
          40         1.92  5.86321e-05  8.78689e-06     -23.3767 
          40      2.25333  4.72848e-05  9.22201e-06     -23.3767 
          40      2.61333  3.70758e-05  9.09946e-06     -23.3766 
          40            3  3.05914e-05   7.3124e-06     -23.3766 
          60            0            0            0     -22.8507 
          60     0.013333   4.0473e-05  -2.6172e-08     -22.8507 
          60     0.053333  7.31249e-05  -3.4869e-07     -22.8507 
          60         0.12  0.000111569 -1.35943e-06     -22.8507 
          60     0.213332  0.000147057 -2.97031e-06     -22.8507 
          60     0.333332  0.000165626 -4.59815e-06     -22.8507 
          60         0.48  0.000166935 -5.81253e-06     -22.8507 
          60     0.653331  0.000157461 -6.73249e-06     -22.8507 
          60     0.853332  0.000139416   -7.723e-06     -22.8507 
          60         1.08  0.000115889 -8.83475e-06     -22.8507 
          60      1.33333  9.32852e-05 -9.75249e-06     -22.8507 
          60      1.61333  6.80159e-05  -1.0219e-05     -22.8507 
          60         1.92  4.46895e-05 -1.02331e-05     -22.8507 
          60      2.25333  2.73796e-05 -9.81219e-06     -22.8506 
          60      2.61333  1.40173e-05 -8.82657e-06     -22.8506 
          60            3  1.33955e-05 -6.91085e-06     -22.8506 
          80            0            0            0     -22.3403 
          80     0.013333  3.81631e-05  -3.8484e-08     -22.3403 
          80     0.053333  7.07285e-05 -5.41574e-07     -22.3403 
          80         0.12  0.000119147 -2.24851e-06     -22.3403 
          80     0.213332  0.000175406 -5.37522e-06     -22.3403 
          80     0.333332  0.000216969 -9.32382e-06     -22.3403 
          80         0.48  0.000234901 -1.33487e-05     -22.3403 
          80     0.653331  0.000233313 -1.72691e-05     -22.3403 
          80     0.853332  0.000214382 -2.13739e-05     -22.3403 
          80         1.08  0.000182033 -2.56332e-05     -22.3403 
          80      1.33333  0.000147023 -2.94106e-05     -22.3403 
          80      1.61333  0.000104796 -3.20157e-05     -22.3403 
          80         1.92  6.49744e-05  -3.3138e-05     -22.3403 
          80      2.25333   3.4091e-05 -3.28312e-05     -22.3403 
          80      2.61333  5.46156e-06 -3.10984e-05     -22.3402 
          80            3 -5.88483e-06 -2.80688e-05     -22.3402 
         100            0  1.54422e-20  -3.6131e-25       -21.84 
         100     0.013333  1.60791e-05 -2.52702e-08       -21.84 
         100     0.053333 -8.89474e-06 -3.91991e-07       -21.84 
         100         0.12 -3.03402e-05 -1.87326e-06       -21.84 
         100     0.213332 -2.57169e-05 -5.29032e-06       -21.84 
         100     0.333332 -2.81794e-06 -1.09677e-05       -21.84 
         100         0.48  1.91459e-05 -1.86897e-05       -21.84 
         100     0.653331  2.73902e-05 -2.80785e-05       -21.84 
         100     0.853332  2.10782e-05 -3.86459e-05       -21.84 
         100         1.08  1.19376e-05 -4.94497e-05       -21.84 
         100      1.33333  1.30601e-05 -5.93007e-05     -21.8399 
         100      1.61333  1.49201e-05 -6.72204e-05     -21.8399 
         100         1.92  1.78277e-05 -7.21497e-05     -21.8399 
         100      2.25333  2.42968e-05 -7.38896e-05     -21.8399 
         100      2.61333  2.96672e-05 -7.22609e-05     -21.8399 
         100            3   3.8495e-05 -6.70705e-05     -21.8399 
         150            0           -0           -0     -20.6123 
         150     0.013333  3.80818e-05 -3.38685e-09     -20.6123 
         150     0.053333  6.48156e-05 -3.36116e-08     -20.6123 
         150         0.12  8.86234e-05 -5.27093e-08     -20.6123 
         150     0.213332  0.000106231   1.5129e-07     -20.6123 
         150     0.333332  0.000113629  8.55531e-07     -20.6123 
         150         0.48  0.000113855  2.19323e-06     -20.6123 
         150     0.653331  0.000112439  4.08138e-06     -20.6123 
         150     0.853332  0.000110067  6.24586e-06     -20.6123 
         150         1.08  0.000103121  8.32678e-06     -20.6123 
         150      1.33333  9.07175e-05  1.01487e-05     -20.6123 
         150      1.61333  7.50969e-05  1.16971e-05     -20.6123 
         150         1.92  5.79447e-05   1.2734e-05     -20.6123 
         150      2.25333  3.97523e-05  1.32429e-05     -20.6123 
         150      2.61333  2.11494e-05  1.31019e-05     -20.6123 
         150            3  1.09197e-05  1.26686e-05     -20.6123 
         200            0           -0           -0     -19.3992 
         200     0.013333  3.00308e-05  5.39359e-09     -19.3992 
         200     0.053333  3.44023e-05  8.20144e-08     -19.3992 
         200         0.12  2.69448e-05  3.71867e-07     -19.3992 
         200     0.213332  1.49225e-05  9.87169e-07     -19.3992 
         200     0.333332  2.84079e-06  1.90355e-06     -19.3992 
         200         0.48 -5.93994e-06   2.9835e-06     -19.3992 
         200     0.653331 -1.03133e-05  4.10252e-06     -19.3992 
         200     0.853332 -1.06896e-05  5.22084e-06     -19.3992 
         200         1.08 -7.60618e-06  6.32348e-06     -19.3992 
         200      1.33333 -2.10726e-06  7.36456e-06     -19.3992 
         200      1.61333  6.28591e-06   8.2231e-06     -19.3992 
         200         1.92  1.61628e-05  8.82456e-06     -19.3992 
         200      2.25333  2.56454e-05  9.07992e-06     -19.3992 
         200      2.61333  3.31259e-05  8.85653e-06     -19.3992 
         200            3  3.39449e-05   8.0844e-06     -19.3992 
         250            0            0            0     -18.1904 
         250     0.013333  3.10003e-05 -5.38977e-10     -18.1904 
         250     0.053333  4.05799e-05 -1.08063e-08     -18.1904 
         250         0.12  4.56537e-05 -6.72943e-08     -18.1904 
         250     0.213332  5.27513e-05 -2.32722e-07     -18.1904 
         250     0.333332  6.02215e-05 -5.32864e-07     -18.1904 
         250         0.48  6.50134e-05 -8.86365e-07     -18.1904 
         250     0.653331  6.69108e-05  -1.1374e-06     -18.1904 
         250     0.853332  6.75975e-05 -1.17784e-06     -18.1904 
         250         1.08  6.70442e-05 -1.06128e-06     -18.1904 
         250      1.33333  6.34667e-05 -9.40244e-07     -18.1904 
         250      1.61333  5.72618e-05 -8.83473e-07     -18.1904 
         250         1.92  5.04485e-05 -8.53252e-07     -18.1904 
         250      2.25333  4.36478e-05 -8.07469e-07     -18.1904 
         250      2.61333  3.76197e-05 -7.29432e-07     -18.1904 
         250            3   3.6497e-05 -4.95221e-07     -18.1904 
         300            0           -0           -0     -16.9825 
         300     0.013333 -7.19704e-06  7.48432e-09     -16.9825 
         300     0.053333 -9.57615e-05  4.22884e-08     -16.9825 
         300         0.12 -0.000202964 -2.66867e-07     -16.9825 
         300     0.213332 -0.000268731 -2.11623e-06     -16.9825 
         300     0.333332  -0.00027252 -6.91751e-06     -16.9825 
         300         0.48 -0.000238746 -1.51785e-05     -16.9825 
         300     0.653331 -0.000202372 -2.62416e-05     -16.9825 
         300     0.853332 -0.000176483 -3.88313e-05     -16.9825 
         300         1.08 -0.000151359 -5.15798e-05     -16.9825 
         300      1.33333 -0.000116288 -6.35727e-05     -16.9825 
         300      1.61333 -7.59374e-05 -7.43359e-05     -16.9825 
         300         1.92 -3.39476e-05 -8.29719e-05     -16.9825 
         300      2.25333  7.48751e-06 -8.90244e-05     -16.9825 
         300      2.61333  4.58948e-05 -9.18261e-05     -16.9825 
         300            3  7.50497e-05 -9.11084e-05     -16.9825 
         350            0  2.54134e-20  2.95777e-27     -15.7745 
         350     0.013333  4.03792e-05  8.07352e-08     -15.7745 
         350     0.053333  5.16478e-05   1.2062e-06     -15.7745 
         350         0.12   4.1891e-06  5.39644e-06     -15.7745 
         350     0.213332 -0.000100283  1.42186e-05     -15.7745 
         350     0.333332 -0.000215907  2.75321e-05     -15.7745 
         350         0.48 -0.000295808  4.39516e-05     -15.7745 
         350     0.653331  -0.00032442   6.2358e-05     -15.7745 
         350     0.853332 -0.000306225  8.25075e-05     -15.7745 
         350         1.08 -0.000254226  0.000104115     -15.7745 
         350      1.33333 -0.000196164  0.000125759     -15.7745 
         350      1.61333 -0.000139661  0.000145296     -15.7745 
         350         1.92 -8.67309e-05  0.000161187     -15.7745 
         350      2.25333 -3.73297e-05  0.000172293     -15.7745 
         350      2.61333  1.93688e-05  0.000177636     -15.7745 
         350            3   6.5073e-05  0.000176703     -15.7745 
         400            0           -0           -0     -14.5662 
         400     0.013333  5.32506e-05  3.98444e-08     -14.5662 
         400     0.053333  0.000106839  6.41199e-07     -14.5662 
         400         0.12  0.000128514  3.14881e-06     -14.5662 
         400     0.213332  9.84614e-05   9.0664e-06     -14.5662 
         400     0.333332  3.92454e-05  1.88516e-05     -14.5662 
         400         0.48  -6.3905e-06  3.16089e-05     -14.5662 
         400     0.653331 -1.55247e-05  4.60715e-05     -14.5662 
         400     0.853332   5.6459e-06  6.12678e-05     -14.5662 
         400         1.08  3.17984e-05  7.60478e-05     -14.5662 
         400      1.33333  3.76406e-05  8.90357e-05     -14.5662 
         400      1.61333  3.21799e-05  9.95455e-05     -14.5662 
         400         1.92  2.82016e-05  0.000107314     -14.5662 
         400      2.25333  2.50025e-05  0.000112023     -14.5662 
         400      2.61333  2.31427e-05  0.000113063     -14.5662 
         400            3  1.96344e-05  0.000110153     -14.5662 
         450            0           -0           -0     -13.3571 
         450     0.013333   0.00011014 -4.75025e-08     -13.3571 
         450     0.053333  0.000334377  -5.8027e-07     -13.3571 
         450         0.12  0.000611152 -1.74174e-06     -13.3571 
         450     0.213332  0.000833982 -1.90988e-06     -13.3571 
         450     0.333332  0.000930479  1.77426e-06     -13.3571 
         450         0.48  0.000918591  1.11477e-05     -13.3571 
         450     0.653331   0.00086598  2.57622e-05     -13.3571 
         450     0.853332  0.000812992  4.34377e-05     -13.3571 
         450         1.08  0.000746863   6.1336e-05     -13.3571 
         450      1.33333  0.000643885  7.74694e-05     -13.3571 
         450      1.61333  0.000516749  9.16182e-05     -13.3571 
         450         1.92  0.000385807  0.000103616     -13.3571 
         450      2.25333  0.000252456  0.000113107     -13.3571 
         450      2.61333  0.000113806  0.000119181     -13.3571 
         450            3 -7.13958e-06  0.000121132     -13.3571 
         500            0           -0           -0     -12.1477 
         500     0.013333 -4.11975e-05  3.61001e-09     -12.1477 
         500     0.053333 -0.000218685 -3.42598e-08     -12.1477 
         500         0.12 -0.000437501  -7.3582e-07     -12.1477 
         500     0.213332 -0.000599896 -3.79085e-06     -12.1477 
         500     0.333332 -0.000661205 -1.12221e-05     -12.1477 
         500         0.48 -0.000645789 -2.40376e-05     -12.1477 
         500     0.653331 -0.000607082 -4.18148e-05     -12.1477 
         500     0.853332 -0.000578586 -6.32319e-05     -12.1477 
         500         1.08 -0.000554327 -8.64043e-05     -12.1477 
         500      1.33333  -0.00050349 -0.000109107     -12.1477 
         500      1.61333 -0.000416842  -0.00012954     -12.1477 
         500         1.92 -0.000313044 -0.000146726     -12.1477 
         500      2.25333 -0.000203672 -0.000160213     -12.1477 
         500      2.61333 -9.05608e-05 -0.000168929     -12.1477 
         500            3  1.29771e-05 -0.000171973     -12.1477 
         550            0           -0           -0     -10.9367 
         550     0.013333  5.23677e-05 -3.48184e-09     -10.9367 
         550     0.053333  0.000118886 -2.28469e-08     -10.9367 
         550         0.12  0.000193637  7.87657e-08     -10.9367 
         550     0.213332  0.000257986  7.26062e-07     -10.9367 
         550     0.333332  0.000300042   2.3707e-06     -10.9367 
         550         0.48  0.000324316  5.16569e-06     -10.9367 
         550     0.653331  0.000342138  8.98894e-06     -10.9367 
         550     0.853332  0.000358469   1.3518e-05     -10.9367 
         550         1.08  0.000364441  1.80388e-05     -10.9367 
         550      1.33333  0.000344258  2.15841e-05     -10.9367 
         550      1.61333  0.000299294  2.37293e-05     -10.9367 
         550         1.92  0.000246951  2.47555e-05     -10.9367 
         550      2.25333  0.000193482  2.49575e-05     -10.9367 
         550      2.61333  0.000135735   2.4312e-05     -10.9367 
         550            3  7.98818e-05   2.2729e-05     -10.9367 
         600            0           -0           -0     -9.72491 
         600     0.013333  9.36502e-05   -4.018e-08     -9.72491 
         600     0.053333  0.000276446 -5.15342e-07     -9.72491 
         600         0.12  0.000508116 -1.72414e-06     -9.72491 
         600     0.213332  0.000704874 -2.62274e-06     -9.72491 
         600     0.333332  0.000797379 -9.16705e-07     -9.72491 
         600         0.48  0.000787373  5.21956e-06     -9.72491 
         600     0.653331  0.000728917  1.57564e-05     -9.72491 
         600     0.853332  0.000664768  2.90659e-05     -9.72491 
         600         1.08   0.00059767   4.3095e-05     -9.72491 
         600      1.33333  0.000516911  5.66124e-05     -9.72491 
         600      1.61333  0.000428833  6.95413e-05     -9.72492 
         600         1.92  0.000340281   8.1691e-05     -9.72492 
         600      2.25333  0.000248423  9.25157e-05     -9.72492 
         600      2.61333  0.000151683  0.000101159     -9.72493 
         600            3  5.97539e-05  0.000106859     -9.72494 
         650            0            0            0     -8.51293 
         650     0.013333 -3.85331e-05  6.43154e-08     -8.51293 
         650     0.053333 -0.000227554  8.71276e-07     -8.51293 
         650         0.12 -0.000506349   3.3154e-06     -8.51293 
         650     0.213332 -0.000778426   6.9168e-06     -8.51293 
         650     0.333332 -0.000958817  9.62742e-06     -8.51293 
         650         0.48  -0.00102931   9.4264e-06     -8.51293 
         650     0.653331  -0.00103101  5.80053e-06     -8.51293 
         650     0.853332  -0.00100586 -1.13074e-07     -8.51293 
         650         1.08 -0.000954345 -6.13512e-06     -8.51293 
         650      1.33333  -0.00085317 -1.02385e-05     -8.51293 
         650      1.61333 -0.000708741  -1.2137e-05     -8.51293 
         650         1.92 -0.000555907 -1.28885e-05     -8.51293 
         650      2.25333 -0.000401745 -1.33233e-05     -8.51292 
         650      2.61333 -0.000234696 -1.32893e-05     -8.51291 
         650            3 -6.99654e-05 -1.26728e-05      -8.5129 
         700            0           -0           -0      -7.2993 
         700     0.013333  7.40095e-06 -2.39491e-08      -7.2993 
         700     0.053333 -3.66382e-05 -3.74442e-07      -7.2993 
         700         0.12 -7.98829e-05 -1.80853e-06      -7.2993 
         700     0.213332 -8.49806e-05 -5.28937e-06      -7.2993 
         700     0.333332 -4.72942e-05 -1.15486e-05      -7.2993 
         700         0.48  1.21337e-05 -2.07319e-05      -7.2993 
         700     0.653331  6.76026e-05 -3.24255e-05      -7.2993 
         700     0.853332   0.00010428  -4.6042e-05      -7.2993 
         700         1.08  0.000118125 -6.11921e-05      -7.2993 
         700      1.33333  0.000110863 -7.76546e-05      -7.2993 
         700      1.61333  9.08475e-05 -9.48228e-05      -7.2993 
         700         1.92  7.44535e-05 -0.000111457      -7.2993 
         700      2.25333  6.47029e-05 -0.000126319      -7.2993 
         700      2.61333  5.36518e-05 -0.000138514     -7.29931 
         700            3  4.42293e-05 -0.000147127     -7.29931 
         750            0           -0           -0       -6.085 
         750     0.013333  5.71951e-05 -5.36146e-08       -6.085 
         750     0.053333  0.000153032 -7.73477e-07       -6.085 
         750         0.12  0.000303131 -3.28177e-06       -6.085 
         750     0.213332   0.00048012 -8.08082e-06       -6.085 
         750     0.333332  0.000627889 -1.44012e-05       -6.085 
         750         0.48  0.000710235 -2.08037e-05       -6.085 
         750     0.653331   0.00073251 -2.63546e-05       -6.085 
         750     0.853332  0.000717539 -3.11806e-05       -6.085 
         750         1.08  0.000676026  -3.6109e-05       -6.085 
         750      1.33333  0.000608623 -4.17606e-05       -6.085 
         750      1.61333  0.000524242 -4.78378e-05       -6.085 
         750         1.92  0.000437204 -5.35524e-05       -6.085 
         750      2.25333  0.000347653 -5.83559e-05     -6.08501 
         750      2.61333  0.000248683 -6.19824e-05     -6.08501 
         750            3  0.000147473 -6.41852e-05     -6.08502 
         800            0            0            0     -4.87019 
         800     0.013333  7.12487e-05  2.32828e-08     -4.87019 
         800     0.053333  0.000179807  3.84603e-07     -4.87019 
         800         0.12  0.000284981  1.98478e-06     -4.87019 
         800     0.213332  0.000339556  6.15113e-06     -4.87019 
         800     0.333332  0.000327616  1.40136e-05     -4.87019 
         800         0.48  0.000273521  2.58913e-05     -4.87019 
         800     0.653331  0.000215494  4.13081e-05     -4.87019 
         800     0.853332  0.000178343  5.95105e-05     -4.87019 
         800         1.08  0.000167123  7.97835e-05     -4.87019 
         800      1.33333  0.000170005  0.000101247     -4.87019 
         800      1.61333  0.000168323  0.000122601     -4.87019 
         800         1.92  0.000152167  0.000142515     -4.87019 
         800      2.25333  0.000127472  0.000160101     -4.87019 
         800      2.61333  0.000101905  0.000174468     -4.87019 
         800            3  7.41456e-05  0.000184582     -4.87019 
         850            0            0            0      -3.6545 
         850     0.013333  3.84129e-05  4.80733e-08      -3.6545 
         850     0.053333  5.20389e-05  7.31744e-07      -3.6545 
         850         0.12  1.71243e-05  3.38556e-06      -3.6545 
         850     0.213332 -7.68597e-05  9.34494e-06      -3.6545 
         850     0.333332 -0.000203914  1.90616e-05      -3.6545 
         850         0.48 -0.000318298  3.18748e-05      -3.6545 
         850     0.653331 -0.000389854  4.66573e-05      -3.6545 
         850     0.853332 -0.000415291  6.26288e-05      -3.6545 
         850         1.08 -0.000403282  7.95543e-05      -3.6545 
         850      1.33333 -0.000364469  9.72734e-05      -3.6545 
         850      1.61333 -0.000311361  0.000115169      -3.6545 
         850         1.92  -0.00025641  0.000132263      -3.6545 
         850      2.25333 -0.000201163  0.000147594      -3.6545 
         850      2.61333 -0.000139576  0.000160296      -3.6545 
         850            3  -7.5228e-05  0.000169486      -3.6545 
         900            0            0            0      -2.4377 
         900     0.013333 -1.76574e-05  5.87425e-08      -2.4377 
         900     0.053333 -0.000154467  8.43624e-07      -2.4377 
         900         0.12 -0.000382054  3.55084e-06      -2.4377 
         900     0.213332 -0.000638617  8.61081e-06      -2.4377 
         900     0.333332   -0.0008439  1.49109e-05      -2.4377 
         900         0.48 -0.000948672  2.04759e-05      -2.4377 
         900     0.653331 -0.000961535  2.39183e-05      -2.4377 
         900     0.853332  -0.00092202  2.51846e-05      -2.4377 
         900         1.08 -0.000858625  2.51539e-05      -2.4377 
         900      1.33333 -0.000777585  2.47852e-05      -2.4377 
         900      1.61333 -0.000678391  2.45358e-05      -2.4377 
         900         1.92 -0.000567183  2.43254e-05      -2.4377 
         900      2.25333 -0.000448178  2.38322e-05      -2.4377 
         900      2.61333   -0.0003184  2.29604e-05      -2.4377 
         900            3 -0.000181619  2.17262e-05     -2.43769 
         950            0            0            0     -1.21947 
         950     0.013333 -9.17254e-05  -3.6071e-08     -1.21947 
         950     0.053333 -0.000388815 -6.69923e-07     -1.21947 
         950         0.12 -0.000722302 -3.92035e-06     -1.21947 
         950     0.213332   -0.0009197 -1.34948e-05     -1.21947 
         950     0.333332 -0.000910122 -3.32078e-05     -1.21947 
         950         0.48 -0.000756137 -6.45633e-05     -1.21947 
         950     0.653331 -0.000579161 -0.000106058     -1.21947 
         950     0.853332 -0.000461637 -0.000154636     -1.21947 
         950         1.08 -0.000410683 -0.000207136     -1.21947 
         950      1.33333 -0.000380877 -0.000260532     -1.21947 
         950      1.61333 -0.000331942 -0.000312149     -1.21947 
         950         1.92 -0.000259383 -0.000360559     -1.21947 
         950      2.25333 -0.000179223 -0.000404497     -1.21947 
         950      2.61333 -9.81238e-05 -0.000441397     -1.21946 
         950            3  -1.5353e-05 -0.000469695     -1.21946 
        1000            0            0            0            0 
        1000     0.013333  -9.0726e-05  4.52236e-06           -0 
        1000     0.053333 -0.000403306  1.98054e-05           -0 
        1000         0.12 -0.000701286  6.04352e-05 -1.01292e-16 
        1000     0.213332 -0.000927078  0.000232275 -1.20104e-15 
        1000     0.333332  -0.00108136  0.000869296 -6.62336e-16 
        1000         0.48    0.0012084   0.00123309           -0 
        1000     0.653331  0.000769684   0.00120291            0 
        1000     0.853332   0.00131036   0.00202429            0 
        1000         1.08   0.00301241   0.00250234            0 
        1000      1.33333   0.00931527   0.00194155 -8.06944e-16 
        1000      1.61333    0.0037183 -0.000720341           -0 
        1000         1.92   0.00263525 -0.000297724 -1.46037e-15 
        1000      2.25333   0.00325214 -9.05499e-05 -1.63246e-15 
        1000      2.61333   0.00487122  -0.00140056           -0 
        1000            3   0.00144573  -0.00160512 -1.45581e-15 
