Variables = x, y, u, v, p

Zone, I=2080, F=POINT
         -50            0            0            0      23.3363 
         -50      0.00048  3.98657e-07  1.91491e-09      23.3363 
         -50     0.001922  4.69881e-07  6.98951e-09      23.3363 
         -50     0.004326 -2.39632e-06   1.3543e-08      23.3363 
         -50      0.00769 -1.04018e-05  1.97833e-08      23.3363 
         -50     0.012017 -2.34737e-05  2.47992e-08      23.3363 
         -50     0.017304 -3.86333e-05  2.90597e-08      23.3363 
         -50     0.023553 -5.14399e-05  3.41053e-08      23.3363 
         -50     0.030763 -5.89584e-05  4.14039e-08      23.3363 
         -50     0.038936 -6.24533e-05  5.09857e-08      23.3363 
         -50     0.048069 -6.69904e-05  6.08205e-08      23.3363 
         -50     0.058163 -7.62162e-05  6.78228e-08      23.3363 
         -50     0.069219 -8.54204e-05  6.99551e-08      23.3363 
         -50     0.081236 -8.74077e-05  6.55453e-08      23.3363 
         -50     0.094215 -9.81056e-05     4.65e-08      23.3363 
         -50     0.108155 -0.000102746  1.19588e-08      23.3363 
         -50     0.123056  -0.00010869 -4.43328e-08      23.3363 
         -50     0.138918 -0.000114261   -1.267e-07      23.3363 
         -50     0.155744 -0.000118787 -2.39422e-07      23.3363 
         -50     0.173529 -0.000122404 -3.86399e-07      23.3363 
         -50     0.192276 -0.000125564 -5.70984e-07      23.3363 
         -50     0.211984  -0.00012844 -7.95662e-07      23.3363 
         -50     0.232655 -0.000130631 -1.06198e-06      23.3363 
         -50     0.254285 -0.000131939 -1.37056e-06      23.3363 
         -50     0.276877 -0.000133481 -1.72158e-06      23.3363 
         -50     0.300431 -0.000134367  -2.1138e-06      23.3363 
         -50     0.324946 -0.000135112 -2.54493e-06      23.3362 
         -50     0.350424 -0.000135728 -3.01219e-06      23.3362 
         -50     0.376861 -0.000136241 -3.51225e-06      23.3362 
         -50      0.40426 -0.000136685  -4.0414e-06      23.3362 
         -50     0.432621 -0.000137087 -4.59534e-06      23.3362 
         -50     0.461945 -0.000137456 -5.16927e-06      23.3362 
         -50     0.492228 -0.000137773 -5.75771e-06      23.3362 
         -50     0.523472 -0.000137986 -6.35479e-06      23.3362 
         -50     0.555678 -0.000138015 -6.95419e-06      23.3362 
         -50     0.588845 -0.000137779 -7.54945e-06      23.3362 
         -50     0.622976 -0.000137239 -8.13481e-06      23.3361 
         -50     0.658066 -0.000136268 -8.70222e-06      23.3361 
         -50     0.694117 -0.000134819 -9.23871e-06      23.3361 
         -50      0.73113 -0.000132837 -9.74308e-06      23.3361 
         -50     0.769107 -0.000130292 -1.02136e-05      23.3361 
         -50     0.808042 -0.000127186 -1.06484e-05       23.336 
         -50     0.847939 -0.000123543 -1.10458e-05       23.336 
         -50     0.888797 -0.000119415 -1.14048e-05       23.336 
         -50      0.93062 -0.000114868 -1.17255e-05       23.336 
         -50       0.9734 -0.000109988 -1.20092e-05      23.3359 
         -50      1.01714 -0.000104864 -1.22589e-05      23.3359 
         -50      1.06185 -9.95866e-05 -1.24793e-05      23.3359 
         -50      1.10751 -9.42393e-05 -1.26756e-05      23.3358 
         -50      1.15414 -8.88893e-05 -1.28538e-05      23.3358 
         -50      1.20173  -8.3583e-05 -1.30179e-05      23.3357 
         -50      1.25028 -7.83389e-05 -1.31682e-05      23.3357 
         -50      1.29979 -7.31469e-05 -1.32973e-05      23.3356 
         -50      1.35026 -6.81587e-05  -1.3448e-05      23.3356 
         -50       1.4017 -6.34401e-05 -1.35776e-05      23.3355 
         -50      1.45409  -5.8734e-05 -1.36072e-05      23.3355 
         -50      1.50745 -5.41158e-05 -1.35863e-05      23.3354 
         -50      1.56176 -4.96708e-05 -1.35514e-05      23.3353 
         -50      1.61705 -4.54885e-05  -1.3527e-05      23.3353 
         -50      1.67329 -4.16597e-05 -1.35271e-05      23.3352 
         -50      1.73049 -3.82685e-05 -1.35571e-05      23.3351 
         -50      1.78865 -3.53885e-05 -1.36155e-05      23.3351 
         -50      1.84778 -3.30764e-05 -1.36969e-05       23.335 
         -50      1.90786 -3.13674e-05 -1.37935e-05      23.3349 
         -50      1.96891 -3.02694e-05 -1.38976e-05      23.3348 
         -50      2.03092 -2.97599e-05 -1.40032e-05      23.3347 
         -50      2.09389 -2.97835e-05 -1.41072e-05      23.3346 
         -50      2.15782 -3.02518e-05 -1.42096e-05      23.3345 
         -50      2.22272 -3.10455e-05 -1.43123e-05      23.3344 
         -50      2.28857 -3.20205e-05 -1.44169e-05      23.3343 
         -50      2.35539 -3.30175e-05 -1.45195e-05      23.3342 
         -50      2.42317 -3.38773e-05 -1.46035e-05       23.334 
         -50      2.49191 -3.44616e-05 -1.46292e-05      23.3339 
         -50      2.56161 -3.46828e-05  -1.4519e-05      23.3338 
         -50      2.63226 -3.45402e-05 -1.41386e-05      23.3336 
         -50      2.70389 -3.41685e-05 -1.32722e-05      23.3335 
         -50      2.77648 -3.37378e-05 -1.21258e-05      23.3333 
         -50      2.85002 -3.27785e-05  -1.0873e-05      23.3332 
         -50      2.92453 -3.15082e-05 -8.90824e-06       23.333 
         -50            3  -3.0149e-05 -6.54018e-06      23.3328 
         -25            0   9.0471e-21  7.93522e-24      22.3905 
         -25      0.00048   8.0629e-07  7.31058e-10      22.3905 
         -25     0.001922  2.40182e-06     2.44e-09      22.3905 
         -25     0.004326  2.86726e-06  3.82438e-09      22.3905 
         -25      0.00769  5.67562e-07    3.181e-09      22.3905 
         -25     0.012017 -4.48026e-06 -1.11226e-09      22.3905 
         -25     0.017304 -1.01601e-05 -1.02618e-08      22.3905 
         -25     0.023553 -1.32995e-05 -2.50487e-08      22.3905 
         -25     0.030763 -1.18436e-05 -4.61116e-08      22.3905 
         -25     0.038936  -6.8152e-06 -7.43533e-08      22.3905 
         -25     0.048069 -2.03146e-06 -1.11028e-07      22.3905 
         -25     0.058163  -2.8592e-07 -1.57285e-07      22.3905 
         -25     0.069219  1.71105e-06  -2.1327e-07      22.3905 
         -25     0.081236  9.05556e-06 -2.78361e-07      22.3905 
         -25     0.094215  9.98317e-06 -3.53878e-07      22.3905 
         -25     0.108155  1.51182e-05 -4.37764e-07      22.3905 
         -25     0.123056   1.8966e-05 -5.29671e-07      22.3905 
         -25     0.138918  2.26382e-05  -6.2821e-07      22.3905 
         -25     0.155744  2.65394e-05 -7.31827e-07      22.3905 
         -25     0.173529  3.05092e-05 -8.38802e-07      22.3905 
         -25     0.192276   3.4185e-05 -9.47395e-07      22.3905 
         -25     0.211984  3.74349e-05 -1.05582e-06      22.3905 
         -25     0.232655  4.05672e-05 -1.16235e-06      22.3905 
         -25     0.254285  4.37628e-05 -1.26542e-06      22.3905 
         -25     0.276877   4.6259e-05 -1.36363e-06      22.3905 
         -25     0.300431  4.87646e-05 -1.45591e-06      22.3905 
         -25     0.324946  5.09668e-05 -1.54167e-06      22.3905 
         -25     0.350424  5.29171e-05 -1.62039e-06      22.3905 
         -25     0.376861   5.4646e-05 -1.69191e-06      22.3905 
         -25      0.40426  5.61662e-05 -1.75654e-06      22.3905 
         -25     0.432621  5.74764e-05 -1.81496e-06      22.3905 
         -25     0.461945  5.85677e-05 -1.86829e-06      22.3905 
         -25     0.492228  5.94303e-05 -1.91797e-06      22.3905 
         -25     0.523472  6.00579e-05 -1.96571e-06      22.3905 
         -25     0.555678  6.04448e-05 -2.01337e-06      22.3905 
         -25     0.588845  6.05733e-05 -2.06278e-06      22.3905 
         -25     0.622976  6.03851e-05 -2.11547e-06      22.3905 
         -25     0.658066  5.98915e-05 -2.17426e-06      22.3905 
         -25     0.694117  5.90579e-05 -2.24361e-06      22.3905 
         -25      0.73113  5.78621e-05 -2.32322e-06      22.3904 
         -25     0.769107  5.62947e-05 -2.41353e-06      22.3904 
         -25     0.808042  5.43596e-05 -2.51545e-06      22.3904 
         -25     0.847939  5.20722e-05  -2.6301e-06      22.3904 
         -25     0.888797  4.94579e-05 -2.75841e-06      22.3904 
         -25      0.93062  4.65503e-05 -2.90074e-06      22.3904 
         -25       0.9734  4.33889e-05 -3.05656e-06      22.3904 
         -25      1.01714  4.00151e-05 -3.22425e-06      22.3904 
         -25      1.06185  3.64707e-05 -3.40095e-06      22.3904 
         -25      1.10751  3.27942e-05 -3.58282e-06      22.3903 
         -25      1.15414  2.90198e-05 -3.76556e-06      22.3903 
         -25      1.20173  2.51773e-05 -3.94544e-06      22.3903 
         -25      1.25028   2.1292e-05 -4.12113e-06      22.3903 
         -25      1.29979    1.739e-05 -4.29627e-06      22.3903 
         -25      1.35026   1.3392e-05 -4.49913e-06      22.3903 
         -25       1.4017   9.1065e-06 -4.66985e-06      22.3902 
         -25      1.45409  4.75977e-06 -4.78257e-06      22.3902 
         -25      1.50745  4.81401e-07 -4.86998e-06      22.3902 
         -25      1.56176 -3.61532e-06  -4.9523e-06      22.3902 
         -25      1.61705 -7.43428e-06 -5.03847e-06      22.3901 
         -25      1.67329 -1.08951e-05 -5.12776e-06      22.3901 
         -25      1.73049 -1.39347e-05 -5.21182e-06      22.3901 
         -25      1.78865 -1.65055e-05 -5.27711e-06        22.39 
         -25      1.84778  -1.8575e-05 -5.30755e-06        22.39 
         -25      1.90786 -2.01242e-05 -5.28746e-06        22.39 
         -25      1.96891 -2.11484e-05  -5.2046e-06      22.3899 
         -25      2.03092 -2.16556e-05  -5.0531e-06      22.3899 
         -25      2.09389 -2.16667e-05 -4.83622e-06      22.3899 
         -25      2.15782 -2.12166e-05 -4.56879e-06      22.3898 
         -25      2.22272 -2.03556e-05 -4.27875e-06      22.3898 
         -25      2.28857 -1.91528e-05 -4.00796e-06      22.3897 
         -25      2.35539  -1.7701e-05 -3.81158e-06      22.3897 
         -25      2.42317 -1.61235e-05 -3.75588e-06      22.3896 
         -25      2.49191  -1.4585e-05 -3.91386e-06      22.3896 
         -25      2.56161 -1.33036e-05 -4.35824e-06      22.3895 
         -25      2.63226 -1.25689e-05  -5.1513e-06      22.3895 
         -25      2.70389 -1.27644e-05  -6.3311e-06      22.3894 
         -25      2.77648  -1.3804e-05 -8.04671e-06      22.3894 
         -25      2.85002 -1.53306e-05 -9.74271e-06      22.3893 
         -25      2.92453 -1.71348e-05 -1.14436e-05      22.3892 
         -25            3 -1.89083e-05 -1.31997e-05      22.3892 
           0            0  9.45987e-21  3.81824e-24      21.6474 
           0      0.00048  8.57954e-07  3.64803e-10      21.6474 
           0     0.001922  2.73288e-06  1.38367e-09      21.6474 
           0     0.004326  3.98741e-06  2.90694e-09      21.6474 
           0      0.00769  3.20324e-06   4.9225e-09      21.6474 
           0     0.012017  3.31052e-07  7.81059e-09      21.6474 
           0     0.017304 -2.93669e-06  1.25167e-08      21.6474 
           0     0.023553 -4.03346e-06  2.05866e-08      21.6474 
           0     0.030763  -1.3395e-06  3.40303e-08      21.6474 
           0     0.038936  4.18138e-06  5.51408e-08      21.6474 
           0     0.048069  9.22302e-06  8.63997e-08      21.6474 
           0     0.058163  1.13437e-05  1.30689e-07      21.6474 
           0     0.069219  1.32107e-05  1.91647e-07      21.6474 
           0     0.081236  1.90193e-05  2.73441e-07      21.6474 
           0     0.094215  1.88511e-05   3.7939e-07      21.6474 
           0     0.108155  2.15757e-05  5.14327e-07      21.6474 
           0     0.123056  2.25735e-05  6.82083e-07      21.6474 
           0     0.138918  2.27862e-05  8.86637e-07      21.6474 
           0     0.155744  2.25841e-05  1.13161e-06      21.6474 
           0     0.173529  2.18865e-05  1.41997e-06      21.6474 
           0     0.192276  2.04593e-05  1.75418e-06      21.6474 
           0     0.211984  1.82772e-05  2.13592e-06      21.6474 
           0     0.232655  1.56932e-05  2.56622e-06      21.6474 
           0     0.254285  1.29607e-05  3.04513e-06      21.6474 
           0     0.276877  9.54178e-06  3.57206e-06      21.6474 
           0     0.300431  6.13184e-06  4.14591e-06      21.6474 
           0     0.324946  2.56294e-06  4.76471e-06      21.6474 
           0     0.350424 -1.03547e-06  5.42614e-06      21.6474 
           0     0.376861 -4.55855e-06  6.12742e-06      21.6474 
           0      0.40426 -7.92762e-06  6.86568e-06      21.6474 
           0     0.432621 -1.10856e-05  7.63777e-06      21.6474 
           0     0.461945 -1.39918e-05  8.44046e-06      21.6474 
           0     0.492228 -1.66153e-05   9.2703e-06      21.6474 
           0     0.523472 -1.89309e-05   1.0124e-05      21.6474 
           0     0.555678  -2.0919e-05  1.09982e-05      21.6474 
           0     0.588845 -2.25766e-05  1.18898e-05      21.6474 
           0     0.622976  -2.3943e-05  1.27959e-05      21.6474 
           0     0.658066 -2.50045e-05  1.37129e-05      21.6474 
           0     0.694117 -2.58038e-05  1.46338e-05      21.6474 
           0      0.73113 -2.63719e-05  1.55581e-05      21.6473 
           0     0.769107 -2.67435e-05  1.64838e-05      21.6473 
           0     0.808042 -2.69551e-05  1.74075e-05      21.6473 
           0     0.847939 -2.70431e-05  1.83254e-05      21.6473 
           0     0.888797 -2.70417e-05  1.92331e-05      21.6473 
           0      0.93062 -2.69816e-05  2.01262e-05      21.6473 
           0       0.9734 -2.68877e-05  2.10009e-05      21.6473 
           0      1.01714  -2.6779e-05  2.18543e-05      21.6473 
           0      1.06185 -2.66684e-05  2.26842e-05      21.6473 
           0      1.10751 -2.65643e-05  2.34894e-05      21.6473 
           0      1.15414 -2.64742e-05  2.42692e-05      21.6473 
           0      1.20173 -2.64109e-05  2.50216e-05      21.6473 
           0      1.25028 -2.64019e-05  2.57421e-05      21.6473 
           0      1.29979 -2.65031e-05  2.64202e-05      21.6473 
           0      1.35026 -2.65919e-05  2.70792e-05      21.6473 
           0       1.4017 -2.63147e-05  2.77124e-05      21.6472 
           0      1.45409 -2.59146e-05  2.82634e-05      21.6472 
           0      1.50745 -2.54155e-05   2.8752e-05      21.6472 
           0      1.56176 -2.48444e-05  2.91908e-05      21.6472 
           0      1.61705 -2.42314e-05  2.95863e-05      21.6472 
           0      1.67329 -2.36093e-05  2.99393e-05      21.6472 
           0      1.73049 -2.30125e-05   3.0246e-05      21.6472 
           0      1.78865  -2.2477e-05  3.04997e-05      21.6472 
           0      1.84778  -2.2039e-05  3.06919e-05      21.6471 
           0      1.90786 -2.17335e-05  3.08141e-05      21.6471 
           0      1.96891 -2.15933e-05  3.08591e-05      21.6471 
           0      2.03092 -2.16465e-05  3.08229e-05      21.6471 
           0      2.09389 -2.19143e-05  3.07062e-05      21.6471 
           0      2.15782 -2.24087e-05  3.05155e-05       21.647 
           0      2.22272 -2.31285e-05   3.0264e-05       21.647 
           0      2.28857 -2.40559e-05  2.99719e-05       21.647 
           0      2.35539 -2.51518e-05  2.96663e-05       21.647 
           0      2.42317 -2.63506e-05  2.93795e-05       21.647 
           0      2.49191 -2.75537e-05  2.91466e-05      21.6469 
           0      2.56161  -2.8623e-05  2.90018e-05      21.6469 
           0      2.63226 -2.93724e-05  2.89723e-05      21.6469 
           0      2.70389  -2.9559e-05  2.90706e-05      21.6469 
           0      2.77648 -2.91725e-05  2.94102e-05      21.6468 
           0      2.85002 -2.85371e-05  3.00521e-05      21.6468 
           0      2.92453 -2.74931e-05  3.07003e-05      21.6468 
           0            3  -2.6291e-05  3.12881e-05      21.6467 
          20            0  1.23728e-20  2.28338e-24      21.1239 
          20      0.00048  1.14689e-06   2.1524e-10      21.1239 
          20     0.001922  3.94414e-06   7.8226e-10      21.1239 
          20     0.004326  6.87815e-06  1.52277e-09      21.1239 
          20      0.00769  8.62621e-06  2.32013e-09      21.1239 
          20     0.012017  9.11552e-06  3.32443e-09      21.1239 
          20     0.017304  9.85658e-06  5.12464e-09      21.1239 
          20     0.023553  1.31552e-05  8.84254e-09      21.1239 
          20     0.030763  2.04375e-05   1.6127e-08      21.1239 
          20     0.038936   3.0754e-05  2.91113e-08      21.1239 
          20     0.048069   4.0997e-05  5.04096e-08      21.1239 
          20     0.058163  4.88494e-05  8.32748e-08      21.1239 
          20     0.069219  5.66753e-05  1.31821e-07      21.1239 
          20     0.081236  6.82348e-05  2.00871e-07      21.1239 
          20     0.094215  7.43437e-05  2.95091e-07      21.1239 
          20     0.108155  8.30524e-05  4.20341e-07      21.1239 
          20     0.123056  9.00417e-05  5.82084e-07      21.1239 
          20     0.138918  9.61013e-05  7.85988e-07      21.1239 
          20     0.155744  0.000101507  1.03755e-06      21.1239 
          20     0.173529  0.000106129  1.34177e-06      21.1239 
          20     0.192276  0.000109713  1.70321e-06      21.1239 
          20     0.211984  0.000112205  2.12572e-06      21.1239 
          20     0.232655  0.000113917   2.6125e-06      21.1239 
          20     0.254285  0.000115077  3.16578e-06      21.1239 
          20     0.276877  0.000115203  3.78705e-06      21.1239 
          20     0.300431  0.000114954  4.47738e-06      21.1239 
          20     0.324946  0.000114207  5.23649e-06      21.1239 
          20     0.350424  0.000113118   6.0636e-06      21.1239 
          20     0.376861  0.000111825  6.95724e-06      21.1239 
          20      0.40426  0.000110442  7.91566e-06      21.1239 
          20     0.432621  0.000109064   8.9364e-06      21.1239 
          20     0.461945  0.000107763  1.00164e-05      21.1239 
          20     0.492228  0.000106594  1.11515e-05      21.1239 
          20     0.523472  0.000105594  1.23372e-05      21.1239 
          20     0.555678  0.000104783  1.35683e-05      21.1239 
          20     0.588845  0.000104146  1.48391e-05      21.1239 
          20     0.622976  0.000103616  1.61447e-05      21.1239 
          20     0.658066  0.000103158  1.74762e-05      21.1239 
          20     0.694117  0.000102688   1.8823e-05      21.1239 
          20      0.73113  0.000102096  2.01795e-05      21.1239 
          20     0.769107   0.00010128  2.15384e-05      21.1239 
          20     0.808042   0.00010015  2.28915e-05      21.1239 
          20     0.847939  9.86333e-05  2.42305e-05      21.1239 
          20     0.888797  9.66771e-05  2.55471e-05      21.1239 
          20      0.93062  9.42533e-05  2.68343e-05      21.1238 
          20       0.9734  9.13603e-05  2.80862e-05      21.1238 
          20      1.01714  8.80208e-05  2.92992e-05      21.1238 
          20      1.06185  8.42797e-05  3.04715e-05      21.1238 
          20      1.10751   8.0196e-05  3.16032e-05      21.1238 
          20      1.15414  7.58298e-05  3.26953e-05      21.1238 
          20      1.20173  7.12252e-05  3.37472e-05      21.1238 
          20      1.25028  6.63809e-05  3.47548e-05      21.1238 
          20      1.29979  6.12147e-05  3.57055e-05      21.1238 
          20      1.35026  5.58114e-05  3.66118e-05      21.1238 
          20       1.4017  5.05247e-05  3.75041e-05      21.1238 
          20      1.45409  4.50439e-05  3.83239e-05      21.1238 
          20      1.50745  3.93814e-05  3.90632e-05      21.1238 
          20      1.56176  3.35566e-05  3.97166e-05      21.1238 
          20      1.61705  2.75956e-05  4.02815e-05      21.1238 
          20      1.67329  2.15331e-05  4.07575e-05      21.1238 
          20      1.73049  1.54101e-05  4.11466e-05      21.1238 
          20      1.78865  9.27524e-06  4.14526e-05      21.1237 
          20      1.84778  3.18387e-06   4.1681e-05      21.1237 
          20      1.90786 -2.80054e-06  4.18385e-05      21.1237 
          20      1.96891 -8.61021e-06  4.19325e-05      21.1237 
          20      2.03092 -1.41716e-05   4.1971e-05      21.1237 
          20      2.09389 -1.94078e-05  4.19619e-05      21.1237 
          20      2.15782 -2.42382e-05  4.19129e-05      21.1237 
          20      2.22272  -2.8583e-05   4.1831e-05      21.1237 
          20      2.28857 -3.23631e-05  4.17227e-05      21.1237 
          20      2.35539 -3.55041e-05  4.15939e-05      21.1236 
          20      2.42317 -3.79384e-05    4.145e-05      21.1236 
          20      2.49191 -3.96084e-05  4.12967e-05      21.1236 
          20      2.56161 -4.04715e-05  4.11411e-05      21.1236 
          20      2.63226 -4.05039e-05  4.09925e-05      21.1236 
          20      2.70389 -3.97056e-05   4.0865e-05      21.1236 
          20      2.77648 -3.83065e-05  4.07838e-05      21.1235 
          20      2.85002 -3.65403e-05  4.09587e-05      21.1235 
          20      2.92453 -3.43534e-05  4.08485e-05      21.1235 
          20            3 -3.21907e-05  4.07714e-05      21.1235 
          40            0  6.49496e-21   1.4147e-24      20.6358 
          40      0.00048  5.78261e-07  1.22862e-10      20.6358 
          40     0.001922  1.71565e-06  3.16094e-10      20.6358 
          40     0.004326  2.01973e-06  8.68193e-11      20.6358 
          40      0.00769   3.0462e-07 -1.28078e-09      20.6358 
          40     0.012017 -3.41669e-06 -4.61164e-09      20.6358 
          40     0.017304 -7.60845e-06 -1.07362e-08      20.6358 
          40     0.023553 -9.96982e-06 -2.04495e-08      20.6358 
          40     0.030763 -9.01327e-06 -3.45089e-08      20.6358 
          40     0.038936 -5.48673e-06 -5.36665e-08      20.6358 
          40     0.048069 -2.16621e-06 -7.86316e-08      20.6358 
          40     0.058163  -1.0818e-06  -1.0997e-07      20.6358 
          40     0.069219  1.56484e-07 -1.47915e-07      20.6358 
          40     0.081236  5.24923e-06 -1.92396e-07      20.6358 
          40     0.094215  5.64987e-06 -2.43533e-07      20.6358 
          40     0.108155  9.08176e-06 -3.00673e-07      20.6358 
          40     0.123056  1.15544e-05 -3.63363e-07      20.6358 
          40     0.138918  1.38807e-05 -4.30861e-07      20.6358 
          40     0.155744  1.63597e-05 -5.02333e-07      20.6358 
          40     0.173529  1.88808e-05 -5.76865e-07      20.6358 
          40     0.192276  2.11857e-05 -6.53581e-07      20.6358 
          40     0.211984  2.31834e-05 -7.31639e-07      20.6358 
          40     0.232655  2.51022e-05 -8.10291e-07      20.6358 
          40     0.254285  2.70764e-05 -8.88858e-07      20.6358 
          40     0.276877  2.85532e-05 -9.66726e-07      20.6358 
          40     0.300431  3.00489e-05 -1.04387e-06      20.6358 
          40     0.324946  3.13356e-05 -1.12013e-06      20.6358 
          40     0.350424  3.24498e-05 -1.19542e-06      20.6358 
          40     0.376861  3.34125e-05 -1.26994e-06      20.6358 
          40      0.40426   3.4232e-05 -1.34418e-06      20.6358 
          40     0.432621  3.49071e-05 -1.41884e-06      20.6358 
          40     0.461945  3.54316e-05 -1.49474e-06      20.6358 
          40     0.492228  3.57997e-05  -1.5728e-06      20.6358 
          40     0.523472  3.60089e-05 -1.65403e-06      20.6358 
          40     0.555678  3.60585e-05 -1.73965e-06      20.6358 
          40     0.588845  3.59393e-05 -1.83132e-06      20.6358 
          40     0.622976  3.56123e-05 -1.93184e-06      20.6358 
          40     0.658066  3.50911e-05 -2.04212e-06      20.6358 
          40     0.694117  3.43498e-05 -2.16083e-06      20.6358 
          40      0.73113  3.33725e-05 -2.29168e-06      20.6358 
          40     0.769107  3.21519e-05 -2.43725e-06      20.6358 
          40     0.808042  3.06899e-05 -2.59902e-06      20.6358 
          40     0.847939  2.89984e-05 -2.77755e-06      20.6358 
          40     0.888797  2.71005e-05 -2.97263e-06      20.6358 
          40      0.93062  2.50294e-05 -3.18352e-06      20.6358 
          40       0.9734  2.28296e-05 -3.40909e-06      20.6358 
          40      1.01714  2.05531e-05  -3.6481e-06      20.6358 
          40      1.06185  1.82588e-05 -3.89915e-06      20.6358 
          40      1.10751  1.60073e-05 -4.16067e-06      20.6358 
          40      1.15414  1.38564e-05 -4.43057e-06      20.6358 
          40      1.20173  1.18534e-05 -4.70548e-06      20.6358 
          40      1.25028  1.00251e-05 -4.97972e-06      20.6358 
          40      1.29979  8.36611e-06 -5.24348e-06      20.6358 
          40      1.35026  6.84262e-06 -5.48912e-06      20.6358 
          40       1.4017  5.22823e-06 -5.74903e-06      20.6358 
          40      1.45409  3.46866e-06 -6.01619e-06      20.6358 
          40      1.50745  1.63124e-06 -6.28089e-06      20.6358 
          40      1.56176 -2.27304e-07 -6.53701e-06      20.6358 
          40      1.61705 -2.06103e-06 -6.78156e-06      20.6358 
          40      1.67329 -3.83383e-06 -7.01394e-06      20.6358 
          40      1.73049 -5.51968e-06 -7.23536e-06      20.6357 
          40      1.78865 -7.10115e-06 -7.44801e-06      20.6357 
          40      1.84778 -8.56844e-06 -7.65427e-06      20.6357 
          40      1.90786 -9.91758e-06 -7.85593e-06      20.6357 
          40      1.96891 -1.11496e-05 -8.05365e-06      20.6357 
          40      2.03092 -1.22684e-05 -8.24644e-06      20.6357 
          40      2.09389 -1.32793e-05  -8.4315e-06      20.6357 
          40      2.15782 -1.41871e-05 -8.60438e-06      20.6357 
          40      2.22272 -1.49957e-05 -8.75978e-06      20.6357 
          40      2.28857 -1.57063e-05 -8.89289e-06      20.6357 
          40      2.35539 -1.63177e-05 -9.00162e-06      20.6357 
          40      2.42317 -1.68266e-05  -9.0898e-06      20.6357 
          40      2.49191 -1.72294e-05 -9.17168e-06      20.6357 
          40      2.56161 -1.75248e-05 -9.27789e-06      20.6356 
          40      2.63226  -1.7719e-05 -9.46316e-06      20.6356 
          40      2.70389  -1.7832e-05 -9.81614e-06      20.6356 
          40      2.77648 -1.77718e-05 -1.03126e-05      20.6356 
          40      2.85002 -1.81409e-05  -1.0878e-05      20.6356 
          40      2.92453 -1.93407e-05 -1.17298e-05      20.6356 
          40            3 -2.11604e-05 -1.28091e-05      20.6356 
          60            0            0            0      20.1697 
          60      0.00048  5.25047e-07  7.25226e-11      20.1697 
          60     0.001922  1.52698e-06   1.1653e-10      20.1697 
          60     0.004326  1.67154e-06 -3.68037e-10      20.1697 
          60      0.00769 -1.72189e-07 -2.14756e-09      20.1697 
          60     0.012017 -3.97692e-06 -6.18382e-09      20.1697 
          60     0.017304 -8.24546e-06 -1.35613e-08      20.1697 
          60     0.023553 -1.07423e-05 -2.54576e-08      20.1697 
          60     0.030763 -1.00146e-05 -4.31219e-08      20.1697 
          60     0.038936 -6.76382e-06 -6.78788e-08      20.1697 
          60     0.048069 -3.64623e-06 -1.01059e-07      20.1697 
          60     0.058163 -2.60172e-06 -1.43908e-07      20.1697 
          60     0.069219 -1.31517e-06 -1.97414e-07      20.1697 
          60     0.081236  3.78568e-06 -2.62263e-07      20.1697 
          60     0.094215  4.46732e-06 -3.39103e-07      20.1697 
          60     0.108155  8.16687e-06 -4.27898e-07      20.1697 
          60     0.123056  1.10272e-05 -5.28458e-07      20.1697 
          60     0.138918  1.38139e-05 -6.40134e-07      20.1697 
          60     0.155744  1.67923e-05 -7.61938e-07      20.1697 
          60     0.173529  1.98287e-05 -8.92495e-07      20.1697 
          60     0.192276  2.26454e-05 -1.03019e-06      20.1697 
          60     0.211984  2.51258e-05 -1.17315e-06      20.1697 
          60     0.232655  2.74628e-05 -1.31936e-06      20.1697 
          60     0.254285  2.97628e-05  -1.4667e-06      20.1697 
          60     0.276877  3.14755e-05 -1.61317e-06      20.1697 
          60     0.300431  3.30865e-05 -1.75659e-06      20.1697 
          60     0.324946  3.43725e-05 -1.89518e-06      20.1697 
          60     0.350424   3.5372e-05  -2.0274e-06      20.1697 
          60     0.376861  3.61153e-05 -2.15181e-06      20.1697 
          60      0.40426  3.66266e-05 -2.26721e-06      20.1697 
          60     0.432621  3.69265e-05  -2.3727e-06      20.1697 
          60     0.461945  3.70353e-05 -2.46771e-06      20.1697 
          60     0.492228  3.69764e-05 -2.55202e-06      20.1697 
          60     0.523472  3.67778e-05 -2.62572e-06      20.1697 
          60     0.555678  3.64685e-05 -2.68907e-06      20.1697 
          60     0.588845  3.60684e-05 -2.74223e-06      20.1697 
          60     0.622976  3.55674e-05 -2.78487e-06      20.1697 
          60     0.658066  3.50009e-05 -2.81878e-06      20.1697 
          60     0.694117  3.43585e-05 -2.84526e-06      20.1697 
          60      0.73113  3.36405e-05 -2.86388e-06      20.1697 
          60     0.769107  3.28448e-05 -2.87478e-06      20.1697 
          60     0.808042   3.1967e-05 -2.87851e-06      20.1697 
          60     0.847939  3.10014e-05 -2.87593e-06      20.1697 
          60     0.888797  2.99419e-05 -2.86797e-06      20.1697 
          60      0.93062  2.87833e-05  -2.8555e-06      20.1697 
          60       0.9734  2.75226e-05 -2.83917e-06      20.1697 
          60      1.01714  2.61594e-05 -2.81921e-06      20.1697 
          60      1.06185  2.46974e-05 -2.79545e-06      20.1697 
          60      1.10751  2.31445e-05 -2.76735e-06      20.1697 
          60      1.15414  2.15122e-05 -2.73427e-06      20.1697 
          60      1.20173  1.98149e-05 -2.69596e-06      20.1697 
          60      1.25028  1.80661e-05 -2.65339e-06      20.1697 
          60      1.29979  1.62744e-05    -2.61e-06      20.1697 