Variables = x, y, u, v, p

Zone, I=2080, F=POINT
         -50            0            0            0     -42.6502 
         -50      0.00048 -1.37432e-05 -3.40951e-09     -42.6502 
         -50     0.001922 -4.83745e-05  -1.2444e-08     -42.6502 
         -50     0.004326    -8.74e-05 -2.38945e-08     -42.6502 
         -50      0.00769 -0.000113243 -3.36221e-08     -42.6502 
         -50     0.012017 -0.000116837 -3.78238e-08     -42.6502 
         -50     0.017304 -0.000102534 -3.38314e-08     -42.6502 
         -50     0.023553 -8.49866e-05 -2.01054e-08     -42.6502 
         -50     0.030763 -7.85355e-05  4.64632e-09     -42.6502 
         -50     0.038936 -8.53486e-05  4.26669e-08     -42.6502 
         -50     0.048069 -9.25012e-05  9.76326e-08     -42.6502 
         -50     0.058163 -8.61763e-05  1.73706e-07     -42.6502 
         -50     0.069219 -7.62973e-05  2.73591e-07     -42.6502 
         -50     0.081236 -8.82156e-05  3.99706e-07     -42.6502 
         -50     0.094215 -7.99349e-05  5.59955e-07     -42.6502 
         -50     0.108155 -8.32813e-05  7.50975e-07     -42.6502 
         -50     0.123056 -8.43169e-05  9.77849e-07     -42.6502 
         -50     0.138918 -8.55022e-05  1.24183e-06     -42.6502 
         -50     0.155744 -8.77645e-05   1.5439e-06     -42.6502 
         -50     0.173529 -9.08048e-05  1.88454e-06     -42.6502 
         -50     0.192276 -9.38656e-05  2.26399e-06     -42.6502 
         -50     0.211984  -9.6663e-05   2.6819e-06     -42.6502 
         -50     0.232655 -9.98402e-05  3.13753e-06     -42.6502 
         -50     0.254285  -0.00010377   3.6297e-06     -42.6502 
         -50     0.276877 -0.000106777  4.15786e-06     -42.6502 
         -50     0.300431 -0.000110276     4.72e-06     -42.6502 
         -50     0.324946 -0.000113556  5.31526e-06     -42.6502 
         -50     0.350424 -0.000116646  5.94302e-06     -42.6502 
         -50     0.376861 -0.000119539  6.60196e-06     -42.6501 
         -50      0.40426 -0.000122195   7.2906e-06     -42.6501 
         -50     0.432621 -0.000124559  8.00739e-06     -42.6501 
         -50     0.461945 -0.000126573   8.7511e-06     -42.6501 
         -50     0.492228 -0.000128196  9.52087e-06     -42.6501 
         -50     0.523472 -0.000129409  1.03165e-05       -42.65 
         -50     0.555678 -0.000130214  1.11376e-05       -42.65 
         -50     0.588845 -0.000130611  1.19829e-05       -42.65 
         -50     0.622976 -0.000130542  1.28472e-05       -42.65 
         -50     0.658066 -0.000130106  1.37297e-05     -42.6499 
         -50     0.694117 -0.000129265  1.46362e-05     -42.6499 
         -50      0.73113 -0.000128096  1.55548e-05     -42.6499 
         -50     0.769107 -0.000126678  1.64764e-05     -42.6498 
         -50     0.808042 -0.000125082  1.73944e-05     -42.6498 
         -50     0.847939 -0.000123376  1.83043e-05     -42.6497 
         -50     0.888797  -0.00012162  1.92024e-05     -42.6497 
         -50      0.93062 -0.000119861   2.0085e-05     -42.6496 
         -50       0.9734 -0.000118138  2.09478e-05     -42.6496 
         -50      1.01714 -0.000116475  2.17852e-05     -42.6495 
         -50      1.06185 -0.000114884  2.25902e-05     -42.6494 
         -50      1.10751 -0.000113371  2.33553e-05     -42.6494 
         -50      1.15414 -0.000111933  2.40744e-05     -42.6493 
         -50      1.20173 -0.000110572   2.4746e-05     -42.6492 
         -50      1.25028 -0.000109298  2.53793e-05     -42.6491 
         -50      1.29979 -0.000108148  2.60018e-05      -42.649 
         -50      1.35026 -0.000107221  2.65078e-05     -42.6489 
         -50       1.4017 -0.000106129  2.69043e-05     -42.6488 
         -50      1.45409 -0.000104765  2.73887e-05     -42.6487 
         -50      1.50745 -0.000103274   2.7871e-05     -42.6486 
         -50      1.56176 -0.000101775  2.82871e-05     -42.6485 
         -50      1.61705 -0.000100357  2.85974e-05     -42.6484 
         -50      1.67329 -9.90778e-05  2.87855e-05     -42.6482 
         -50      1.73049 -9.79606e-05  2.88554e-05     -42.6481 
         -50      1.78865 -9.69954e-05  2.88282e-05      -42.648 
         -50      1.84778  -9.6139e-05  2.87386e-05     -42.6478 
         -50      1.90786 -9.53179e-05  2.86297e-05     -42.6477 
         -50      1.96891 -9.44326e-05   2.8548e-05     -42.6475 
         -50      2.03092 -9.33648e-05   2.8538e-05     -42.6473 
         -50      2.09389  -9.1987e-05  2.86365e-05     -42.6471 
         -50      2.15782 -9.01755e-05  2.88664e-05     -42.6469 
         -50      2.22272 -8.78265e-05  2.92321e-05     -42.6467 
         -50      2.28857  -8.4877e-05  2.97138e-05     -42.6465 
         -50      2.35539 -8.13301e-05  3.02647e-05     -42.6463 
         -50      2.42317 -7.72857e-05  3.08083e-05     -42.6461 
         -50      2.49191 -7.29779e-05  3.12383e-05     -42.6458 
         -50      2.56161 -6.88175e-05  3.14216e-05     -42.6456 
         -50      2.63226 -6.54438e-05  3.12038e-05     -42.6453 
         -50      2.70389  -6.3784e-05  3.04196e-05     -42.6451 
         -50      2.77648 -6.44628e-05  2.87922e-05     -42.6448 
         -50      2.85002 -6.57253e-05  2.64743e-05     -42.6445 
         -50      2.92453  -6.7502e-05  2.38694e-05     -42.6442 
         -50            3 -6.95309e-05  2.10482e-05     -42.6439 
         -25            0 -1.07523e-19 -1.40748e-23     -40.9232 
         -25      0.00048 -1.00479e-05 -1.32491e-09     -40.9232 
         -25     0.001922 -3.53936e-05 -4.76355e-09     -40.9232 
         -25     0.004326 -6.40427e-05 -8.85642e-09     -40.9232 
         -25      0.00769 -8.32092e-05 -1.16546e-08     -40.9232 
         -25     0.012017 -8.62923e-05 -1.12276e-08     -40.9232 
         -25     0.017304 -7.64405e-05 -5.99927e-09     -40.9232 
         -25     0.023553 -6.42854e-05  5.23515e-09     -40.9232 
         -25     0.030763 -6.02301e-05   2.3622e-08     -40.9232 
         -25     0.038936 -6.58244e-05  5.06954e-08     -40.9232 
         -25     0.048069 -7.16453e-05  8.85275e-08     -40.9232 
         -25     0.058163 -6.76231e-05  1.39345e-07     -40.9232 
         -25     0.069219 -6.09502e-05   2.0474e-07     -40.9232 
         -25     0.081236 -7.00369e-05  2.86094e-07     -40.9232 
         -25     0.094215 -6.43325e-05  3.86813e-07     -40.9232 
         -25     0.108155 -6.69621e-05   5.0584e-07     -40.9232 
         -25     0.123056 -6.77817e-05  6.45195e-07     -40.9232 
         -25     0.138918 -6.85749e-05  8.05296e-07     -40.9232 
         -25     0.155744 -7.00147e-05  9.86392e-07     -40.9232 
         -25     0.173529 -7.18867e-05  1.18842e-06     -40.9232 
         -25     0.192276  -7.3647e-05  1.41112e-06     -40.9232 
         -25     0.211984    -7.51e-05  1.65391e-06     -40.9232 
         -25     0.232655 -7.67263e-05    1.916e-06     -40.9232 
         -25     0.254285 -7.88129e-05  2.19659e-06     -40.9232 
         -25     0.276877  -8.0159e-05  2.49503e-06     -40.9232 
         -25     0.300431 -8.18117e-05  2.80975e-06     -40.9232 
         -25     0.324946 -8.32719e-05  3.14043e-06     -40.9232 
         -25     0.350424 -8.45802e-05  3.48655e-06     -40.9232 
         -25     0.376861 -8.57485e-05  3.84737e-06     -40.9232 
         -25      0.40426 -8.67661e-05  4.22226e-06     -40.9232 
         -25     0.432621 -8.76085e-05  4.61071e-06     -40.9232 
         -25     0.461945 -8.82485e-05   5.0125e-06     -40.9232 
         -25     0.492228 -8.86669e-05  5.42761e-06     -40.9232 
         -25     0.523472 -8.88602e-05   5.8562e-06     -40.9231 
         -25     0.555678 -8.88377e-05  6.29803e-06     -40.9231 
         -25     0.588845 -8.86018e-05  6.75151e-06     -40.9231 
         -25     0.622976 -8.81079e-05  7.21306e-06     -40.9231 
         -25     0.658066  -8.7428e-05  7.69439e-06     -40.9231 
         -25     0.694117 -8.65458e-05  8.18499e-06     -40.9231 
         -25      0.73113 -8.54945e-05  8.68202e-06     -40.9231 
         -25     0.769107 -8.43128e-05  9.18321e-06     -40.9231 
         -25     0.808042 -8.30433e-05  9.68657e-06      -40.923 
         -25     0.847939 -8.17298e-05  1.01904e-05      -40.923 
         -25     0.888797 -8.04153e-05  1.06929e-05      -40.923 
         -25      0.93062 -7.91392e-05  1.11921e-05      -40.923 
         -25       0.9734 -7.79355e-05  1.16852e-05      -40.923 
         -25      1.01714 -7.68298e-05   1.2169e-05     -40.9229 
         -25      1.06185 -7.58388e-05    1.264e-05     -40.9229 
         -25      1.10751  -7.4969e-05   1.3094e-05     -40.9229 
         -25      1.15414 -7.42186e-05  1.35276e-05     -40.9229 
         -25      1.20173 -7.35806e-05  1.39387e-05     -40.9228 
         -25      1.25028 -7.30486e-05  1.43282e-05     -40.9228 
         -25      1.29979 -7.26271e-05  1.47028e-05     -40.9228 
         -25      1.35026  -7.2124e-05  1.50577e-05     -40.9227 
         -25       1.4017 -7.12987e-05    1.537e-05     -40.9227 
         -25      1.45409 -7.03688e-05  1.56617e-05     -40.9226 
         -25      1.50745   -6.926e-05  1.59329e-05     -40.9226 
         -25      1.56176 -6.79184e-05  1.61838e-05     -40.9225 
         -25      1.61705 -6.63118e-05  1.64144e-05     -40.9225 
         -25      1.67329   -6.443e-05   1.6624e-05     -40.9224 
         -25      1.73049 -6.22848e-05  1.68112e-05     -40.9224 
         -25      1.78865 -5.99099e-05  1.69732e-05     -40.9223 
         -25      1.84778 -5.73588e-05  1.71059e-05     -40.9223 
         -25      1.90786 -5.47047e-05  1.72033e-05     -40.9222 
         -25      1.96891 -5.20358e-05  1.72576e-05     -40.9221 
         -25      2.03092  -4.9453e-05  1.72586e-05     -40.9221 
         -25      2.09389 -4.70654e-05   1.7194e-05      -40.922 
         -25      2.15782 -4.49855e-05  1.70496e-05     -40.9219 
         -25      2.22272 -4.33221e-05  1.68091e-05     -40.9219 
         -25      2.28857 -4.21739e-05  1.64553e-05     -40.9218 
         -25      2.35539 -4.16209e-05  1.59703e-05     -40.9217 
         -25      2.42317 -4.17158e-05  1.53373e-05     -40.9216 
         -25      2.49191 -4.24731e-05  1.45415e-05     -40.9215 
         -25      2.56161 -4.38581e-05  1.35729e-05     -40.9214 
         -25      2.63226 -4.57747e-05  1.24283e-05     -40.9213 
         -25      2.70389 -4.80522e-05   1.1115e-05     -40.9212 
         -25      2.77648 -5.08682e-05   9.6672e-06     -40.9211 
         -25      2.85002 -5.39458e-05  7.89204e-06      -40.921 
         -25      2.92453  -5.6511e-05  6.05026e-06     -40.9209 
         -25            3  -5.8685e-05  4.20477e-06     -40.9207 
           0            0 -8.83039e-20 -6.76611e-24     -39.5672 
           0      0.00048  -8.2445e-06 -6.57716e-10     -39.5672 
           0     0.001922 -2.89549e-05 -2.62179e-09     -39.5672 
           0     0.004326 -5.20734e-05 -5.92516e-09     -39.5672 
           0      0.00769 -6.68742e-05 -1.08133e-08     -39.5672 
           0     0.012017 -6.78056e-05 -1.79369e-08     -39.5672 
           0     0.017304 -5.74824e-05 -2.84189e-08     -39.5672 
           0     0.023553 -4.47872e-05 -4.37797e-08     -39.5672 
           0     0.030763 -3.84175e-05 -6.56527e-08     -39.5672 
           0     0.038936 -3.96639e-05 -9.54605e-08     -39.5672 
           0     0.048069 -4.06412e-05 -1.34168e-07     -39.5672 
           0     0.058163 -3.29367e-05 -1.82379e-07     -39.5672 
           0     0.069219 -2.26133e-05 -2.40571e-07     -39.5672 
           0     0.081236 -2.51479e-05 -3.08764e-07     -39.5672 
           0     0.094215 -1.50249e-05 -3.85382e-07     -39.5672 
           0     0.108155 -1.17009e-05 -4.70336e-07     -39.5672 
           0     0.123056 -6.77707e-06 -5.61312e-07     -39.5672 
           0     0.138918 -1.85098e-06 -6.56102e-07     -39.5672 
           0     0.155744  2.41038e-06 -7.52024e-07     -39.5672 
           0     0.173529  6.08524e-06 -8.45953e-07     -39.5672 
           0     0.192276  9.54009e-06 -9.34533e-07     -39.5672 
           0     0.211984  1.28623e-05 -1.01426e-06     -39.5672 
           0     0.232655  1.55898e-05 -1.08168e-06     -39.5672 
           0     0.254285  1.74411e-05 -1.13346e-06     -39.5672 
           0     0.276877  1.94012e-05 -1.16664e-06     -39.5672 
           0     0.300431  2.05886e-05 -1.17814e-06     -39.5672 
           0     0.324946  2.14353e-05 -1.16588e-06     -39.5671 
           0     0.350424  2.19345e-05  -1.1283e-06     -39.5671 
           0     0.376861  2.21106e-05 -1.06414e-06     -39.5671 
           0      0.40426  2.20129e-05 -9.72476e-07     -39.5671 
           0     0.432621  2.17044e-05 -8.52918e-07     -39.5671 
           0     0.461945  2.12495e-05 -7.05643e-07     -39.5671 
           0     0.492228  2.07018e-05 -5.31463e-07     -39.5671 
           0     0.523472  2.00953e-05 -3.31646e-07     -39.5671 
           0     0.555678  1.94452e-05 -1.07643e-07     -39.5671 
           0     0.588845  1.87651e-05  1.39507e-07     -39.5671 
           0     0.622976  1.81041e-05  4.09975e-07     -39.5671 
           0     0.658066  1.74147e-05  6.97378e-07     -39.5671 
           0     0.694117  1.67115e-05   1.0022e-06     -39.5671 
           0      0.73113   1.5974e-05  1.32325e-06     -39.5671 
           0     0.769107  1.51784e-05  1.65882e-06     -39.5671 
           0     0.808042  1.42997e-05  2.00671e-06     -39.5671 
           0     0.847939  1.33121e-05  2.36458e-06     -39.5671 
           0     0.888797  1.21914e-05  2.72995e-06     -39.5671 
           0      0.93062  1.09155e-05   3.1005e-06      -39.567 
           0       0.9734  9.46701e-06  3.47406e-06      -39.567 
           0      1.01714  7.83296e-06  3.84897e-06      -39.567 
           0      1.06185  6.00617e-06  4.22387e-06      -39.567 
           0      1.10751   3.9844e-06  4.59777e-06      -39.567 
           0      1.15414   1.7688e-06   4.9697e-06      -39.567 
           0      1.20173 -6.38744e-07   5.3381e-06      -39.567 
           0      1.25028 -3.24207e-06  5.70014e-06      -39.567 
           0      1.29979 -6.05833e-06   6.0503e-06     -39.5669 
           0      1.35026 -9.12084e-06  6.39359e-06     -39.5669 
           0       1.4017 -1.23567e-05  6.74255e-06     -39.5669 
           0      1.45409 -1.57825e-05  7.07277e-06     -39.5669 
           0      1.50745 -1.94377e-05  7.37888e-06     -39.5669 
           0      1.56176 -2.33388e-05  7.65751e-06     -39.5668 
           0      1.61705 -2.74805e-05  7.90735e-06     -39.5668 
           0      1.67329 -3.18351e-05  8.12891e-06     -39.5668 
           0      1.73049 -3.63565e-05  8.32438e-06     -39.5668 
           0      1.78865 -4.09817e-05  8.49732e-06     -39.5667 
           0      1.84778 -4.56343e-05   8.6522e-06     -39.5667 
           0      1.90786 -5.02268e-05  8.79394e-06     -39.5667 
           0      1.96891 -5.46679e-05  8.92736e-06     -39.5666 
           0      2.03092 -5.88658e-05  9.05641e-06     -39.5666 
           0      2.09389 -6.27343e-05  9.18343e-06     -39.5666 
           0      2.15782 -6.61979e-05  9.30817e-06     -39.5665 
           0      2.22272 -6.92002e-05  9.42687e-06     -39.5665 
           0      2.28857 -7.17081e-05  9.53106e-06     -39.5665 
           0      2.35539 -7.37196e-05  9.60644e-06     -39.5664 
           0      2.42317 -7.52692e-05  9.63149e-06     -39.5664 
           0      2.49191 -7.64329e-05  9.57617e-06     -39.5663 
           0      2.56161 -7.73337e-05  9.40044e-06     -39.5663 
           0      2.63226 -7.81438e-05   9.0528e-06     -39.5662 
           0      2.70389 -7.90865e-05  8.46866e-06     -39.5662 
           0      2.77648 -8.02185e-05  7.69953e-06     -39.5661 
           0      2.85002 -8.12736e-05  6.87654e-06     -39.5661 
           0      2.92453 -8.23334e-05  5.96943e-06      -39.566 
           0            3 -8.32369e-05  5.11472e-06      -39.566 
          20            0 -8.13305e-20 -4.04503e-24     -38.6121 
          20      0.00048 -7.59417e-06  -4.2417e-10     -38.6121 
          20     0.001922 -2.66791e-05 -2.06181e-09     -38.6121 
          20     0.004326  -4.8007e-05  -6.0299e-09     -38.6121 
          20      0.00769 -6.17034e-05 -1.42504e-08     -38.6121 
          20     0.012017 -6.26277e-05 -2.95027e-08     -38.6121 
          20     0.017304 -5.31203e-05 -5.53445e-08     -38.6121 
          20     0.023553 -4.12652e-05  -9.5971e-08     -38.6121 
          20     0.030763 -3.49759e-05 -1.55882e-07     -38.6121 
          20     0.038936 -3.53762e-05 -2.39567e-07     -38.6121 
          20     0.048069 -3.51827e-05 -3.51144e-07     -38.6121 
          20     0.058163 -2.66402e-05 -4.94329e-07     -38.6121 
          20     0.069219 -1.52845e-05 -6.72413e-07     -38.6121 
          20     0.081236 -1.53018e-05 -8.87906e-07     -38.6121 
          20     0.094215 -3.29615e-06 -1.14181e-06     -38.6121 
          20     0.108155  2.86481e-06 -1.43533e-06     -38.6121 
          20     0.123056  1.08479e-05 -1.76767e-06     -38.6121 
          20     0.138918  1.91394e-05 -2.13741e-06     -38.6121 
          20     0.155744  2.70695e-05 -2.54227e-06     -38.6121 
          20     0.173529  3.46434e-05 -2.97897e-06     -38.6121 
          20     0.192276  4.21287e-05 -3.44375e-06     -38.6121 
          20     0.211984  4.95352e-05 -3.93236e-06     -38.6121 
          20     0.232655  5.63719e-05 -4.44036e-06     -38.6121 
          20     0.254285  6.23152e-05 -4.96323e-06     -38.6121 
          20     0.276877  6.82117e-05 -5.49674e-06     -38.6121 
          20     0.300431  7.31999e-05 -6.03681e-06     -38.6121 
          20     0.324946  7.76314e-05 -6.58029e-06     -38.6121 
          20     0.350424  8.14614e-05 -7.12463e-06     -38.6121 
          20     0.376861  8.46775e-05 -7.66773e-06     -38.6121 
          20      0.40426  8.72948e-05 -8.20841e-06     -38.6121 
          20     0.432621  8.93437e-05 -8.74625e-06     -38.6121 
          20     0.461945  9.08583e-05 -9.28171e-06     -38.6121 
          20     0.492228  9.18633e-05   -9.816e-06     -38.6121 
          20     0.523472  9.23665e-05 -1.03511e-05     -38.6121 
          20     0.555678  9.23587e-05  -1.0889e-05     -38.6121 
          20     0.588845  9.18312e-05 -1.14318e-05     -38.6121 
          20     0.622976  9.08141e-05 -1.19804e-05     -38.6121 
          20     0.658066   8.9258e-05 -1.25408e-05      -38.612 
          20     0.694117  8.71808e-05 -1.31127e-05      -38.612 
          20      0.73113  8.45803e-05 -1.36963e-05      -38.612 
          20     0.769107  8.14723e-05 -1.42912e-05      -38.612 
          20     0.808042  7.78907e-05 -1.48968e-05      -38.612 
          20     0.847939  7.38843e-05 -1.55118e-05      -38.612 
          20     0.888797  6.95153e-05 -1.61339e-05      -38.612 
          20      0.93062  6.48558e-05 -1.67602e-05      -38.612 
          20       0.9734   5.9985e-05 -1.73868e-05      -38.612 
          20      1.01714  5.49822e-05  -1.8009e-05      -38.612 
          20      1.06185  4.99247e-05 -1.86213e-05      -38.612 
          20      1.10751  4.48815e-05 -1.92183e-05      -38.612 
          20      1.15414  3.99098e-05 -1.97945e-05      -38.612 
          20      1.20173  3.50527e-05 -2.03456e-05      -38.612 
          20      1.25028  3.03361e-05 -2.08697e-05      -38.612 
          20      1.29979  2.57713e-05 -2.13687e-05     -38.6119 
          20      1.35026  2.12491e-05 -2.18501e-05     -38.6119 
          20       1.4017  1.61583e-05 -2.22803e-05     -38.6119 
          20      1.45409  1.06091e-05 -2.26566e-05     -38.6119 
          20      1.50745  4.79413e-06 -2.29926e-05     -38.6119 
          20      1.56176 -1.12846e-06 -2.32974e-05     -38.6119 
          20      1.61705 -7.03511e-06 -2.35753e-05     -38.6119 
          20      1.67329 -1.28324e-05 -2.38271e-05     -38.6119 
          20      1.73049  -1.8457e-05 -2.40501e-05     -38.6118 
          20      1.78865 -2.38694e-05 -2.42394e-05     -38.6118 
          20      1.84778 -2.90502e-05  -2.4389e-05     -38.6118 
          20      1.90786 -3.39928e-05 -2.44922e-05     -38.6118 
          20      1.96891 -3.87003e-05  -2.4543e-05     -38.6118 
          20      2.03092 -4.31774e-05 -2.45372e-05     -38.6118 
          20      2.09389 -4.74264e-05 -2.44731e-05     -38.6117 
          20      2.15782 -5.14401e-05 -2.43523e-05     -38.6117 
          20      2.22272 -5.52012e-05 -2.41801e-05     -38.6117 
          20      2.28857 -5.86788e-05 -2.39654e-05     -38.6117 
          20      2.35539 -6.18303e-05 -2.37205e-05     -38.6116 
          20      2.42317 -6.46065e-05 -2.34597e-05     -38.6116 
          20      2.49191 -6.69603e-05 -2.31974e-05     -38.6116 
          20      2.56161 -6.88631e-05 -2.29449e-05     -38.6116 
          20      2.63226 -7.03264e-05  -2.2706e-05     -38.6115 
          20      2.70389 -7.14333e-05 -2.24715e-05     -38.6115 
          20      2.77648  -7.2042e-05 -2.23076e-05     -38.6115 
          20      2.85002 -7.25955e-05 -2.23472e-05     -38.6114 
          20      2.92453 -7.37547e-05 -2.27324e-05     -38.6114 
          20            3 -7.51752e-05 -2.30944e-05     -38.6114 
          40            0  -8.0832e-20 -2.50467e-24     -37.7219 
          40      0.00048 -7.56357e-06 -2.64619e-10     -37.7219 
          40     0.001922 -2.67574e-05 -1.30919e-09     -37.7219 
          40     0.004326 -4.88294e-05 -3.90572e-09     -37.7219 
          40      0.00769 -6.44248e-05  -9.3989e-09     -37.7219 
          40     0.012017 -6.86565e-05 -1.97687e-08     -37.7219 
          40     0.017304 -6.36918e-05 -3.76171e-08     -37.7219 
          40     0.023553  -5.7118e-05  -6.6124e-08     -37.7219 
          40     0.030763 -5.63459e-05 -1.08881e-07     -37.7219 
          40     0.038936 -6.23589e-05 -1.69738e-07     -37.7219 
          40     0.048069 -6.81789e-05 -2.52601e-07     -37.7219 
          40     0.058163 -6.63738e-05 -3.61436e-07     -37.7219 
          40     0.069219  -6.2063e-05  -5.0026e-07     -37.7219 
          40     0.081236 -6.85343e-05  -6.7289e-07     -37.7219 
          40     0.094215 -6.35564e-05 -8.82468e-07     -37.7219 
          40     0.108155 -6.38956e-05 -1.13249e-06     -37.7219 
          40     0.123056 -6.21936e-05 -1.42531e-06     -37.7219 
          40     0.138918 -5.97791e-05 -1.76297e-06     -37.7219 
          40     0.155744 -5.71981e-05   -2.147e-06     -37.7219 
          40     0.173529 -5.43747e-05 -2.57811e-06     -37.7219 
          40     0.192276 -5.10075e-05 -3.05661e-06     -37.7219 
          40     0.211984 -4.70592e-05 -3.58215e-06     -37.7219 
          40     0.232655 -4.29887e-05 -4.15398e-06     -37.7219 
          40     0.254285 -3.91162e-05 -4.77086e-06     -37.7219 
          40     0.276877 -3.46771e-05 -5.43157e-06     -37.7219 
          40     0.300431 -3.05353e-05 -6.13402e-06     -37.7219 
          40     0.324946 -2.64217e-05 -6.87666e-06     -37.7219 
          40     0.350424 -2.24503e-05 -7.65804e-06     -37.7219 
          40     0.376861 -1.87077e-05 -8.47642e-06     -37.7219 
          40      0.40426 -1.52542e-05 -9.33033e-06     -37.7219 
          40     0.432621 -1.21316e-05 -1.02184e-05     -37.7219 
          40     0.461945 -9.37093e-06 -1.11395e-05     -37.7219 
          40     0.492228 -7.00221e-06 -1.20929e-05     -37.7219 
          40     0.523472 -5.05899e-06 -1.30783e-05     -37.7219 
          40     0.555678 -3.57759e-06 -1.40951e-05     -37.7219 
          40     0.588845 -2.58119e-06 -1.51424e-05     -37.7219 
          40     0.622976 -2.04503e-06 -1.62176e-05     -37.7219 
          40     0.658066 -2.00694e-06 -1.73218e-05     -37.7219 
          40     0.694117 -2.43341e-06 -1.84548e-05     -37.7219 
          40      0.73113 -3.30374e-06 -1.96127e-05     -37.7219 
          40     0.769107  -4.5788e-06 -2.07915e-05     -37.7219 
          40     0.808042   -6.203e-06 -2.19871e-05     -37.7219 
          40     0.847939  -8.1081e-06 -2.31952e-05     -37.7219 
          40     0.888797 -1.02167e-05 -2.44114e-05     -37.7219 
          40      0.93062 -1.24474e-05 -2.56305e-05     -37.7219 
          40       0.9734 -1.47186e-05 -2.68466e-05     -37.7219 
          40      1.01714 -1.69553e-05 -2.80536e-05     -37.7219 
          40      1.06185 -1.90913e-05 -2.92445e-05     -37.7219 
          40      1.10751 -2.10734e-05 -3.04126e-05     -37.7219 
          40      1.15414 -2.28614e-05 -3.15512e-05     -37.7219 
          40      1.20173 -2.44249e-05 -3.26552e-05     -37.7219 
          40      1.25028 -2.57365e-05 -3.37223e-05     -37.7219 
          40      1.29979 -2.67575e-05 -3.47554e-05     -37.7219 
          40      1.35026 -2.76025e-05 -3.57457e-05     -37.7219 
          40       1.4017 -2.89576e-05 -3.66713e-05     -37.7218 
          40      1.45409 -3.06632e-05 -3.75461e-05     -37.7218 
          40      1.50745 -3.25546e-05 -3.83618e-05     -37.7218 
          40      1.56176 -3.44885e-05 -3.91115e-05     -37.7218 
          40      1.61705 -3.63457e-05 -3.97896e-05     -37.7218 
          40      1.67329 -3.80326e-05 -4.03917e-05     -37.7218 
          40      1.73049 -3.94831e-05 -4.09153e-05     -37.7218 
          40      1.78865 -4.06586e-05 -4.13593e-05     -37.7218 
          40      1.84778 -4.15483e-05 -4.17241e-05     -37.7218 
          40      1.90786 -4.21674e-05 -4.20114e-05     -37.7218 
          40      1.96891 -4.25551e-05 -4.22243e-05     -37.7218 
          40      2.03092 -4.27714e-05 -4.23666e-05     -37.7217 
          40      2.09389  -4.2892e-05 -4.24428e-05     -37.7217 
          40      2.15782 -4.30019e-05  -4.2457e-05     -37.7217 
          40      2.22272 -4.31878e-05 -4.24129e-05     -37.7217 
          40      2.28857 -4.35284e-05 -4.23124e-05     -37.7217 
          40      2.35539 -4.40823e-05  -4.2155e-05     -37.7217 
          40      2.42317 -4.48748e-05  -4.1936e-05     -37.7217 
          40      2.49191 -4.58811e-05 -4.16456e-05     -37.7216 
          40      2.56161 -4.70082e-05 -4.12665e-05     -37.7216 
          40      2.63226 -4.80737e-05 -4.07724e-05     -37.7216 
          40      2.70389  -4.8781e-05 -4.01251e-05     -37.7216 
          40      2.77648 -4.87692e-05 -3.93146e-05     -37.7216 
          40      2.85002 -4.83859e-05 -3.84159e-05     -37.7215 
          40      2.92453  -4.7805e-05  -3.7385e-05     -37.7215 
          40            3 -4.70738e-05 -3.62384e-05     -37.7215 
          60            0            0            0     -36.8719 
          60      0.00048 -7.43047e-06 -1.37359e-10     -36.8719 
          60     0.001922 -2.63622e-05 -3.49911e-10     -36.8719 
          60     0.004326  -4.8389e-05 -6.68258e-11     -36.8719 
          60      0.00769 -6.45387e-05  1.57053e-09     -36.8719 
          60     0.012017 -7.01581e-05    5.602e-09     -36.8719 
          60     0.017304  -6.7397e-05  1.31328e-08     -36.8719 
          60     0.023553 -6.36311e-05   2.5257e-08     -36.8719 
          60     0.030763 -6.60609e-05  4.29917e-08     -36.8719 
          60     0.038936  -7.5684e-05  6.72416e-08     -36.8719 
          60     0.048069 -8.58092e-05  9.87036e-08     -36.8719 
          60     0.058163 -8.92891e-05  1.37761e-07     -36.8719 
          60     0.069219 -9.10486e-05  1.84316e-07     -36.8719 
          60     0.081236 -0.000103858  2.37776e-07     -36.8719 
          60     0.094215 -0.000106234  2.97297e-07     -36.8719 
          60     0.108155 -0.000114252  3.61025e-07     -36.8719 
          60     0.123056 -0.000120716  4.26996e-07     -36.8719 
          60     0.138918 -0.000126788  4.92651e-07     -36.8719 
          60     0.155744 -0.000132867  5.55083e-07     -36.8719 
          60     0.173529 -0.000138744  6.11088e-07     -36.8719 
          60     0.192276    -0.000144  6.57336e-07     -36.8719 
          60     0.211984 -0.000148477  6.90444e-07     -36.8719 
          60     0.232655 -0.000152508  7.07118e-07     -36.8719 
          60     0.254285 -0.000156308  7.04278e-07     -36.8719 
          60     0.276877 -0.000159067  6.79182e-07     -36.8719 
          60     0.300431 -0.000161562  6.29382e-07     -36.8719 
          60     0.324946 -0.000163497  5.53038e-07     -36.8719 
          60     0.350424 -0.000164964  4.48789e-07     -36.8719 
          60     0.376861 -0.000166038  3.15785e-07     -36.8719 
          60      0.40426 -0.000166779  1.53673e-07     -36.8719 
          60     0.432621 -0.000167235  -3.7356e-08     -36.8719 
          60     0.461945 -0.000167446 -2.56598e-07     -36.8719 
          60     0.492228  -0.00016745 -5.02825e-07     -36.8719 
          60     0.523472 -0.000167284 -7.74436e-07     -36.8719 
          60     0.555678 -0.000166981 -1.06948e-06     -36.8719 
          60     0.588845 -0.000166557 -1.38576e-06     -36.8719 
          60     0.622976 -0.000165979 -1.72093e-06     -36.8718 
          60     0.658066 -0.000165275   -2.072e-06     -36.8718 
          60     0.694117 -0.000164409 -2.43566e-06     -36.8718 
          60      0.73113 -0.000163353 -2.80933e-06     -36.8718 
          60     0.769107 -0.000162079 -3.19018e-06     -36.8718 
          60     0.808042 -0.000160558  -3.5752e-06     -36.8718 
          60     0.847939 -0.000158763 -3.96142e-06     -36.8718 
          60     0.888797 -0.000156673 -4.34599e-06     -36.8718 
          60      0.93062 -0.000154272 -4.72634e-06     -36.8718 
          60       0.9734 -0.000151558 -5.10019e-06     -36.8718 
          60      1.01714 -0.000148534 -5.46589e-06     -36.8718 
          60      1.06185 -0.000145218  -5.8223e-06     -36.8718 
          60      1.10751 -0.000141635 -6.16896e-06     -36.8718 
          60      1.15414 -0.000137817 -6.50591e-06     -36.8718 
          60      1.20173 -0.000133794 -6.83355e-06     -36.8718 
          60      1.25028 -0.000129585 -7.15235e-06     -36.8718 
          60      1.29979 -0.000125179 -7.46234e-06     -36.8718 