Variables = x, y, u, v, p

Zone, I=416, F=POINT
         -50            0            0            0      69.0211 
         -50     0.013333   0.00062553  1.31535e-07      69.0211 
         -50     0.053333  0.000613718  3.78122e-07      69.0211 
         -50         0.12  0.000620208  6.99109e-07      69.0211 
         -50     0.213332  0.000637375  1.40938e-06       69.021 
         -50     0.333332  0.000644297  2.96463e-06       69.021 
         -50         0.48  0.000643143  5.46955e-06      69.0208 
         -50     0.653331  0.000637866  8.62516e-06      69.0206 
         -50     0.853332  0.000627389  1.20147e-05      69.0202 
         -50         1.08  0.000611815  1.54277e-05      69.0197 
         -50      1.33333  0.000593655  1.87998e-05      69.0191 
         -50      1.61333  0.000572058  2.21683e-05      69.0181 
         -50         1.92   0.00054973  2.46321e-05      69.0169 
         -50      2.25333   0.00053144  2.70154e-05      69.0153 
         -50      2.61333  0.000518448  2.79787e-05      69.0133 
         -50            3  0.000513392  2.75417e-05      69.0108 
         -25            0  4.91184e-19  2.58661e-23      66.2182 
         -25     0.013333  0.000446976  8.04929e-08      66.2182 
         -25     0.053333  0.000410052  5.48764e-07      66.2182 
         -25         0.12  0.000370321  1.85445e-06      66.2182 
         -25     0.213332  0.000339401  4.11314e-06      66.2182 
         -25     0.333332  0.000316779  7.01008e-06      66.2182 
         -25         0.48  0.000304925  1.02259e-05      66.2181 
         -25     0.653331   0.00030528  1.37995e-05       66.218 
         -25     0.853332  0.000319808  1.79113e-05      66.2179 
         -25         1.08  0.000342885  2.22781e-05      66.2177 
         -25      1.33333  0.000366067  2.61782e-05      66.2174 
         -25      1.61333  0.000393268  2.91204e-05       66.217 
         -25         1.92   0.00041687  3.09929e-05      66.2166 
         -25      2.25333  0.000426963  3.13491e-05      66.2159 
         -25      2.61333  0.000433753  3.30614e-05      66.2152 
         -25            3  0.000436408  3.31679e-05      66.2142 
           0            0  4.14137e-19  1.24276e-23      64.0165 
           0     0.013333  0.000381027  3.87738e-08      64.0165 
           0     0.053333  0.000366998  2.85421e-07      64.0165 
           0         0.12   0.00035344  1.11289e-06      64.0165 
           0     0.213332  0.000339741  2.90928e-06      64.0165 
           0     0.333332  0.000322732  5.79539e-06      64.0165 
           0         0.48  0.000310587  9.61605e-06      64.0165 
           0     0.653331  0.000308834  1.41473e-05      64.0164 
           0     0.853332  0.000316318  1.91325e-05      64.0164 
           0         1.08  0.000326112  2.41684e-05      64.0163 
           0      1.33333  0.000331042  2.87068e-05      64.0162 
           0      1.61333  0.000335453  3.22983e-05       64.016 
           0         1.92   0.00033909  3.44701e-05      64.0157 
           0      2.25333  0.000346523  3.58874e-05      64.0154 
           0      2.61333  0.000361976  3.67529e-05      64.0151 
           0            3  0.000371628  3.69657e-05      64.0146 
          20            0  3.79515e-19   7.4241e-24      62.4653 
          20     0.013333  0.000348335  2.92551e-08      62.4653 
          20     0.053333  0.000332481  2.54954e-07      62.4653 
          20         0.12  0.000318821  9.89277e-07      62.4653 
          20     0.213332  0.000311452  2.40295e-06      62.4653 
          20     0.333332  0.000307901  4.35987e-06      62.4653 
          20         0.48  0.000310214  6.63736e-06      62.4653 
          20     0.653331  0.000317386  9.12151e-06      62.4653 
          20     0.853332  0.000325074  1.16235e-05      62.4652 
          20         1.08  0.000327946   1.3762e-05      62.4652 
          20      1.33333  0.000326451  1.53597e-05      62.4651 
          20      1.61333  0.000325079  1.62876e-05       62.465 
          20         1.92  0.000321689  1.64302e-05      62.4649 
          20      2.25333  0.000313074  1.56883e-05      62.4647 
          20      2.61333  0.000305703  1.50782e-05      62.4645 
          20            3  0.000305834  1.43515e-05      62.4642 
          40            0  3.57067e-19  4.59612e-24      61.0191 
          40     0.013333  0.000324835  2.18401e-08      61.0191 
          40     0.053333  0.000298409  2.02231e-07      61.0191 
          40         0.12  0.000271555  7.49357e-07      61.0191 
          40     0.213332  0.000251069  1.70695e-06      61.0191 
          40     0.333332  0.000233946  2.93674e-06      61.0191 
          40         0.48  0.000221404  4.33453e-06      61.0191 
          40     0.653331  0.000215851  5.99154e-06      61.0191 
          40     0.853332  0.000220954   8.0966e-06      61.0191 
          40         1.08  0.000234662  1.05457e-05       61.019 
          40      1.33333  0.000248844  1.28532e-05       61.019 
          40      1.61333  0.000264156  1.47498e-05      61.0189 
          40         1.92  0.000278641  1.59703e-05      61.0188 
          40      2.25333  0.000293883  1.68136e-05      61.0187 
          40      2.61333  0.000314557  1.72475e-05      61.0186 
          40            3  0.000327829  1.54434e-05      61.0184 
          60            0            0            0      59.6377 
          60     0.013333  0.000316618  3.61523e-09      59.6377 
          60     0.053333  0.000303629 -1.55134e-08      59.6377 
          60         0.12  0.000300033 -1.08167e-07      59.6377 
          60     0.213332  0.000306674 -2.78964e-07      59.6377 
          60     0.333332  0.000312941 -4.67106e-07      59.6377 
          60         0.48  0.000316172 -6.17434e-07      59.6377 
          60     0.653331     0.000316 -7.42033e-07      59.6377 
          60     0.853332  0.000312427 -8.72299e-07      59.6377 
          60         1.08  0.000307079  -9.7555e-07      59.6377 
          60      1.33333  0.000302094  -1.0186e-06      59.6376 
          60      1.61333  0.000296584 -1.00413e-06      59.6376 
          60         1.92  0.000288877 -1.05502e-06      59.6375 
          60      2.25333   0.00027911 -1.08283e-06      59.6375 
          60      2.61333  0.000267739 -1.43729e-06      59.6374 
          60            3  0.000257102 -1.97587e-06      59.6373 
          80            0            0            0      58.2972 
          80     0.013333  0.000307929  3.36101e-09      58.2972 
          80     0.053333  0.000291482  8.02784e-09      58.2972 
          80         0.12  0.000281082  2.27894e-08      58.2972 
          80     0.213332  0.000278675  8.50069e-08      58.2972 
          80     0.333332  0.000276517  2.23229e-07      58.2972 
          80         0.48  0.000274146  4.15496e-07      58.2972 
          80     0.653331  0.000271932  6.01361e-07      58.2972 
          80     0.853332  0.000269431  7.25737e-07      58.2972 
          80         1.08    0.0002669  7.91593e-07      58.2972 
          80      1.33333  0.000265968  8.78622e-07      58.2972 
          80      1.61333  0.000268001  1.00257e-06      58.2971 
          80         1.92  0.000272807  1.16456e-06      58.2971 
          80      2.25333  0.000276734  1.26062e-06       58.297 
          80      2.61333  0.000281375  1.74296e-06       58.297 
          80            3  0.000290862   2.6887e-06      58.2969 
         100            0   3.3196e-19  1.20894e-24      56.9829 
         100     0.013333  0.000304606  3.61075e-10      56.9829 
         100     0.053333  0.000293169 -2.12601e-08      56.9829 
         100         0.12  0.000290701 -9.83607e-08      56.9829 
         100     0.213332  0.000297619 -2.19684e-07      56.9829 
         100     0.333332  0.000303839 -3.16013e-07      56.9829 
         100         0.48  0.000307443  -3.0563e-07      56.9829 
         100     0.653331  0.000309076  -1.5786e-07      56.9829 
         100     0.853332  0.000308295  6.86833e-08      56.9829 
         100         1.08  0.000303549  2.72121e-07      56.9829 
         100      1.33333  0.000295197   4.2302e-07      56.9829 
         100      1.61333  0.000285137  6.07722e-07      56.9829 
         100         1.92  0.000277128  8.06599e-07      56.9829 
         100      2.25333  0.000274008  1.12448e-06      56.9828 
         100      2.61333  0.000276056  1.53272e-06      56.9828 
         100            3  0.000280839  2.02174e-06      56.9827 
         150            0           -0           -0      53.7591 
         150     0.013333  0.000299759 -4.25558e-09      53.7591 
         150     0.053333  0.000291448 -6.21223e-08      53.7591 
         150         0.12  0.000291459 -2.10274e-07      53.7591 
         150     0.213332  0.000297215 -3.40545e-07      53.7591 
         150     0.333332  0.000298616 -2.73801e-07      53.7591 
         150         0.48  0.000296602  2.97273e-08      53.7591 
         150     0.653331  0.000293576  4.14567e-07      53.7591 
         150     0.853332  0.000288864  6.70188e-07      53.7591 
         150         1.08   0.00028214  7.30445e-07      53.7591 
         150      1.33333  0.000275518  7.22753e-07      53.7591 
         150      1.61333  0.000268491  7.32791e-07      53.7591 
         150         1.92   0.00026106  7.06921e-07      53.7591 
         150      2.25333  0.000254181  6.27644e-07      53.7591 
         150      2.61333  0.000246122  3.58437e-07       53.759 
         150            3  0.000236996 -3.40396e-07       53.759 
         200            0           -0           -0      50.5749 
         200     0.013333  0.000315791  2.18878e-08      50.5749 
         200     0.053333  0.000346031  3.61755e-07      50.5749 
         200         0.12  0.000371243  1.85789e-06      50.5749 
         200     0.213332  0.000367986  5.60804e-06      50.5749 
         200     0.333332  0.000335104  1.22212e-05      50.5749 
         200         0.48  0.000297859  2.14458e-05      50.5749 
         200     0.653331  0.000276399   3.2579e-05      50.5749 
         200     0.853332  0.000273239  4.48479e-05      50.5749 
         200         1.08  0.000276567  5.72815e-05      50.5749 
         200      1.33333   0.00027233  6.88494e-05      50.5749 
         200      1.61333  0.000266211  7.86695e-05      50.5749 
         200         1.92  0.000259115  8.57157e-05      50.5749 
         200      2.25333  0.000252573  8.96392e-05      50.5749 
         200      2.61333  0.000251726  8.99334e-05      50.5749 
         200            3   0.00024981  8.66335e-05      50.5749 
         250            0            0            0      47.4048 
         250     0.013333  0.000307512 -4.20895e-08      47.4048 
         250     0.053333  0.000337032 -6.05375e-07      47.4048 
         250         0.12  0.000406829 -2.54396e-06      47.4048 
         250     0.213332  0.000497988 -6.17372e-06      47.4048 
         250     0.333332  0.000569706 -1.08377e-05      47.4048 
         250         0.48  0.000604872 -1.55294e-05      47.4048 
         250     0.653331  0.000609753 -1.97791e-05      47.4048 
         250     0.853332  0.000593407 -2.38029e-05      47.4048 
         250         1.08  0.000558979 -2.79654e-05      47.4048 
         250      1.33333  0.000512112 -3.21865e-05      47.4048 
         250      1.61333  0.000452882 -3.59283e-05      47.4048 
         250         1.92  0.000389006  -3.8841e-05      47.4048 
         250      2.25333   0.00032555 -4.05481e-05      47.4048 
         250      2.61333  0.000258143 -4.08988e-05      47.4048 
         250            3  0.000209873 -3.98182e-05      47.4048 
         300            0           -0           -0      44.2398 
         300     0.013333  0.000290016 -7.14384e-08      44.2398 
         300     0.053333   0.00028336 -1.06357e-06      44.2398 
         300         0.12  0.000329505 -4.71225e-06      44.2398 
         300     0.213332   0.00042536  -1.2201e-05      44.2398 
         300     0.333332   0.00051723 -2.30521e-05      44.2398 
         300         0.48  0.000566013 -3.57778e-05      44.2398 
         300     0.653331  0.000567664 -4.94047e-05      44.2398 
         300     0.853332  0.000533922 -6.38316e-05      44.2398 
         300         1.08  0.000481989 -7.87166e-05      44.2398 
         300      1.33333  0.000436606 -9.27205e-05      44.2398 
         300      1.61333  0.000394132  -0.00010438      44.2398 
         300         1.92  0.000351361 -0.000112908      44.2398 
         300      2.25333  0.000311038 -0.000117702      44.2398 
         300      2.61333  0.000266694 -0.000118257      44.2398 
         300            3  0.000232775 -0.000114541      44.2398 
         350            0  2.98772e-19  9.29875e-27      41.0767 
         350     0.013333  0.000236153  -4.5006e-08      41.0767 
         350     0.053333  8.62842e-05 -7.56423e-07      41.0767 
         350         0.12 -4.31954e-05 -3.92681e-06      41.0767 
         350     0.213332 -7.77946e-05 -1.20097e-05      41.0767 
         350     0.333332  -2.6892e-05 -2.65749e-05      41.0767 
         350         0.48  5.10911e-05 -4.73767e-05      41.0767 
         350     0.653331  0.000103454 -7.30788e-05      41.0767 
         350     0.853332  0.000114372  -0.00010216      41.0767 
         350         1.08  0.000106076 -0.000132619      41.0767 
         350      1.33333   0.00011833 -0.000161867      41.0767 
         350      1.61333  0.000149872 -0.000187708      41.0767 
         350         1.92  0.000188024 -0.000208413      41.0767 
         350      2.25333  0.000229192 -0.000222892      41.0767 
         350      2.61333  0.000266898 -0.000229657      41.0767 
         350            3  0.000301071 -0.000228046      41.0767 
         400            0           -0           -0      37.9146 
         400     0.013333  0.000315723  2.25213e-08      37.9146 
         400     0.053333  0.000350204  3.55808e-07      37.9146 
         400         0.12  0.000384898  1.73543e-06      37.9146 
         400     0.213332  0.000394708  5.09095e-06      37.9146 
         400     0.333332    0.0003704  1.10715e-05      37.9146 
         400         0.48  0.000330379  1.97374e-05      37.9146 
         400     0.653331   0.00029641  3.07101e-05      37.9146 
         400     0.853332  0.000279967  4.35469e-05      37.9146 
         400         1.08  0.000281222  5.78285e-05      37.9146 
         400      1.33333  0.000288498  7.28106e-05      37.9146 
         400      1.61333  0.000292037  8.72076e-05      37.9146 
         400         1.92  0.000288742  9.97417e-05      37.9146 
         400      2.25333  0.000282523  0.000109606      37.9146 
         400      2.61333  0.000279876  0.000115973      37.9146 
         400            3  0.000276262  0.000118247      37.9146 
         450            0           -0           -0      34.7529 
         450     0.013333  0.000275469 -3.03416e-08      34.7529 
         450     0.053333  0.000220745 -4.74829e-07      34.7529 
         450         0.12  0.000185504 -2.25869e-06      34.7529 
         450     0.213332    0.0001914 -6.34213e-06      34.7529 
         450     0.333332  0.000219196 -1.30104e-05      34.7529 
         450         0.48   0.00024255 -2.17918e-05      34.7529 
         450     0.653331  0.000246758  -3.2079e-05      34.7529 
         450     0.853332  0.000231921 -4.34765e-05      34.7529 
         450         1.08  0.000210231 -5.53964e-05      34.7529 
         450      1.33333  0.000200744 -6.67936e-05      34.7529 
         450      1.61333  0.000205021 -7.67493e-05      34.7529 
         450         1.92   0.00021417 -8.47793e-05      34.7529 
         450      2.25333  0.000224968 -9.05699e-05      34.7529 
         450      2.61333  0.000236041 -9.35309e-05      34.7529 
         450            3  0.000249428 -9.33169e-05      34.7529 
         500            0           -0           -0      31.5916 
         500     0.013333  0.000230868  1.13195e-08      31.5916 
         500     0.053333  5.22881e-05   6.8111e-08      31.5916 
         500         0.12 -0.000145095 -3.69636e-07      31.5916 
         500     0.213332 -0.000268906  -3.1185e-06      31.5916 
         500     0.333332 -0.000285718 -1.04482e-05      31.5916 
         500         0.48 -0.000230526 -2.33226e-05      31.5916 
         500     0.653331 -0.000164706  -4.0804e-05      31.5916 
         500     0.853332 -0.000118236 -6.08671e-05      31.5916 
         500         1.08 -7.79462e-05 -8.12842e-05      31.5916 
         500      1.33333 -2.16557e-05 -0.000100484      31.5916 
         500      1.61333  4.40569e-05 -0.000117987      31.5916 
         500         1.92  0.000108648  -0.00013329      31.5916 
         500      2.25333  0.000172974 -0.000145686      31.5916 
         500      2.61333  0.000236981 -0.000154041      31.5916 
         500            3  0.000293583 -0.000157516      31.5916 
         550            0           -0           -0      28.4311 
         550     0.013333  0.000359595  3.63111e-08      28.4311 
         550     0.053333  0.000503002  6.20591e-07      28.4311 
         550         0.12  0.000655065  3.29332e-06      28.4311 
         550     0.213332  0.000736795  1.03106e-05      28.4311 
         550     0.333332  0.000726427  2.33384e-05      28.4311 
         550         0.48  0.000670141  4.24664e-05      28.4311 
         550     0.653331   0.00062358  6.66703e-05      28.4311 
         550     0.853332  0.000612644  9.46959e-05      28.4311 
         550         1.08  0.000624674  0.000124889      28.4311 
         550      1.33333  0.000617577  0.000154707      28.4311 
         550      1.61333   0.00057283  0.000181673      28.4311 
         550         1.92  0.000509153  0.000204566      28.4311 
         550      2.25333  0.000440394  0.000222648      28.4311 
         550      2.61333  0.000369607   0.00023463      28.4311 
         550            3  0.000298914  0.000239221      28.4311 
         600            0           -0           -0      25.2705 
         600     0.013333  0.000300533 -1.02023e-08      25.2705 
         600     0.053333  0.000303656 -1.34038e-07      25.2705 
         600         0.12  0.000318117 -4.68758e-07      25.2705 
         600     0.213332  0.000331394 -7.90103e-07      25.2705 
         600     0.333332  0.000324176 -5.66907e-07      25.2705 
         600         0.48   0.00029905  5.69356e-07      25.2705 
         600     0.653331   0.00026993  2.45033e-06      25.2705 
         600     0.853332  0.000244928   4.5092e-06      25.2705 
         600         1.08  0.000222939   6.2406e-06      25.2705 
         600      1.33333  0.000205574  7.67584e-06      25.2705 
         600      1.61333  0.000200448  9.34352e-06      25.2705 
         600         1.92  0.000205268  1.14188e-05      25.2705 
         600      2.25333  0.000212556  1.36354e-05      25.2705 
         600      2.61333  0.000221088  1.57378e-05      25.2705 
         600            3  0.000230863   1.7569e-05      25.2705 
         650            0            0            0      22.1103 
         650     0.013333  0.000250982  1.68598e-08      22.1103 
         650     0.053333  0.000119256  1.99249e-07      22.1103 
         650         0.12 -3.93171e-05  5.40317e-07      22.1103 
         650     0.213332 -0.000165699  2.95394e-07      22.1103 
         650     0.333332 -0.000228763 -1.81827e-06      22.1103 
         650         0.48 -0.000233859 -6.70483e-06      22.1103 
         650     0.653331 -0.000212828 -1.43172e-05      22.1103 
         650     0.853332 -0.000190707 -2.38304e-05      22.1103 
         650         1.08 -0.000166921 -3.40008e-05      22.1103 
         650      1.33333 -0.000125639 -4.36106e-05      22.1103 
         650      1.61333 -6.47053e-05 -5.21016e-05      22.1103 
         650         1.92  2.83846e-06 -5.94902e-05      22.1103 
         650      2.25333  7.25558e-05 -6.57695e-05      22.1103 
         650      2.61333   0.00014679 -7.04649e-05      22.1103 
         650            3  0.000220021 -7.31324e-05      22.1103 
         700            0           -0           -0      18.9508 
         700     0.013333   0.00029183 -1.75112e-08      18.9508 
         700     0.053333  0.000276313 -2.60723e-07      18.9508 
         700         0.12  0.000281297 -1.17378e-06      18.9508 
         700     0.213332  0.000313862 -3.16985e-06      18.9508 
         700     0.333332  0.000358805 -6.40268e-06      18.9508 
         700         0.48  0.000401866 -1.07323e-05      18.9508 
         700     0.653331  0.000434182 -1.58658e-05      18.9508 
         700     0.853332  0.000453283 -2.15757e-05      18.9508 
         700         1.08   0.00045785 -2.78743e-05      18.9508 
         700      1.33333  0.000445216 -3.49406e-05      18.9508 
         700      1.61333  0.000418178 -4.26556e-05      18.9508 
         700         1.92  0.000389135  -5.0366e-05      18.9508 
         700      2.25333  0.000362306 -5.73629e-05      18.9508 
         700      2.61333  0.000332783 -6.32053e-05      18.9508 
         700            3  0.000302776 -6.74946e-05      18.9508 
         750            0           -0           -0      15.7914 
         750     0.013333  0.000310129 -2.92085e-08      15.7914 
         750     0.053333  0.000346661  -4.2239e-07      15.7914 
         750         0.12  0.000425506 -1.80013e-06      15.7914 
         750     0.213332  0.000530366 -4.46083e-06      15.7914 
         750     0.333332  0.000621584 -8.00961e-06      15.7914 
         750         0.48  0.000676234 -1.16474e-05      15.7914 
         750     0.653331  0.000695668 -1.47951e-05      15.7914 
         750     0.853332  0.000692353  -1.7439e-05      15.7914 
         750         1.08  0.000672619 -2.00037e-05      15.7914 
         750      1.33333  0.000636277 -2.28783e-05      15.7914 
         750      1.61333  0.000587376 -2.59729e-05      15.7914 
         750         1.92  0.000534238 -2.88958e-05      15.7914 
         750      2.25333  0.000478231 -3.13508e-05      15.7914 
         750      2.61333  0.000416448 -3.31857e-05      15.7914 
         750            3  0.000353485 -3.42766e-05      15.7914 
         800            0            0            0      12.6324 
         800     0.013333  0.000328431 -1.51073e-08      12.6324 
         800     0.053333  0.000408649 -2.00785e-07      12.6324 
         800         0.12    0.0005302 -7.21278e-07      12.6324 
         800     0.213332  0.000652393  -1.2719e-06      12.6324 
         800     0.333332  0.000727678 -9.44802e-07      12.6324 
         800         0.48   0.00074311  1.27621e-06      12.6324 
         800     0.653331  0.000717564  5.86423e-06      12.6324 
         800     0.853332  0.000678417  1.26052e-05      12.6324 
         800         1.08  0.000641815  2.09485e-05      12.6324 
         800      1.33333  0.000609023  3.03091e-05      12.6324 
         800      1.61333  0.000572553  4.00324e-05      12.6324 
         800         1.92  0.000526331  4.94427e-05      12.6324 
         800      2.25333   0.00047213  5.81023e-05      12.6324 
         800      2.61333  0.000413156  6.56096e-05      12.6324 
         800            3  0.000351955  7.14742e-05      12.6324 
         850            0            0            0      9.47352 
         850     0.013333  0.000355021  7.07852e-08      9.47352 
         850     0.053333  0.000473696  1.13484e-06      9.47352 
         850         0.12  0.000559624  5.62877e-06      9.47352 
         850     0.213332  0.000525925  1.67184e-05      9.47352 
         850     0.333332  0.000370501  3.64854e-05      9.47352 
         850         0.48  0.000178433  6.45955e-05      9.47352 
         850     0.653331  3.65995e-05  9.89028e-05      9.47352 
         850     0.853332 -2.23714e-05  0.000137122      9.47352 
         850         1.08 -1.43694e-05  0.000177544      9.47352 
         850      1.33333  2.15061e-05  0.000218512      9.47352 
         850      1.61333   5.4363e-05  0.000258157      9.47352 
         850         1.92  7.82565e-05    0.0002949      9.47352 
         850      2.25333  0.000102144  0.000327386      9.47352 
         850      2.61333  0.000134398  0.000353876      9.47352 
         850            3  0.000169655  0.000372395      9.47351 
         900            0            0            0      6.31474 
         900     0.013333  0.000197284  1.14309e-07      6.31474 
         900     0.053333 -0.000109413   1.6239e-06      6.31474 
         900         0.12 -0.000569874   6.7133e-06      6.31474 
         900     0.213332  -0.00106524  1.58957e-05      6.31474 
         900     0.333332  -0.00144957  2.67496e-05      6.31474 
         900         0.48  -0.00164115  3.55647e-05      6.31474 
         900     0.653331  -0.00166929   4.0114e-05      6.31474 
         900     0.853332  -0.00161052  4.08339e-05      6.31474 
         900         1.08  -0.00150601  4.00156e-05      6.31474 
         900      1.33333   -0.0013502  4.00833e-05      6.31474 
         900      1.61333  -0.00114266  4.18616e-05      6.31474 
         900         1.92 -0.000914671   4.4333e-05      6.31474 
         900      2.25333 -0.000680247  4.62562e-05      6.31475 
         900      2.61333 -0.000426782  4.73594e-05      6.31476 
         900            3 -0.000159605  4.76591e-05      6.31477 
         950            0            0            0      3.15714 
         950     0.013333  0.000149116 -4.88471e-08      3.15714 
         950     0.053333  -0.00023038 -8.68273e-07      3.15714 
         950         0.12  -0.00064318 -4.86099e-06      3.15714 
         950     0.213332 -0.000897776 -1.61586e-05      3.15714 
         950     0.333332 -0.000923023 -3.88113e-05      3.15714 
         950         0.48 -0.000786565 -7.43586e-05      3.15713 
         950     0.653331 -0.000617826 -0.000121336      3.15713 
         950     0.853332 -0.000507288 -0.000176851      3.15713 
         950         1.08 -0.000468946 -0.000237877      3.15713 
         950      1.33333 -0.000455398 -0.000301114      3.15713 
         950      1.61333 -0.000409785 -0.000362916      3.15714 
         950         1.92 -0.000315597 -0.000420614      3.15714 
         950      2.25333 -0.000197663  -0.00047246      3.15714 
         950      2.61333 -7.42876e-05 -0.000516003      3.15715 
         950            3  5.58572e-05 -0.000548954      3.15715 
        1000            0            0            0            0 
        1000     0.013333  0.000211498  4.14106e-06           -0 
        1000     0.053333 -1.59442e-05  1.80879e-05           -0 
        1000         0.12 -0.000200138  5.28186e-05  2.63289e-16 
        1000     0.213332  -0.00027913  0.000173774  3.12968e-15 
        1000     0.333332 -0.000380637  0.000598985  1.72895e-15 
        1000         0.48   0.00115117  0.000846272           -0 
        1000     0.653331  0.000945437  0.000794785            0 
        1000     0.853332   0.00116951   0.00130674            0 
        1000         1.08   0.00228374   0.00162435            0 
        1000      1.33333   0.00646572   0.00124439  1.56468e-15 
        1000      1.61333   0.00267522 -0.000542178           -0 
        1000         1.92    0.0019212 -0.000270395  3.35165e-15 
        1000      2.25333   0.00229091 -0.000136924  3.49936e-15 
        1000      2.61333   0.00328392 -0.000953696           -0 
        1000            3   0.00113804  -0.00108458  3.55337e-15 
