Variables = x, y, u, v, p

Zone, I=2080, F=POINT
         -50            0            0            0      3.68759 
         -50      0.00048  -1.9375e-06  1.88826e-10      3.68759 
         -50     0.001922  -7.1923e-06  8.51557e-10      3.68759 
         -50     0.004326 -1.42576e-05  2.28488e-09      3.68759 
         -50      0.00769 -2.11935e-05  5.01796e-09      3.68759 
         -50     0.012017 -2.62949e-05  9.88033e-09      3.68759 
         -50     0.017304 -2.86278e-05  1.80842e-08      3.68759 
         -50     0.023553 -2.82914e-05  3.13427e-08      3.68759 
         -50     0.030763 -2.62317e-05   5.1938e-08      3.68759 
         -50     0.038936 -2.37005e-05  8.27203e-08      3.68759 
         -50     0.048069 -2.16057e-05   1.2689e-07      3.68759 
         -50     0.058163 -2.01363e-05  1.87623e-07      3.68759 
         -50     0.069219 -1.90065e-05  2.67503e-07      3.68759 
         -50     0.081236 -1.82201e-05  3.68115e-07      3.68759 
         -50     0.094215 -1.81683e-05  4.91537e-07      3.68759 
         -50     0.108155    -1.84e-05  6.41478e-07      3.68758 
         -50     0.123056 -1.89249e-05  8.19013e-07      3.68758 
         -50     0.138918 -1.97803e-05  1.02553e-06      3.68758 
         -50     0.155744 -2.09557e-05  1.26206e-06      3.68758 
         -50     0.173529 -2.24033e-05  1.52911e-06      3.68758 
         -50     0.192276 -2.40607e-05  1.82688e-06      3.68758 
         -50     0.211984 -2.58745e-05  2.15512e-06      3.68758 
         -50     0.232655  -2.7807e-05  2.51326e-06      3.68758 
         -50     0.254285 -2.97938e-05  2.90023e-06      3.68758 
         -50     0.276877 -3.17259e-05  3.31508e-06      3.68758 
         -50     0.300431 -3.36129e-05  3.75675e-06      3.68758 
         -50     0.324946  -3.5371e-05  4.22416e-06      3.68758 
         -50     0.350424 -3.69679e-05   4.7168e-06      3.68758 
         -50     0.376861 -3.83731e-05  5.23389e-06      3.68758 
         -50      0.40426   -3.956e-05  5.77467e-06      3.68757 
         -50     0.432621  -4.0507e-05  6.33807e-06      3.68757 
         -50     0.461945 -4.11988e-05  6.92281e-06      3.68757 
         -50     0.492228 -4.16277e-05   7.5272e-06      3.68757 
         -50     0.523472 -4.17944e-05  8.14935e-06      3.68757 
         -50     0.555678 -4.17075e-05  8.78705e-06      3.68756 
         -50     0.588845 -4.13825e-05   9.4379e-06      3.68756 
         -50     0.622976 -4.08401e-05  1.00997e-05      3.68756 
         -50     0.658066 -4.01224e-05  1.07769e-05      3.68755 
         -50     0.694117 -3.92517e-05  1.14669e-05      3.68755 
         -50      0.73113 -3.82859e-05  1.21615e-05      3.68755 
         -50     0.769107 -3.72793e-05  1.28551e-05      3.68754 
         -50     0.808042 -3.62807e-05   1.3544e-05      3.68754 
         -50     0.847939 -3.53315e-05  1.42261e-05      3.68754 
         -50     0.888797 -3.44643e-05     1.49e-05      3.68753 
         -50      0.93062 -3.37018e-05  1.55643e-05      3.68753 
         -50       0.9734 -3.30571e-05  1.62167e-05      3.68752 
         -50      1.01714 -3.25333e-05  1.68537e-05      3.68751 
         -50      1.06185 -3.21255e-05  1.74705e-05      3.68751 
         -50      1.10751 -3.18245e-05  1.80612e-05       3.6875 
         -50      1.15414 -3.16207e-05  1.86204e-05      3.68749 
         -50      1.20173 -3.15121e-05  1.91456e-05      3.68749 
         -50      1.25028 -3.15135e-05  1.96416e-05      3.68748 
         -50      1.29979 -3.16699e-05  2.01269e-05      3.68747 
         -50      1.35026 -3.18449e-05   2.0574e-05      3.68746 
         -50       1.4017 -3.17606e-05  2.09384e-05      3.68745 
         -50      1.45409  -3.1672e-05  2.12955e-05      3.68744 
         -50      1.50745 -3.15572e-05  2.16298e-05      3.68743 
         -50      1.56176 -3.13862e-05   2.1932e-05      3.68742 
         -50      1.61705 -3.11235e-05  2.21982e-05      3.68741 
         -50      1.67329 -3.07304e-05  2.24289e-05      3.68739 
         -50      1.73049 -3.01681e-05   2.2629e-05      3.68738 
         -50      1.78865 -2.94009e-05  2.28058e-05      3.68737 
         -50      1.84778 -2.83992e-05  2.29682e-05      3.68735 
         -50      1.90786 -2.71431e-05  2.31254e-05      3.68734 
         -50      1.96891 -2.56258e-05  2.32855e-05      3.68732 
         -50      2.03092 -2.38562e-05  2.34537e-05      3.68731 
         -50      2.09389 -2.18614e-05  2.36314e-05      3.68729 
         -50      2.15782 -1.96894e-05  2.38149e-05      3.68727 
         -50      2.22272 -1.74081e-05  2.39942e-05      3.68725 
         -50      2.28857 -1.51061e-05  2.41526e-05      3.68723 
         -50      2.35539 -1.28895e-05  2.42665e-05      3.68721 
         -50      2.42317  -1.0877e-05  2.43062e-05      3.68719 
         -50      2.49191 -9.19351e-06  2.42369e-05      3.68717 
         -50      2.56161 -7.95799e-06  2.40218e-05      3.68714 
         -50      2.63226 -7.26949e-06  2.36255e-05      3.68712 
         -50      2.70389 -7.18756e-06  2.30194e-05      3.68709 
         -50      2.77648 -7.81213e-06  2.21946e-05      3.68707 
         -50      2.85002 -8.99441e-06  2.09831e-05      3.68704 
         -50      2.92453 -1.04324e-05  1.94355e-05      3.68701 
         -50            3 -1.20576e-05  1.76867e-05      3.68698 
         -25            0 -1.57785e-20  6.72124e-25      3.53733 
         -25      0.00048 -1.49944e-06  2.44607e-11      3.53733 
         -25     0.001922 -5.56117e-06 -3.93584e-10      3.53733 
         -25     0.004326 -1.10035e-05 -2.71247e-09      3.53733 
         -25      0.00769 -1.62973e-05 -9.29713e-09      3.53733 
         -25     0.012017 -2.00774e-05  -2.3335e-08      3.53733 
         -25     0.017304 -2.15508e-05 -4.86689e-08      3.53733 
         -25     0.023553 -2.06905e-05 -8.96469e-08      3.53733 
         -25     0.030763 -1.80871e-05 -1.50883e-07      3.53733 
         -25     0.038936 -1.45392e-05 -2.37097e-07      3.53733 
         -25     0.048069 -1.05828e-05 -3.52867e-07      3.53733 
         -25     0.058163 -6.24952e-06 -5.02633e-07      3.53733 
         -25     0.069219 -1.29913e-06 -6.90621e-07      3.53733 
         -25     0.081236  4.23126e-06 -9.20702e-07      3.53733 
         -25     0.094215  1.01124e-05 -1.19566e-06      3.53733 
         -25     0.108155  1.65534e-05 -1.51652e-06      3.53733 
         -25     0.123056  2.34758e-05 -1.88409e-06      3.53733 
         -25     0.138918  3.07243e-05 -2.29779e-06      3.53733 
         -25     0.155744  3.81606e-05 -2.75606e-06      3.53733 
         -25     0.173529  4.56592e-05 -3.25613e-06      3.53733 
         -25     0.192276  5.31048e-05 -3.79461e-06      3.53733 
         -25     0.211984  6.03769e-05 -4.36734e-06      3.53733 
         -25     0.232655  6.73536e-05 -4.96988e-06      3.53733 
         -25     0.254285  7.39464e-05  -5.5976e-06      3.53733 
         -25     0.276877  8.01262e-05 -6.24674e-06      3.53733 
         -25     0.300431   8.5788e-05  -6.9116e-06      3.53733 
         -25     0.324946  9.09242e-05 -7.58904e-06      3.53733 
         -25     0.350424   9.5506e-05 -8.27697e-06      3.53733 
         -25     0.376861   9.9515e-05 -8.97299e-06      3.53733 
         -25      0.40426  0.000102943 -9.67511e-06      3.53733 
         -25     0.432621  0.000105788 -1.03819e-05      3.53733 
         -25     0.461945   0.00010805 -1.10928e-05      3.53733 
         -25     0.492228  0.000109729 -1.18084e-05      3.53733 
         -25     0.523472  0.000110822   -1.253e-05      3.53733 
         -25     0.555678  0.000111325 -1.32589e-05      3.53733 
         -25     0.588845  0.000111234 -1.39942e-05      3.53732 
         -25     0.622976  0.000110557 -1.47299e-05      3.53732 
         -25     0.658066  0.000109296 -1.54745e-05      3.53732 
         -25     0.694117  0.000107459  -1.6224e-05      3.53732 
         -25      0.73113  0.000105085 -1.69748e-05      3.53732 
         -25     0.769107  0.000102218 -1.77234e-05      3.53732 
         -25     0.808042   9.8905e-05 -1.84661e-05      3.53732 
         -25     0.847939  9.51928e-05  -1.9199e-05      3.53731 
         -25     0.888797  9.11278e-05 -1.99186e-05      3.53731 
         -25      0.93062  8.67533e-05 -2.06209e-05      3.53731 
         -25       0.9734  8.21101e-05 -2.13021e-05      3.53731 
         -25      1.01714  7.72331e-05 -2.19583e-05      3.53731 
         -25      1.06185  7.21538e-05  -2.2586e-05       3.5373 
         -25      1.10751  6.69003e-05 -2.31818e-05       3.5373 
         -25      1.15414  6.15004e-05 -2.37428e-05       3.5373 
         -25      1.20173  5.59886e-05 -2.42672e-05       3.5373 
         -25      1.25028  5.04108e-05 -2.47543e-05      3.53729 
         -25      1.29979  4.48377e-05 -2.52056e-05      3.53729 
         -25      1.35026  3.93179e-05 -2.55684e-05      3.53729 
         -25       1.4017  3.33625e-05 -2.58817e-05      3.53728 
         -25      1.45409  2.70362e-05 -2.62111e-05      3.53728 
         -25      1.50745  2.05548e-05  -2.6504e-05      3.53727 
         -25      1.56176   1.4088e-05 -2.67276e-05      3.53727 
         -25      1.61705   7.7606e-06 -2.68663e-05      3.53726 
         -25      1.67329  1.65874e-06 -2.69188e-05      3.53726 
         -25      1.73049 -4.16772e-06 -2.68945e-05      3.53725 
         -25      1.78865 -9.69681e-06 -2.68098e-05      3.53725 
         -25      1.84778 -1.49274e-05 -2.66834e-05      3.53724 
         -25      1.90786 -1.98693e-05 -2.65321e-05      3.53724 
         -25      1.96891 -2.45371e-05 -2.63666e-05      3.53723 
         -25      2.03092 -2.89392e-05 -2.61876e-05      3.53722 
         -25      2.09389 -3.30704e-05 -2.59828e-05      3.53722 
         -25      2.15782 -3.69038e-05 -2.57254e-05      3.53721 
         -25      2.22272 -4.03878e-05  -2.5374e-05       3.5372 
         -25      2.28857 -4.34426e-05  -2.4875e-05       3.5372 
         -25      2.35539 -4.59628e-05 -2.41686e-05      3.53719 
         -25      2.42317  -4.7825e-05 -2.31977e-05      3.53718 
         -25      2.49191 -4.89018e-05 -2.19229e-05      3.53717 
         -25      2.56161 -4.90853e-05 -2.03418e-05      3.53716 
         -25      2.63226 -4.83198e-05 -1.85164e-05      3.53715 
         -25      2.70389 -4.66478e-05 -1.66081e-05      3.53714 
         -25      2.77648 -4.40157e-05 -1.38355e-05      3.53713 
         -25      2.85002 -4.13058e-05 -1.20397e-05      3.53712 
         -25      2.92453 -3.93606e-05 -1.06991e-05      3.53711 
         -25            3 -3.81124e-05 -9.42936e-06       3.5371 
           0            0  -9.2956e-21  3.16465e-25      3.42041 
           0      0.00048 -8.75547e-07  5.23105e-11      3.42041 
           0     0.001922 -3.15618e-06  4.68721e-10      3.42041 
           0     0.004326   -5.917e-06  2.03578e-09      3.42041 
           0      0.00769  -7.9889e-06  6.08742e-09      3.42041 
           0     0.012017 -8.38244e-06  1.45484e-08      3.42041 
           0     0.017304 -6.63286e-06  2.99598e-08      3.42041 
           0     0.023553 -2.94399e-06  5.55354e-08      3.42041 
           0     0.030763   1.9477e-06  9.51567e-08      3.42041 
           0     0.038936  7.13844e-06  1.53371e-07      3.42041 
           0     0.048069  1.19641e-05  2.35246e-07      3.42041 
           0     0.058163  1.62097e-05  3.46259e-07      3.42041 
           0     0.069219   1.9911e-05  4.92042e-07      3.42041 
           0     0.081236  2.29072e-05  6.78123e-07      3.42041 
           0     0.094215  2.49629e-05  9.10075e-07      3.42041 
           0     0.108155  2.62246e-05  1.19348e-06      3.42041 
           0     0.123056  2.66754e-05  1.53298e-06      3.42041 
           0     0.138918  2.62745e-05  1.93262e-06      3.42041 
           0     0.155744  2.50388e-05  2.39574e-06      3.42041 
           0     0.173529  2.30347e-05  2.92444e-06      3.42041 
           0     0.192276  2.03592e-05  3.52006e-06      3.42041 
           0     0.211984  1.71208e-05   4.1828e-06      3.42041 
           0     0.232655  1.34282e-05  4.91199e-06      3.42041 
           0     0.254285  9.41494e-06  5.70587e-06      3.42041 
           0     0.276877  5.24696e-06  6.56206e-06      3.42041 
           0     0.300431   1.0111e-06   7.4781e-06       3.4204 
           0     0.324946 -3.15228e-06  8.45042e-06       3.4204 
           0     0.350424 -7.14419e-06  9.47533e-06       3.4204 
           0     0.376861 -1.08757e-05   1.0549e-05       3.4204 
           0      0.40426 -1.42727e-05  1.16682e-05       3.4204 
           0     0.432621 -1.72765e-05  1.28292e-05       3.4204 
           0     0.461945 -1.98449e-05  1.40288e-05       3.4204 
           0     0.492228 -2.19519e-05  1.52631e-05       3.4204 
           0     0.523472 -2.35874e-05  1.65282e-05       3.4204 
           0     0.555678 -2.47556e-05  1.78202e-05       3.4204 
           0     0.588845 -2.54738e-05  1.91356e-05       3.4204 
           0     0.622976 -2.57743e-05  2.04722e-05       3.4204 
           0     0.658066  -2.5708e-05  2.18196e-05       3.4204 
           0     0.694117 -2.53244e-05   2.3174e-05       3.4204 
           0      0.73113 -2.47063e-05   2.4531e-05       3.4204 
           0     0.769107 -2.39368e-05  2.58849e-05       3.4204 
           0     0.808042 -2.30953e-05  2.72283e-05       3.4204 
           0     0.847939 -2.22541e-05   2.8554e-05       3.4204 
           0     0.888797 -2.14747e-05  2.98542e-05       3.4204 
           0      0.93062 -2.08057e-05  3.11217e-05       3.4204 
           0       0.9734 -2.02801e-05  3.23503e-05      3.42039 
           0      1.01714 -1.99157e-05  3.35352e-05      3.42039 
           0      1.06185 -1.97164e-05  3.46733e-05      3.42039 
           0      1.10751 -1.96769e-05  3.57627e-05      3.42039 
           0      1.15414 -1.97913e-05  3.68025e-05      3.42039 
           0      1.20173 -2.00658e-05  3.77905e-05      3.42039 
           0      1.25028 -2.05387e-05  3.87218e-05      3.42039 
           0      1.29979 -2.13066e-05  3.95847e-05      3.42038 
           0      1.35026 -2.23473e-05  4.03762e-05      3.42038 
           0       1.4017 -2.31149e-05  4.11258e-05      3.42038 
           0      1.45409 -2.38069e-05  4.18017e-05      3.42038 
           0      1.50745  -2.4532e-05  4.23904e-05      3.42038 
           0      1.56176 -2.53655e-05  4.28835e-05      3.42038 
           0      1.61705 -2.63512e-05  4.32775e-05      3.42037 
           0      1.67329 -2.75035e-05  4.35726e-05      3.42037 
           0      1.73049 -2.88113e-05  4.37725e-05      3.42037 
           0      1.78865  -3.0243e-05   4.3883e-05      3.42037 
           0      1.84778 -3.17511e-05  4.39108e-05      3.42036 
           0      1.90786 -3.32785e-05  4.38628e-05      3.42036 
           0      1.96891 -3.47652e-05  4.37445e-05      3.42036 
           0      2.03092  -3.6155e-05  4.35594e-05      3.42035 
           0      2.09389 -3.74017e-05  4.33076e-05      3.42035 
           0      2.15782 -3.84748e-05  4.29854e-05      3.42035 
           0      2.22272 -3.93656e-05   4.2585e-05      3.42034 
           0      2.28857 -4.00894e-05  4.20948e-05      3.42034 
           0      2.35539 -4.06875e-05  4.14999e-05      3.42034 
           0      2.42317 -4.12248e-05  4.07841e-05      3.42033 
           0      2.49191 -4.17842e-05  3.99329e-05      3.42033 
           0      2.56161 -4.24562e-05  3.89368e-05      3.42032 
           0      2.63226 -4.33221e-05  3.77976e-05      3.42032 
           0      2.70389 -4.44301e-05  3.65352e-05      3.42032 
           0      2.77648 -4.58562e-05  3.53744e-05      3.42031 
           0      2.85002 -4.70528e-05  3.45386e-05      3.42031 
           0      2.92453 -4.75949e-05   3.3908e-05       3.4203 
           0            3 -4.75314e-05  3.36057e-05      3.42029 
          20            0 -6.22823e-21  1.87977e-25      3.33841 
          20      0.00048  -5.7903e-07  3.00654e-11      3.33841 
          20     0.001922  -1.9973e-06  2.63353e-10      3.33841 
          20     0.004326 -3.40583e-06  1.14191e-09      3.33841 
          20      0.00769 -3.73489e-06  3.44216e-09      3.33841 
          20     0.012017 -2.08238e-06  8.33733e-09      3.33841 
          20     0.017304  1.96257e-06  1.74603e-08      3.33841 
          20     0.023553  8.19253e-06  3.29905e-08      3.33841 
          20     0.030763  1.59041e-05  5.77079e-08      3.33841 
          20     0.038936  2.42379e-05  9.50454e-08      3.33841 
          20     0.048069  3.25484e-05  1.49045e-07      3.33841 
          20     0.058163  4.05973e-05  2.24329e-07      3.33841 
          20     0.069219  4.83641e-05  3.25962e-07      3.33841 
          20     0.081236   5.5636e-05  4.59296e-07      3.33841 
          20     0.094215  6.21401e-05  6.30039e-07      3.33841 
          20     0.108155  6.79348e-05  8.44178e-07      3.33841 
          20     0.123056  7.29361e-05  1.10736e-06      3.33841 
          20     0.138918  7.70366e-05  1.42503e-06      3.33841 
          20     0.155744  8.01873e-05  1.80226e-06      3.33841 
          20     0.173529  8.23899e-05   2.2433e-06      3.33841 
          20     0.192276  8.36857e-05  2.75185e-06      3.33841 
          20     0.211984  8.41368e-05  3.33067e-06      3.33841 
          20     0.232655  8.38184e-05  3.98173e-06      3.33841 
          20     0.254285  8.28402e-05   4.7059e-06      3.33841 
          20     0.276877  8.13562e-05  5.50327e-06      3.33841 
          20     0.300431  7.94571e-05  6.37354e-06      3.33841 
          20     0.324946  7.72939e-05  7.31522e-06      3.33841 
          20     0.350424  7.49868e-05  8.32628e-06      3.33841 
          20     0.376861  7.26501e-05  9.40416e-06      3.33841 
          20      0.40426  7.03871e-05  1.05463e-05      3.33841 
          20     0.432621  6.82865e-05  1.17496e-05      3.33841 
          20     0.461945  6.64186e-05  1.30109e-05      3.33841 
          20     0.492228  6.48341e-05  1.43259e-05      3.33841 
          20     0.523472  6.35624e-05  1.56907e-05      3.33841 
          20     0.555678   6.2612e-05  1.71006e-05      3.33841 
          20     0.588845  6.19716e-05  1.85508e-05      3.33841 
          20     0.622976    6.161e-05  2.00372e-05      3.33841 
          20     0.658066  6.14669e-05  2.15528e-05      3.33841 
          20     0.694117  6.14905e-05   2.3089e-05      3.33841 
          20      0.73113  6.15833e-05  2.46405e-05      3.33841 
          20     0.769107  6.16474e-05  2.62006e-05      3.33841 
          20     0.808042  6.15882e-05  2.77612e-05      3.33841 
          20     0.847939  6.13195e-05  2.93141e-05      3.33841 
          20     0.888797  6.07677e-05  3.08508e-05       3.3384 
          20      0.93062  5.98763e-05  3.23634e-05       3.3384 
          20       0.9734  5.86086e-05  3.38443e-05       3.3384 
          20      1.01714  5.69492e-05  3.52879e-05       3.3384 
          20      1.06185  5.49033e-05  3.66895e-05       3.3384 
          20      1.10751  5.24923e-05  3.80461e-05       3.3384 
          20      1.15414  4.97449e-05  3.93555e-05       3.3384 
          20      1.20173   4.6684e-05  4.06148e-05       3.3384 
          20      1.25028   4.3303e-05  4.18194e-05       3.3384 
          20      1.29979  3.95366e-05  4.29594e-05       3.3384 
          20      1.35026  3.55319e-05  4.40388e-05       3.3384 
          20       1.4017  3.17796e-05  4.50831e-05       3.3384 
          20      1.45409  2.79866e-05  4.60555e-05      3.33839 
          20      1.50745  2.41628e-05  4.69431e-05      3.33839 
          20      1.56176  2.03164e-05  4.77364e-05      3.33839 
          20      1.61705  1.64535e-05  4.84294e-05      3.33839 
          20      1.67329   1.2581e-05  4.90187e-05      3.33839 
          20      1.73049  8.70511e-06  4.95042e-05      3.33839 
          20      1.78865  4.83375e-06  4.98877e-05      3.33839 
          20      1.84778  9.77057e-07  5.01732e-05      3.33838 
          20      1.90786 -2.85061e-06  5.03656e-05      3.33838 
          20      1.96891 -6.63179e-06  5.04706e-05      3.33838 
          20      2.03092 -1.03439e-05   5.0494e-05      3.33838 
          20      2.09389 -1.39598e-05  5.04407e-05      3.33838 
          20      2.15782 -1.74465e-05   5.0314e-05      3.33837 
          20      2.22272 -2.07682e-05  5.01155e-05      3.33837 
          20      2.28857 -2.38862e-05  4.98438e-05      3.33837 
          20      2.35539 -2.67618e-05  4.94948e-05      3.33837 
          20      2.42317   -2.936e-05  4.90611e-05      3.33836 
          20      2.49191 -3.16537e-05  4.85321e-05      3.33836 
          20      2.56161 -3.36315e-05  4.78947e-05      3.33836 
          20      2.63226 -3.53052e-05  4.71341e-05      3.33835 
          20      2.70389 -3.67214e-05  4.62349e-05      3.33835 
          20      2.77648  -3.8099e-05  4.53092e-05      3.33835 
          20      2.85002  -3.9692e-05  4.44883e-05      3.33835 
          20      2.92453 -4.15368e-05  4.27401e-05      3.33834 
          20            3 -4.34177e-05  4.10024e-05      3.33834 
          40            0 -6.05507e-21  1.15797e-25      3.26215 
          40      0.00048 -5.62971e-07  -2.8606e-12      3.26215 
          40     0.001922 -1.94209e-06  -1.7873e-10      3.26215 
          40     0.004326 -3.31027e-06  -1.0083e-09      3.26215 
          40      0.00769 -3.61826e-06 -3.22023e-09      3.26215 
          40     0.012017 -1.96535e-06 -7.69365e-09      3.26215 
          40     0.017304  2.09069e-06 -1.53164e-08      3.26215 
          40     0.023553  8.40989e-06 -2.68413e-08      3.26215 
          40     0.030763  1.63823e-05  -4.2715e-08      3.26215 
          40     0.038936  2.52465e-05 -6.29377e-08      3.26215 
          40     0.048069  3.44347e-05 -8.69214e-08      3.26215 
          40     0.058163  4.37517e-05 -1.13432e-07      3.26215 
          40     0.069219  5.31903e-05 -1.40551e-07      3.26215 
          40     0.081236  6.25422e-05 -1.65662e-07      3.26215 
          40     0.094215  7.15314e-05 -1.85383e-07      3.26215 
          40     0.108155  8.01709e-05  -1.9556e-07      3.26215 
          40     0.123056  8.83278e-05 -1.91648e-07      3.26215 
          40     0.138918  9.58334e-05 -1.68678e-07      3.26215 
          40     0.155744  0.000102566 -1.21476e-07      3.26215 
          40     0.173529  0.000108444 -4.48828e-08      3.26215 
          40     0.192276  0.000113425  6.61104e-08      3.26215 
          40     0.211984   0.00011749  2.16154e-07      3.26215 
          40     0.232655  0.000120635  4.09416e-07      3.26215 
          40     0.254285  0.000122903  6.49319e-07      3.26215 
          40     0.276877  0.000124387  9.38441e-07      3.26215 
          40     0.300431  0.000125133  1.27919e-06      3.26215 
          40     0.324946   0.00012526  1.67252e-06      3.26215 
          40     0.350424  0.000124868  2.11861e-06      3.26215 
          40     0.376861  0.000124061  2.61692e-06      3.26215 
          40      0.40426  0.000122941  3.16644e-06      3.26215 
          40     0.432621  0.000121604  3.76537e-06      3.26215 
          40     0.461945  0.000120131  4.41118e-06      3.26215 
          40     0.492228  0.000118591  5.10041e-06      3.26215 
          40     0.523472  0.000117026  5.82908e-06      3.26215 
          40     0.555678  0.000115463  6.59269e-06      3.26215 
          40     0.588845  0.000113904  7.38671e-06      3.26215 
          40     0.622976  0.000112334  8.20752e-06      3.26215 
          40     0.658066  0.000110716  9.04667e-06      3.26215 
          40     0.694117  0.000109009  9.89511e-06      3.26215 
          40      0.73113  0.000107145  1.07503e-05      3.26215 
          40     0.769107  0.000105056  1.16079e-05      3.26215 
          40     0.808042  0.000102688  1.24622e-05      3.26215 
          40     0.847939   9.9995e-05  1.33072e-05      3.26215 
          40     0.888797  9.69503e-05  1.41367e-05      3.26215 
          40      0.93062  9.35426e-05  1.49456e-05      3.26215 
          40       0.9734  8.97817e-05    1.573e-05      3.26215 
          40      1.01714  8.56952e-05  1.64879e-05      3.26215 
          40      1.06185  8.13283e-05  1.72195e-05      3.26214 
          40      1.10751  7.67375e-05  1.79267e-05      3.26214 
          40      1.15414  7.19819e-05  1.86122e-05      3.26214 
          40      1.20173   6.7111e-05  1.92768e-05      3.26214 
          40      1.25028  6.21427e-05  1.99173e-05      3.26214 
          40      1.29979  5.70386e-05  2.05201e-05      3.26214 
          40      1.35026  5.18541e-05  2.10904e-05      3.26214 
          40       1.4017  4.66281e-05  2.16805e-05      3.26214 
          40      1.45409  4.11668e-05  2.22423e-05      3.26214 
          40      1.50745  3.55634e-05   2.2759e-05      3.26214 
          40      1.56176  2.98961e-05  2.32195e-05      3.26214 
          40      1.61705  2.42271e-05  2.36181e-05      3.26214 
          40      1.67329  1.86047e-05  2.39536e-05      3.26213 
          40      1.73049  1.30616e-05   2.4228e-05      3.26213 
          40      1.78865  7.61721e-06  2.44461e-05      3.26213 
          40      1.84778  2.27914e-06  2.46138e-05      3.26213 
          40      1.90786 -2.95341e-06   2.4737e-05      3.26213 
          40      1.96891 -8.08969e-06  2.48208e-05      3.26213 
          40      2.03092 -1.31423e-05  2.48678e-05      3.26213 
          40      2.09389 -1.81252e-05  2.48777e-05      3.26212 
          40      2.15782 -2.30477e-05  2.48469e-05      3.26212 
          40      2.22272 -2.79141e-05  2.47683e-05      3.26212 
          40      2.28857 -3.27168e-05  2.46319e-05      3.26212 
          40      2.35539  -3.7434e-05  2.44264e-05      3.26212 
          40      2.42317 -4.20258e-05  2.41419e-05      3.26212 
          40      2.49191 -4.64296e-05  2.37737e-05      3.26211 
          40      2.56161 -5.05595e-05  2.33276e-05      3.26211 
          40      2.63226 -5.43038e-05  2.28275e-05      3.26211 
          40      2.70389 -5.75247e-05  2.23248e-05      3.26211 
          40      2.77648 -6.01518e-05  2.17398e-05       3.2621 
          40      2.85002 -6.24652e-05  2.10486e-05       3.2621 
          40      2.92453 -6.44285e-05  2.05158e-05       3.2621 
          40            3  -6.6016e-05  2.00919e-05       3.2621 
          60            0            0            0      3.18941 
          60      0.00048 -9.90899e-07 -2.80262e-11      3.18941 
          60     0.001922 -3.65007e-06 -5.32737e-10      3.18941 
          60     0.004326 -7.13062e-06 -2.76125e-09      3.18941 
          60      0.00769 -1.03389e-05 -8.73583e-09      3.18941 
          60     0.012017 -1.23011e-05 -2.11883e-08      3.18941 
          60     0.017304 -1.24563e-05 -4.34309e-08      3.18941 
          60     0.023553 -1.07887e-05 -7.92533e-08      3.18941 
          60     0.030763 -7.71835e-06 -1.32743e-07      3.18941 
          60     0.038936  -3.8024e-06 -2.08158e-07      3.18941 
          60     0.048069  5.95543e-07 -3.09686e-07      3.18941 
          60     0.058163  5.46529e-06 -4.41371e-07      3.18941 
          60     0.069219  1.09667e-05 -6.06927e-07      3.18941 
          60     0.081236  1.70485e-05 -8.09573e-07      3.18941 
          60     0.094215  2.35735e-05 -1.05188e-06      3.18941 
          60     0.108155   3.0651e-05 -1.33553e-06      3.18941 
          60     0.123056  3.82186e-05 -1.66151e-06      3.18941 
          60     0.138918  4.61436e-05 -2.02992e-06      3.18941 
          60     0.155744  5.43035e-05 -2.44005e-06      3.18941 
          60     0.173529  6.25803e-05 -2.89021e-06      3.18941 
          60     0.192276  7.08628e-05 -3.37816e-06      3.18941 
          60     0.211984  7.90335e-05 -3.90098e-06      3.18941 
          60     0.232655  8.69732e-05 -4.45537e-06      3.18941 
          60     0.254285  9.45865e-05 -5.03752e-06      3.18941 
          60     0.276877  0.000101824 -5.64366e-06      3.18941 
          60     0.300431  0.000108585 -6.27014e-06      3.18941 
          60     0.324946  0.000114842 -6.91325e-06      3.18941 
          60     0.350424  0.000120559 -7.56969e-06      3.18941 
          60     0.376861  0.000125712 -8.23651e-06      3.18941 
          60      0.40426  0.000130292 -8.91154e-06       3.1894 
          60     0.432621  0.000134297 -9.59316e-06       3.1894 
          60     0.461945   0.00013773 -1.02804e-05       3.1894 
          60     0.492228  0.000140596 -1.09727e-05       3.1894 
          60     0.523472  0.000142895 -1.16702e-05       3.1894 
          60     0.555678  0.000144624 -1.23736e-05       3.1894 
          60     0.588845  0.000145772 -1.30844e-05       3.1894 
          60     0.622976   0.00014633 -1.38046e-05       3.1894 
          60     0.658066  0.000146278 -1.45332e-05       3.1894 
          60     0.694117   0.00014561 -1.52766e-05       3.1894 
          60      0.73113  0.000144301 -1.60341e-05       3.1894 
          60     0.769107  0.000142342 -1.68056e-05       3.1894 
          60     0.808042   0.00013974  -1.7591e-05       3.1894 
          60     0.847939  0.000136519 -1.83904e-05       3.1894 
          60     0.888797  0.000132718 -1.92033e-05       3.1894 
          60      0.93062  0.000128392 -2.00283e-05       3.1894 
          60       0.9734  0.000123613  -2.0863e-05       3.1894 
          60      1.01714   0.00011846 -2.17035e-05       3.1894 
          60      1.06185  0.000113024 -2.25444e-05       3.1894 
          60      1.10751  0.000107395 -2.33796e-05       3.1894 
          60      1.15414  0.000101662  -2.4202e-05       3.1894 
          60      1.20173  9.59042e-05 -2.50053e-05       3.1894 
          60      1.25028  9.01824e-05 -2.57859e-05       3.1894 
          60      1.29979  8.45278e-05 -2.65456e-05       3.1894 