Variables = x, y, u, v, p

Zone, I=2080, F=POINT
         -50            0            0            0     -11.3296 
         -50      0.00048 -7.69258e-06 -1.53198e-09     -11.3296 
         -50     0.001922 -2.62996e-05 -5.21312e-09     -11.3296 
         -50     0.004326 -4.48834e-05 -8.72141e-09     -11.3296 
         -50      0.00769 -5.24823e-05 -9.44532e-09     -11.3296 
         -50     0.012017 -4.48727e-05 -5.67844e-09     -11.3296 
         -50     0.017304 -2.75559e-05  2.79928e-09     -11.3296 
         -50     0.023553 -1.24675e-05  1.52209e-08     -11.3296 
         -50     0.030763 -9.34128e-06   3.1296e-08     -11.3296 
         -50     0.038936 -1.70039e-05  5.28401e-08     -11.3296 
         -50     0.048069 -2.28598e-05  8.41131e-08     -11.3296 
         -50     0.058163 -1.64109e-05  1.29708e-07     -11.3296 
         -50     0.069219 -9.21687e-06  1.90437e-07     -11.3296 
         -50     0.081236 -2.16351e-05  2.62252e-07     -11.3296 
         -50     0.094215 -1.10911e-05  3.49188e-07     -11.3296 
         -50     0.108155 -1.44469e-05  4.54977e-07     -11.3296 
         -50     0.123056 -1.37781e-05  5.78631e-07     -11.3296 
         -50     0.138918  -1.2716e-05  7.20646e-07     -11.3296 
         -50     0.155744  -1.2669e-05   8.8139e-07     -11.3296 
         -50     0.173529 -1.32678e-05  1.06095e-06     -11.3296 
         -50     0.192276 -1.34786e-05  1.25923e-06     -11.3296 
         -50     0.211984 -1.29623e-05  1.47573e-06     -11.3296 
         -50     0.232655 -1.27298e-05  1.70964e-06     -11.3296 
         -50     0.254285 -1.33914e-05   1.9599e-06     -11.3296 
         -50     0.276877 -1.25685e-05  2.22595e-06     -11.3296 
         -50     0.300431 -1.24117e-05   2.5067e-06     -11.3296 
         -50     0.324946  -1.1945e-05  2.80111e-06     -11.3296 
         -50     0.350424 -1.12859e-05  3.10874e-06     -11.3296 
         -50     0.376861 -1.04967e-05  3.42917e-06     -11.3296 
         -50      0.40426 -9.59571e-06  3.76219e-06     -11.3296 
         -50     0.432621 -8.57445e-06  4.10754e-06     -11.3296 
         -50     0.461945 -7.41969e-06  4.46496e-06     -11.3296 
         -50     0.492228 -6.13486e-06  4.83394e-06     -11.3295 
         -50     0.523472 -4.75237e-06   5.2138e-06     -11.3295 
         -50     0.555678  -3.3271e-06  5.60349e-06     -11.3295 
         -50     0.588845 -1.89484e-06  6.00154e-06     -11.3295 
         -50     0.622976 -3.86084e-07  6.40562e-06     -11.3295 
         -50     0.658066  1.06299e-06  6.80882e-06     -11.3295 
         -50     0.694117  2.48188e-06  7.22021e-06     -11.3295 
         -50      0.73113  3.83128e-06  7.63613e-06     -11.3295 
         -50     0.769107  5.07417e-06  8.05352e-06     -11.3295 
         -50     0.808042  6.17685e-06  8.46967e-06     -11.3295 
         -50     0.847939  7.11093e-06  8.88233e-06     -11.3295 
         -50     0.888797  7.85408e-06  9.28931e-06     -11.3294 
         -50      0.93062  8.39124e-06  9.68852e-06     -11.3294 
         -50       0.9734  8.71507e-06  1.00776e-05     -11.3294 
         -50      1.01714  8.82636e-06  1.04541e-05     -11.3294 
         -50      1.06185   8.7332e-06  1.08157e-05     -11.3294 
         -50      1.10751   8.4495e-06  1.11603e-05     -11.3294 
         -50      1.15414  7.99219e-06  1.14866e-05     -11.3293 
         -50      1.20173    7.377e-06  1.17956e-05     -11.3293 
         -50      1.25028   6.6121e-06  1.20919e-05     -11.3293 
         -50      1.29979  5.68962e-06   1.2386e-05     -11.3293 
         -50      1.35026   4.6907e-06   1.2708e-05     -11.3293 
         -50       1.4017   3.9837e-06  1.29477e-05     -11.3292 
         -50      1.45409  3.41334e-06  1.30884e-05     -11.3292 
         -50      1.50745  2.86758e-06  1.31858e-05     -11.3292 
         -50      1.56176  2.27305e-06  1.32763e-05     -11.3291 
         -50      1.61705  1.59093e-06  1.33788e-05     -11.3291 
         -50      1.67329  8.11913e-07  1.34973e-05     -11.3291 
         -50      1.73049 -5.05356e-08  1.36236e-05      -11.329 
         -50      1.78865  -9.6711e-07  1.37404e-05      -11.329 
         -50      1.84778 -1.90044e-06  1.38254e-05      -11.329 
         -50      1.90786 -2.81262e-06  1.38552e-05     -11.3289 
         -50      1.96891 -3.67305e-06  1.38092e-05     -11.3289 
         -50      2.03092 -4.46444e-06  1.36735e-05     -11.3288 
         -50      2.09389 -5.18768e-06  1.34443e-05     -11.3288 
         -50      2.15782 -5.86346e-06  1.31306e-05     -11.3287 
         -50      2.22272 -6.53111e-06  1.27552e-05     -11.3287 
         -50      2.28857 -7.24173e-06   1.2355e-05     -11.3286 
         -50      2.35539 -8.04561e-06  1.19779e-05     -11.3286 
         -50      2.42317 -8.97177e-06  1.16777e-05     -11.3285 
         -50      2.49191 -9.99756e-06  1.15055e-05     -11.3284 
         -50      2.56161 -1.10075e-05  1.14961e-05     -11.3284 
         -50      2.63226 -1.17374e-05  1.16495e-05     -11.3283 
         -50      2.70389 -1.17025e-05  1.19065e-05     -11.3282 
         -50      2.77648 -1.07557e-05  1.27783e-05     -11.3282 
         -50      2.85002 -1.03144e-05  1.42354e-05     -11.3281 
         -50      2.92453 -1.00146e-05  1.52626e-05      -11.328 
         -50            3 -9.89928e-06  1.61411e-05     -11.3279 
         -25            0 -6.30852e-20  -6.4593e-24      -10.862 
         -25      0.00048  -5.8532e-06 -5.98417e-10      -10.862 
         -25     0.001922 -2.01502e-05 -2.04652e-09      -10.862 
         -25     0.004326 -3.49038e-05 -3.47169e-09      -10.862 
         -25      0.00769 -4.20987e-05 -3.92338e-09      -10.862 
         -25     0.012017 -3.86242e-05 -2.85734e-09      -10.862 
         -25     0.017304 -2.84469e-05 -3.83851e-10      -10.862 
         -25     0.023553 -2.02188e-05  2.90218e-09      -10.862 
         -25     0.030763 -2.09804e-05  6.47029e-09      -10.862 
         -25     0.038936 -2.98195e-05  1.04686e-08      -10.862 
         -25     0.048069 -3.74946e-05  1.58464e-08      -10.862 
         -25     0.058163 -3.62935e-05  2.35193e-08      -10.862 
         -25     0.069219 -3.45824e-05  3.27674e-08      -10.862 
         -25     0.081236 -4.71453e-05   4.0825e-08      -10.862 
         -25     0.094215 -4.29071e-05  4.79566e-08      -10.862 
         -25     0.108155 -4.86898e-05  5.42628e-08      -10.862 
         -25     0.123056 -5.13996e-05     5.79e-08      -10.862 
         -25     0.138918 -5.36589e-05   5.7615e-08      -10.862 
         -25     0.155744   -5.648e-05  5.21431e-08      -10.862 
         -25     0.173529 -5.95879e-05  4.02221e-08      -10.862 
         -25     0.192276 -6.22327e-05  2.05772e-08     -10.8619 
         -25     0.211984 -6.41779e-05 -8.08192e-09     -10.8619 
         -25     0.232655 -6.61773e-05 -4.70284e-08     -10.8619 
         -25     0.254285 -6.86968e-05  -9.7336e-08     -10.8619 
         -25     0.276877 -7.00278e-05 -1.59691e-07     -10.8619 
         -25     0.300431 -7.17628e-05  -2.3555e-07     -10.8619 
         -25     0.324946 -7.32158e-05 -3.24941e-07     -10.8619 
         -25     0.350424 -7.44952e-05 -4.27811e-07     -10.8619 
         -25     0.376861 -7.56651e-05 -5.44285e-07     -10.8619 
         -25      0.40426 -7.67523e-05 -6.74507e-07     -10.8619 
         -25     0.432621 -7.77571e-05  -8.1834e-07     -10.8619 
         -25     0.461945 -7.86684e-05  -9.7515e-07     -10.8619 
         -25     0.492228 -7.94783e-05 -1.14364e-06     -10.8619 
         -25     0.523472 -8.01918e-05 -1.32201e-06     -10.8619 
         -25     0.555678  -8.0822e-05 -1.50842e-06     -10.8619 
         -25     0.588845 -8.13594e-05 -1.70217e-06     -10.8619 
         -25     0.622976  -8.1712e-05  -1.9053e-06     -10.8619 
         -25     0.658066 -8.19447e-05  -2.1072e-06     -10.8619 
         -25     0.694117 -8.19787e-05 -2.30913e-06     -10.8619 
         -25      0.73113 -8.17962e-05 -2.51152e-06     -10.8619 
         -25     0.769107 -8.13822e-05 -2.71344e-06     -10.8619 
         -25     0.808042 -8.07261e-05 -2.91299e-06     -10.8619 
         -25     0.847939  -7.9822e-05  -3.1078e-06     -10.8619 
         -25     0.888797 -7.86703e-05 -3.29546e-06     -10.8619 
         -25      0.93062 -7.72781e-05 -3.47405e-06     -10.8619 
         -25       0.9734 -7.56601e-05 -3.64252e-06     -10.8619 
         -25      1.01714 -7.38372e-05 -3.80102e-06     -10.8619 
         -25      1.06185 -7.18363e-05 -3.95079e-06     -10.8619 
         -25      1.10751 -6.96874e-05 -4.09378e-06     -10.8619 
         -25      1.15414 -6.74197e-05  -4.2315e-06     -10.8619 
         -25      1.20173 -6.50563e-05 -4.36311e-06     -10.8619 
         -25      1.25028 -6.26053e-05 -4.48249e-06     -10.8618 
         -25      1.29979 -6.00488e-05 -4.57371e-06     -10.8618 
         -25      1.35026 -5.73732e-05 -4.70014e-06     -10.8618 
         -25       1.4017 -5.46234e-05 -4.85927e-06     -10.8618 
         -25      1.45409 -5.17753e-05 -4.93246e-06     -10.8618 
         -25      1.50745 -4.88392e-05 -4.96511e-06     -10.8618 
         -25      1.56176 -4.58141e-05 -4.98686e-06     -10.8618 
         -25      1.61705   -4.269e-05 -5.01349e-06     -10.8618 
         -25      1.67329 -3.94532e-05 -5.04928e-06     -10.8618 
         -25      1.73049 -3.60892e-05 -5.08991e-06     -10.8617 
         -25      1.78865  -3.2588e-05 -5.12563e-06     -10.8617 
         -25      1.84778  -2.8949e-05 -5.14478e-06     -10.8617 
         -25      1.90786 -2.51862e-05 -5.13728e-06     -10.8617 
         -25      1.96891 -2.13308e-05 -5.09807e-06     -10.8617 
         -25      2.03092 -1.74361e-05 -5.03003e-06     -10.8617 
         -25      2.09389 -1.35789e-05 -4.94636e-06     -10.8616 
         -25      2.15782 -9.86122e-06 -4.87175e-06     -10.8616 
         -25      2.22272 -6.40673e-06 -4.84208e-06     -10.8616 
         -25      2.28857 -3.35753e-06 -4.90217e-06     -10.8616 
         -25      2.35539 -8.64936e-07 -5.10088e-06     -10.8615 
         -25      2.42317  9.23242e-07 -5.48311e-06     -10.8615 
         -25      2.49191  1.88093e-06 -6.07752e-06     -10.8615 
         -25      2.56161  1.92992e-06 -6.87985e-06     -10.8615 
         -25      2.63226  1.07238e-06 -7.83011e-06     -10.8614 
         -25      2.70389 -5.66672e-07 -8.78315e-06     -10.8614 
         -25      2.77648 -2.36727e-06 -9.80706e-06     -10.8614 
         -25      2.85002 -4.42551e-06 -1.19663e-05     -10.8614 
         -25      2.92453 -6.49148e-06 -1.36792e-05     -10.8613 
         -25            3 -8.23985e-06 -1.50386e-05     -10.8613 
           0            0 -5.17073e-20 -3.09657e-24     -10.4946 
           0      0.00048 -4.79269e-06 -2.66251e-10     -10.4946 
           0     0.001922 -1.64434e-05 -6.51001e-10     -10.4946 
           0     0.004326 -2.82805e-05  2.36198e-12     -10.4946 
           0      0.00769 -3.36243e-05  3.36076e-09     -10.4946 
           0     0.012017 -2.99188e-05    1.135e-08     -10.4946 
           0     0.017304 -2.05526e-05  2.59832e-08     -10.4946 
           0     0.023553 -1.28477e-05  4.94066e-08     -10.4946 
           0     0.030763 -1.27784e-05  8.40783e-08     -10.4946 
           0     0.038936 -1.96501e-05  1.33002e-07     -10.4946 
           0     0.048069   -2.578e-05  1.99643e-07     -10.4946 
           0     0.058163 -2.47592e-05  2.87471e-07     -10.4946 
           0     0.069219 -2.36468e-05  3.99057e-07     -10.4946 
           0     0.081236 -3.48679e-05  5.35728e-07     -10.4946 
           0     0.094215 -3.23829e-05  6.99927e-07     -10.4946 
           0     0.108155 -3.86769e-05   8.9356e-07     -10.4946 
           0     0.123056 -4.27511e-05  1.11703e-06     -10.4946 
           0     0.138918 -4.67679e-05  1.37044e-06     -10.4946 
           0     0.155744 -5.15264e-05  1.65332e-06     -10.4946 
           0     0.173529 -5.67342e-05  1.96445e-06     -10.4946 
           0     0.192276 -6.16949e-05  2.30216e-06     -10.4946 
           0     0.211984 -6.61381e-05  2.66418e-06     -10.4946 
           0     0.232655 -7.06247e-05  3.04791e-06     -10.4946 
           0     0.254285 -7.54766e-05  3.45047e-06     -10.4946 
           0     0.276877 -7.92002e-05  3.86916e-06     -10.4946 
           0     0.300431 -8.30763e-05  4.30068e-06     -10.4946 
           0     0.324946 -8.64864e-05  4.74259e-06     -10.4946 
           0     0.350424 -8.94881e-05  5.19269e-06     -10.4946 
           0     0.376861 -9.21102e-05  5.64879e-06     -10.4946 
           0      0.40426 -9.43598e-05  6.10908e-06     -10.4946 
           0     0.432621 -9.62306e-05  6.57215e-06     -10.4946 
           0     0.461945 -9.77145e-05  7.03708e-06     -10.4946 
           0     0.492228 -9.88131e-05  7.50342e-06     -10.4946 
           0     0.523472  -9.9544e-05  7.97123e-06     -10.4946 
           0     0.555678 -9.99361e-05  8.44059e-06     -10.4946 
           0     0.588845 -0.000100004  8.91098e-06     -10.4946 
           0     0.622976  -9.9701e-05   9.3805e-06     -10.4946 
           0     0.658066 -9.91089e-05   9.8528e-06     -10.4946 
           0     0.694117  -9.8198e-05  1.03256e-05     -10.4946 
           0      0.73113 -9.69956e-05  1.07976e-05     -10.4946 
           0     0.769107 -9.55302e-05  1.12675e-05     -10.4946 
           0     0.808042 -9.38316e-05  1.17339e-05     -10.4946 
           0     0.847939 -9.19295e-05  1.21956e-05     -10.4946 
           0     0.888797 -8.98535e-05  1.26509e-05     -10.4946 
           0      0.93062 -8.76323e-05  1.30982e-05     -10.4946 
           0       0.9734 -8.52937e-05  1.35357e-05     -10.4946 
           0      1.01714 -8.28636e-05  1.39613e-05     -10.4946 
           0      1.06185 -8.03661e-05  1.43729e-05     -10.4945 
           0      1.10751 -7.78234e-05  1.47684e-05     -10.4945 
           0      1.15414 -7.52559e-05  1.51457e-05     -10.4945 
           0      1.20173 -7.26831e-05  1.55034e-05     -10.4945 
           0      1.25028 -7.01232e-05  1.58408e-05     -10.4945 
           0      1.29979 -6.75949e-05   1.6159e-05     -10.4945 
           0      1.35026 -6.50517e-05  1.64433e-05     -10.4945 
           0       1.4017 -6.21296e-05  1.66976e-05     -10.4945 
           0      1.45409 -5.89129e-05    1.694e-05     -10.4945 
           0      1.50745 -5.55475e-05  1.71548e-05     -10.4945 
           0      1.56176 -5.21594e-05  1.73315e-05     -10.4945 
           0      1.61705 -4.88523e-05  1.74643e-05     -10.4945 
           0      1.67329 -4.57069e-05  1.75516e-05     -10.4945 
           0      1.73049 -4.27789e-05  1.75953e-05     -10.4945 
           0      1.78865 -4.00993e-05  1.75999e-05     -10.4945 
           0      1.84778 -3.76748e-05  1.75713e-05     -10.4945 
           0      1.90786 -3.54901e-05  1.75166e-05     -10.4945 
           0      1.96891 -3.35083e-05  1.74421e-05     -10.4945 
           0      2.03092  -3.1676e-05   1.7353e-05     -10.4944 
           0      2.09389 -2.99271e-05  1.72524e-05     -10.4944 
           0      2.15782 -2.81893e-05  1.71405e-05     -10.4944 
           0      2.22272 -2.63906e-05  1.70149e-05     -10.4944 
           0      2.28857 -2.44689e-05    1.687e-05     -10.4944 
           0      2.35539 -2.23821e-05  1.66985e-05     -10.4944 
           0      2.42317 -2.01206e-05  1.64924e-05     -10.4944 
           0      2.49191 -1.77222e-05   1.6246e-05     -10.4944 
           0      2.56161 -1.52872e-05  1.59592e-05     -10.4944 
           0      2.63226 -1.29978e-05  1.56425e-05     -10.4943 
           0      2.70389 -1.11389e-05  1.53242e-05     -10.4943 
           0      2.77648 -1.00162e-05  1.48515e-05     -10.4943 
           0      2.85002 -9.11842e-06  1.41786e-05     -10.4943 
           0      2.92453 -8.28639e-06  1.36199e-05     -10.4943 
           0            3  -7.5054e-06  1.31124e-05     -10.4943 
          20            0 -4.52958e-20 -1.84744e-24     -10.2356 
          20      0.00048 -4.18844e-06 -1.49296e-10     -10.2356 
          20     0.001922 -1.42541e-05 -2.35444e-10     -10.2356 
          20     0.004326 -2.40865e-05  7.74542e-10     -10.2356 
          20      0.00769 -2.75757e-05  4.44041e-09     -10.2356 
          20     0.012017    -2.24e-05  1.26938e-08     -10.2356 
          20     0.017304 -1.17011e-05  2.77172e-08     -10.2356 
          20     0.023553 -2.23285e-06  5.19624e-08     -10.2356 
          20     0.030763  4.81568e-07   8.8227e-08     -10.2356 
          20     0.038936 -2.96463e-06  1.39776e-07     -10.2356 
          20     0.048069 -5.57104e-06  2.10236e-07     -10.2356 
          20     0.058163 -1.50719e-06  3.03311e-07     -10.2356 
          20     0.069219  2.69785e-06  4.22188e-07     -10.2356 
          20     0.081236 -4.40812e-06  5.69288e-07     -10.2356 
          20     0.094215  1.02075e-06  7.47654e-07     -10.2356 
          20     0.108155 -1.69652e-06  9.59892e-07     -10.2356 
          20     0.123056 -2.50936e-06  1.20763e-06     -10.2356 
          20     0.138918 -3.44099e-06  1.49216e-06     -10.2356 
          20     0.155744 -5.25765e-06  1.81432e-06     -10.2356 
          20     0.173529 -7.71878e-06  2.17429e-06     -10.2356 
          20     0.192276  -1.0205e-05  2.57191e-06     -10.2356 
          20     0.211984  -1.2481e-05  3.00654e-06     -10.2356 
          20     0.232655 -1.50664e-05  3.47727e-06     -10.2356 
          20     0.254285  -1.8254e-05   3.9828e-06     -10.2356 
          20     0.276877 -2.06625e-05  4.52203e-06     -10.2356 
          20     0.300431 -2.34499e-05  5.09361e-06     -10.2356 
          20     0.324946 -2.60247e-05  5.69625e-06     -10.2356 
          20     0.350424 -2.84104e-05  6.32901e-06     -10.2356 
          20     0.376861 -3.06008e-05  6.99092e-06     -10.2356 
          20      0.40426 -3.25671e-05   7.6813e-06     -10.2356 
          20     0.432621 -3.42675e-05  8.39958e-06     -10.2356 
          20     0.461945 -3.56601e-05  9.14533e-06     -10.2356 
          20     0.492228 -3.67147e-05  9.91808e-06     -10.2356 
          20     0.523472 -3.74208e-05  1.07176e-05     -10.2356 
          20     0.555678 -3.77844e-05  1.15434e-05     -10.2356 
          20     0.588845 -3.78068e-05   1.2395e-05     -10.2356 
          20     0.622976 -3.74398e-05  1.32715e-05     -10.2356 
          20     0.658066 -3.67638e-05  1.41677e-05     -10.2356 
          20     0.694117 -3.57711e-05  1.50873e-05     -10.2356 
          20      0.73113 -3.45091e-05  1.60251e-05     -10.2356 
          20     0.769107 -3.30363e-05  1.69764e-05     -10.2356 
          20     0.808042 -3.14191e-05  1.79362e-05     -10.2356 
          20     0.847939 -2.97288e-05  1.89002e-05     -10.2356 
          20     0.888797 -2.80375e-05  1.98636e-05     -10.2356 
          20      0.93062 -2.64144e-05  2.08218e-05     -10.2356 
          20       0.9734 -2.49224e-05  2.17697e-05     -10.2356 
          20      1.01714 -2.36131e-05  2.27024e-05     -10.2355 
          20      1.06185  -2.2526e-05  2.36143e-05     -10.2355 
          20      1.10751 -2.16865e-05  2.45007e-05     -10.2355 
          20      1.15414 -2.11081e-05  2.53572e-05     -10.2355 
          20      1.20173 -2.07969e-05   2.6181e-05     -10.2355 
          20      1.25028 -2.07613e-05  2.69724e-05     -10.2355 
          20      1.29979 -2.10276e-05  2.77364e-05     -10.2355 
          20      1.35026 -2.15021e-05  2.84441e-05     -10.2355 
          20       1.4017 -2.16471e-05   2.9098e-05     -10.2355 
          20      1.45409  -2.1587e-05  2.97419e-05     -10.2355 
          20      1.50745 -2.14185e-05  3.03472e-05     -10.2355 
          20      1.56176 -2.12181e-05  3.08942e-05     -10.2355 
          20      1.61705  -2.1041e-05  3.13715e-05     -10.2355 
          20      1.67329 -2.09218e-05  3.17747e-05     -10.2355 
          20      1.73049 -2.08746e-05  3.21051e-05     -10.2355 
          20      1.78865 -2.08947e-05  3.23685e-05     -10.2355 
          20      1.84778 -2.09609e-05  3.25733e-05     -10.2355 
          20      1.90786 -2.10377e-05  3.27285e-05     -10.2355 
          20      1.96891 -2.10797e-05  3.28423e-05     -10.2355 
          20      2.03092 -2.10353e-05  3.29203e-05     -10.2355 
          20      2.09389 -2.08522e-05  3.29638e-05     -10.2355 
          20      2.15782 -2.04834e-05  3.29695e-05     -10.2355 
          20      2.22272 -1.98934e-05  3.29282e-05     -10.2355 
          20      2.28857 -1.90661e-05   3.2826e-05     -10.2355 
          20      2.35539 -1.80121e-05  3.26455e-05     -10.2355 
          20      2.42317 -1.67773e-05  3.23685e-05     -10.2354 
          20      2.49191  -1.5452e-05  3.19813e-05     -10.2354 
          20      2.56161 -1.41791e-05  3.14807e-05     -10.2354 
          20      2.63226 -1.31639e-05  3.08839e-05     -10.2354 
          20      2.70389 -1.26823e-05  3.02405e-05     -10.2354 
          20      2.77648 -1.29936e-05  2.94386e-05     -10.2354 
          20      2.85002 -1.38222e-05  2.81188e-05     -10.2354 
          20      2.92453 -1.52406e-05  2.66723e-05     -10.2354 
          20            3 -1.67842e-05  2.52439e-05     -10.2354 
          40            0  -4.7089e-20 -1.14378e-24     -9.99396 
          40      0.00048 -4.37493e-06 -8.63358e-11     -9.99396 
          40     0.001922 -1.51301e-05  -4.9535e-11     -9.99396 
          40     0.004326 -2.64641e-05  9.54493e-10     -9.99396 
          40      0.00769 -3.25574e-05  4.19513e-09     -9.99396 
          40     0.012017 -3.11593e-05  1.12204e-08     -9.99396 
          40     0.017304 -2.51623e-05  2.37087e-08     -9.99396 
          40     0.023553 -2.08622e-05  4.34026e-08     -9.99396 
          40     0.030763 -2.33748e-05  7.20623e-08     -9.99396 
          40     0.038936 -3.20239e-05  1.11454e-07     -9.99396 
          40     0.048069 -4.00639e-05  1.63195e-07     -9.99396 
          40     0.058163 -4.18513e-05   2.2851e-07     -9.99396 
          40     0.069219 -4.34231e-05  3.07813e-07     -9.99396 
          40     0.081236  -5.5469e-05  4.00523e-07     -9.99396 
          40     0.094215 -5.53166e-05   5.0593e-07     -9.99396 
          40     0.108155 -6.23973e-05  6.22575e-07     -9.99396 
          40     0.123056 -6.71038e-05  7.47969e-07     -9.99396 
          40     0.138918 -7.12623e-05  8.79103e-07     -9.99396 
          40     0.155744 -7.55322e-05  1.01246e-06     -9.99396 
          40     0.173529 -7.96438e-05  1.14407e-06     -9.99396 
          40     0.192276 -8.29955e-05  1.26977e-06     -9.99396 
          40     0.211984 -8.53736e-05  1.38533e-06     -9.99395 
          40     0.232655 -8.73023e-05  1.48665e-06     -9.99395 
          40     0.254285 -8.91137e-05  1.56992e-06     -9.99395 
          40     0.276877 -8.95767e-05  1.63185e-06     -9.99395 
          40     0.300431 -8.98759e-05  1.66946e-06     -9.99395 
          40     0.324946 -8.95541e-05  1.68076e-06     -9.99395 
          40     0.350424 -8.87426e-05  1.66441e-06     -9.99395 
          40     0.376861 -8.75474e-05  1.61966e-06     -9.99395 
          40      0.40426  -8.6051e-05  1.54639e-06     -9.99395 
          40     0.432621 -8.43181e-05  1.44513e-06     -9.99395 
          40     0.461945 -8.24039e-05  1.31701e-06     -9.99395 
          40     0.492228 -8.03628e-05  1.16371e-06     -9.99395 
          40     0.523472 -7.82523e-05  9.87224e-07     -9.99395 
          40     0.555678 -7.61289e-05  7.89624e-07     -9.99395 
          40     0.588845  -7.4027e-05  5.72685e-07     -9.99395 
          40     0.622976  -7.1915e-05  3.37621e-07     -9.99395 
          40     0.658066  -6.9861e-05  9.07288e-08     -9.99395 
          40     0.694117 -6.78421e-05 -1.70249e-07     -9.99395 
          40      0.73113 -6.58588e-05 -4.43412e-07     -9.99395 
          40     0.769107 -6.39101e-05 -7.27264e-07     -9.99395 
          40     0.808042 -6.19937e-05 -1.02061e-06     -9.99395 
          40     0.847939  -6.0105e-05 -1.32264e-06     -9.99395 
          40     0.888797 -5.82391e-05 -1.63276e-06     -9.99395 
          40      0.93062 -5.63897e-05 -1.95056e-06     -9.99394 
          40       0.9734 -5.45509e-05  -2.2756e-06     -9.99394 
          40      1.01714  -5.2716e-05 -2.60756e-06     -9.99394 
          40      1.06185 -5.08789e-05 -2.94598e-06     -9.99394 
          40      1.10751 -4.90334e-05  -3.2904e-06     -9.99394 
          40      1.15414 -4.71733e-05 -3.64045e-06     -9.99394 
          40      1.20173 -4.52919e-05 -3.99598e-06     -9.99394 
          40      1.25028 -4.33805e-05  -4.3576e-06     -9.99394 
          40      1.29979 -4.14263e-05 -4.72729e-06     -9.99393 
          40      1.35026 -3.94349e-05 -5.09946e-06     -9.99393 
          40       1.4017 -3.73935e-05 -5.45618e-06     -9.99393 
          40      1.45409 -3.53017e-05 -5.80801e-06     -9.99393 
          40      1.50745 -3.32063e-05 -6.15592e-06     -9.99393 
          40      1.56176 -3.11437e-05 -6.49966e-06     -9.99392 
          40      1.61705 -2.91403e-05 -6.83807e-06     -9.99392 
          40      1.67329 -2.72148e-05 -7.16927e-06     -9.99392 
          40      1.73049 -2.53792e-05 -7.49115e-06     -9.99392 
          40      1.78865 -2.36411e-05 -7.80166e-06     -9.99391 
          40      1.84778 -2.20061e-05  -8.0992e-06     -9.99391 
          40      1.90786 -2.04799e-05 -8.38283e-06     -9.99391 
          40      1.96891 -1.90701e-05 -8.65272e-06      -9.9939 
          40      2.03092 -1.77883e-05  -8.9102e-06      -9.9939 
          40      2.09389 -1.66514e-05 -9.15786e-06      -9.9939 
          40      2.15782 -1.56823e-05  -9.3993e-06     -9.99389 
          40      2.22272 -1.49091e-05 -9.63887e-06     -9.99389 
          40      2.28857 -1.43636e-05 -9.88087e-06     -9.99388 
          40      2.35539 -1.40776e-05 -1.01285e-05     -9.99388 
          40      2.42317  -1.4077e-05 -1.03822e-05     -9.99388 
          40      2.49191 -1.43736e-05 -1.06377e-05     -9.99387 
          40      2.56161 -1.49527e-05 -1.08831e-05     -9.99387 
          40      2.63226 -1.57576e-05  -1.1095e-05     -9.99386 
          40      2.70389 -1.66694e-05 -1.12344e-05     -9.99386 
          40      2.77648 -1.75134e-05 -1.13668e-05     -9.99385 
          40      2.85002 -1.81079e-05 -1.13798e-05     -9.99384 
          40      2.92453 -1.83615e-05 -1.10892e-05     -9.99384 
          40            3   -1.829e-05 -1.06068e-05     -9.99383 
          60            0            0            0     -9.76307 
          60      0.00048 -4.29227e-06 -2.00698e-11     -9.76307 
          60     0.001922 -1.48933e-05  5.22358e-10     -9.76307 
          60     0.004326 -2.62343e-05  3.39107e-09     -9.76307 
          60      0.00769 -3.27413e-05  1.13768e-08     -9.76307 
          60     0.012017 -3.22907e-05   2.8131e-08     -9.76307 
          60     0.017304 -2.77203e-05  5.79345e-08     -9.76307 
          60     0.023553 -2.51516e-05  1.05542e-07     -9.76307 
          60     0.030763 -2.95665e-05  1.75965e-07     -9.76307 
          60     0.038936 -4.03603e-05  2.74319e-07     -9.76307 
          60     0.048069  -5.1068e-05  4.05478e-07     -9.76307 
          60     0.058163 -5.62763e-05  5.73816e-07     -9.76307 
          60     0.069219 -6.18129e-05  7.82749e-07     -9.76307 
          60     0.081236 -7.79708e-05  1.03443e-06     -9.76307 
          60     0.094215 -8.28726e-05  1.33024e-06     -9.76307 
          60     0.108155 -9.52016e-05  1.67025e-06     -9.76307 
          60     0.123056 -0.000105637  2.05306e-06     -9.76307 
          60     0.138918 -0.000115866  2.47606e-06     -9.76307 
          60     0.155744 -0.000126441  2.93563e-06     -9.76307 
          60     0.173529 -0.000137009  3.42698e-06     -9.76307 
          60     0.192276 -0.000146901  3.94479e-06     -9.76307 
          60     0.211984  -0.00015582  4.48313e-06     -9.76307 
          60     0.232655 -0.000164186  5.03596e-06     -9.76307 
          60     0.254285 -0.000172239  5.59723e-06     -9.76307 
          60     0.276877 -0.000178727  6.16147e-06     -9.76307 
          60     0.300431 -0.000184732  6.72338e-06     -9.76307 
          60     0.324946 -0.000189769  7.27888e-06     -9.76307 
          60     0.350424 -0.000193928   7.8248e-06     -9.76306 
          60     0.376861 -0.000197282  8.35872e-06     -9.76306 
          60      0.40426 -0.000199891  8.87941e-06     -9.76306 
          60     0.432621 -0.000201799  9.38666e-06     -9.76306 
          60     0.461945 -0.000203048  9.88134e-06     -9.76306 
          60     0.492228 -0.000203674  1.03653e-05     -9.76306 
          60     0.523472  -0.00020372  1.08412e-05     -9.76306 
          60     0.555678 -0.000203219  1.13123e-05     -9.76306 
          60     0.588845 -0.000202184  1.17819e-05     -9.76306 
          60     0.622976 -0.000200563   1.2253e-05     -9.76306 
          60     0.658066 -0.000198403  1.27313e-05     -9.76306 
          60     0.694117 -0.000195672  1.32186e-05     -9.76306 
          60      0.73113 -0.000192355  1.37177e-05     -9.76306 
          60     0.769107 -0.000188453    1.423e-05     -9.76306 
          60     0.808042  -0.00018399  1.47562e-05     -9.76306 
          60     0.847939 -0.000179003  1.52956e-05     -9.76306 
          60     0.888797 -0.000173551   1.5847e-05     -9.76306 
          60      0.93062 -0.000167703  1.64076e-05     -9.76306 
          60       0.9734 -0.000161543  1.69739e-05     -9.76306 
          60      1.01714  -0.00015516  1.75416e-05     -9.76306 
          60      1.06185 -0.000148646  1.81057e-05     -9.76306 
          60      1.10751 -0.000142087  1.86611e-05     -9.76306 
          60      1.15414 -0.000135556  1.92023e-05     -9.76305 
          60      1.20173 -0.000129107  1.97244e-05     -9.76305 
          60      1.25028 -0.000122763  2.02232e-05     -9.76305 
          60      1.29979 -0.000116507  2.06959e-05     -9.76305 