Variables = x, y, u, v, p

Zone, I=2080, F=POINT
         -50            0            0            0     -30.1051 
         -50      0.00048 -1.94708e-05 -2.40297e-09     -30.1051 
         -50     0.001922 -6.99223e-05   -9.628e-09     -30.1051 
         -50     0.004326 -0.000131111  -2.1774e-08     -30.1051 
         -50      0.00769 -0.000180464 -3.92263e-08     -30.1051 
         -50     0.012017 -0.000204222 -6.29211e-08     -30.1051 
         -50     0.017304 -0.000203696 -9.44175e-08     -30.1051 
         -50     0.023553 -0.000193036 -1.35902e-07     -30.1051 
         -50     0.030763 -0.000188463 -1.89894e-07     -30.1051 
         -50     0.038936 -0.000195247 -2.58948e-07     -30.1051 
         -50     0.048069 -0.000202912 -3.45327e-07     -30.1051 
         -50     0.058163  -0.00019775 -4.51017e-07     -30.1051 
         -50     0.069219 -0.000187485 -5.77608e-07     -30.1051 
         -50     0.081236  -0.00019681 -7.25122e-07     -30.1051 
         -50     0.094215 -0.000187714 -8.91704e-07     -30.1051 
         -50     0.108155 -0.000187384 -1.08077e-06     -30.1051 
         -50     0.123056 -0.000184797 -1.28945e-06     -30.1051 
         -50     0.138918 -0.000181989 -1.51649e-06     -30.1051 
         -50     0.155744 -0.000179821  -1.7602e-06     -30.1051 
         -50     0.173529 -0.000178206 -2.01838e-06     -30.1051 
         -50     0.192276 -0.000176674 -2.28866e-06     -30.1051 
         -50     0.211984 -0.000175083  -2.5685e-06     -30.1051 
         -50     0.232655 -0.000173983 -2.85549e-06     -30.1051 
         -50     0.254285 -0.000173723  -3.1474e-06     -30.1051 
         -50     0.276877 -0.000173099  -3.4421e-06     -30.1051 
         -50     0.300431 -0.000173194 -3.73817e-06      -30.105 
         -50     0.324946 -0.000173511 -4.03487e-06      -30.105 
         -50     0.350424 -0.000174086 -4.33165e-06      -30.105 
         -50     0.376861 -0.000174923 -4.62866e-06      -30.105 
         -50      0.40426    -0.000176 -4.92672e-06      -30.105 
         -50     0.432621 -0.000177282 -5.22692e-06      -30.105 
         -50     0.461945 -0.000178729 -5.53039e-06      -30.105 
         -50     0.492228 -0.000180308 -5.83786e-06      -30.105 
         -50     0.523472 -0.000182003  -6.1495e-06      -30.105 
         -50     0.555678 -0.000183807 -6.46477e-06     -30.1049 
         -50     0.588845 -0.000185701  -6.7826e-06     -30.1049 
         -50     0.622976 -0.000187609  -7.1026e-06     -30.1049 
         -50     0.658066 -0.000189548  -7.4274e-06     -30.1049 
         -50     0.694117 -0.000191473 -7.75059e-06     -30.1048 
         -50      0.73113 -0.000193337  -8.0739e-06     -30.1048 
         -50     0.769107 -0.000195099 -8.39744e-06     -30.1048 
         -50     0.808042 -0.000196727 -8.71996e-06     -30.1048 
         -50     0.847939 -0.000198199 -9.03937e-06     -30.1047 
         -50     0.888797   -0.0001995 -9.35315e-06     -30.1047 
         -50      0.93062 -0.000200626 -9.65893e-06     -30.1047 
         -50       0.9734 -0.000201579 -9.95482e-06     -30.1046 
         -50      1.01714 -0.000202369   -1.024e-05     -30.1046 
         -50      1.06185 -0.000203008 -1.05146e-05     -30.1045 
         -50      1.10751 -0.000203509 -1.07798e-05     -30.1045 
         -50      1.15414  -0.00020388 -1.10366e-05     -30.1044 
         -50      1.20173 -0.000204124 -1.12847e-05     -30.1044 
         -50      1.25028 -0.000204228 -1.15199e-05     -30.1043 
         -50      1.29979 -0.000204159 -1.17302e-05     -30.1042 
         -50      1.35026 -0.000204087 -1.19654e-05     -30.1042 
         -50       1.4017 -0.000204001 -1.22056e-05     -30.1041 
         -50      1.45409 -0.000203561 -1.23557e-05      -30.104 
         -50      1.50745 -0.000202865 -1.24626e-05      -30.104 
         -50      1.56176 -0.000202016 -1.25636e-05     -30.1039 
         -50      1.61705 -0.000201121 -1.26864e-05     -30.1038 
         -50      1.67329 -0.000200278 -1.28481e-05     -30.1037 
         -50      1.73049 -0.000199572 -1.30558e-05     -30.1036 
         -50      1.78865 -0.000199069 -1.33064e-05     -30.1035 
         -50      1.84778 -0.000198809 -1.35874e-05     -30.1034 
         -50      1.90786 -0.000198799 -1.38776e-05     -30.1033 
         -50      1.96891 -0.000199012 -1.41493e-05     -30.1032 
         -50      2.03092 -0.000199383 -1.43694e-05      -30.103 
         -50      2.09389 -0.000199811 -1.45023e-05     -30.1029 
         -50      2.15782 -0.000200164 -1.45127e-05     -30.1028 
         -50      2.22272  -0.00020029 -1.43694e-05     -30.1026 
         -50      2.28857 -0.000200031  -1.4049e-05     -30.1025 
         -50      2.35539 -0.000199246 -1.35413e-05     -30.1023 
         -50      2.42317 -0.000197845 -1.28545e-05     -30.1022 
         -50      2.49191 -0.000195826 -1.20218e-05      -30.102 
         -50      2.56161 -0.000193337  -1.1108e-05     -30.1018 
         -50      2.63226 -0.000190738 -1.02177e-05     -30.1016 
         -50      2.70389 -0.000188688 -9.50365e-06     -30.1014 
         -50      2.77648 -0.000187844 -9.15555e-06     -30.1012 
         -50      2.85002 -0.000187331 -9.16043e-06      -30.101 
         -50      2.92453 -0.000187145 -9.41067e-06     -30.1008 
         -50            3 -0.000187167 -9.81578e-06     -30.1006 
         -25            0 -1.51003e-19 -9.63122e-24     -28.8872 
         -25      0.00048 -1.41985e-05 -9.04564e-10     -28.8872 
         -25     0.001922 -5.10036e-05 -3.21725e-09     -28.8872 
         -25     0.004326 -9.56945e-05 -5.77258e-09     -28.8872 
         -25      0.00769 -0.000131868 -6.77968e-09     -28.8872 
         -25     0.012017 -0.000149558 -4.00463e-09     -28.8872 
         -25     0.017304 -0.000149783  5.05566e-09     -28.8872 
         -25     0.023553 -0.000142921  2.30478e-08     -28.8872 
         -25     0.030763 -0.000140851  5.26762e-08     -28.8872 
         -25     0.038936 -0.000147466  9.66646e-08     -28.8872 
         -25     0.048069 -0.000155167  1.57627e-07     -28.8872 
         -25     0.058163 -0.000153977  2.37953e-07     -28.8872 
         -25     0.069219 -0.000149511  3.39673e-07     -28.8872 
         -25     0.081236 -0.000159723  4.64751e-07     -28.8872 
         -25     0.094215 -0.000156869  6.15161e-07     -28.8872 
         -25     0.108155 -0.000160674   7.8998e-07     -28.8872 
         -25     0.123056 -0.000163024  9.89997e-07     -28.8872 
         -25     0.138918 -0.000165303  1.21463e-06     -28.8872 
         -25     0.155744 -0.000168042   1.4629e-06     -28.8872 
         -25     0.173529 -0.000171078  1.73338e-06     -28.8872 
         -25     0.192276 -0.000173983  2.02455e-06     -28.8872 
         -25     0.211984  -0.00017658  2.33479e-06     -28.8872 
         -25     0.232655 -0.000179208  2.66254e-06     -28.8872 
         -25     0.254285 -0.000182078  3.00619e-06     -28.8872 
         -25     0.276877 -0.000184284  3.36458e-06     -28.8872 
         -25     0.300431 -0.000186599  3.73683e-06     -28.8871 
         -25     0.324946 -0.000188655  4.12228e-06     -28.8871 
         -25     0.350424 -0.000190482  4.52097e-06     -28.8871 
         -25     0.376861 -0.000192084  4.93318e-06     -28.8871 
         -25      0.40426 -0.000193449  5.35964e-06     -28.8871 
         -25     0.432621 -0.000194552  5.80144e-06     -28.8871 
         -25     0.461945 -0.000195361  6.25994e-06     -28.8871 
         -25     0.492228  -0.00019585  6.73667e-06     -28.8871 
         -25     0.523472 -0.000195998  7.23329e-06     -28.8871 
         -25     0.555678 -0.000195794  7.75132e-06     -28.8871 
         -25     0.588845 -0.000195223   8.2918e-06     -28.8871 
         -25     0.622976 -0.000194241  8.85493e-06     -28.8871 
         -25     0.658066 -0.000192888  9.43702e-06     -28.8871 
         -25     0.694117 -0.000191147  1.00399e-05     -28.8871 
         -25      0.73113 -0.000189067  1.06624e-05     -28.8871 
         -25     0.769107 -0.000186704  1.13017e-05      -28.887 
         -25     0.808042 -0.000184124  1.19534e-05      -28.887 
         -25     0.847939 -0.000181395  1.26121e-05      -28.887 
         -25     0.888797 -0.000178589  1.32717e-05      -28.887 
         -25      0.93062 -0.000175771  1.39259e-05      -28.887 
         -25       0.9734 -0.000173003  1.45686e-05      -28.887 
         -25      1.01714 -0.000170332  1.51946e-05      -28.887 
         -25      1.06185 -0.000167795  1.57994e-05     -28.8869 
         -25      1.10751 -0.000165411  1.63799e-05     -28.8869 
         -25      1.15414  -0.00016319  1.69335e-05     -28.8869 
         -25      1.20173  -0.00016113  1.74573e-05     -28.8869 
         -25      1.25028 -0.000159231  1.79467e-05     -28.8869 
         -25      1.29979 -0.000157509  1.83929e-05     -28.8868 
         -25      1.35026  -0.00015584  1.88059e-05     -28.8868 
         -25       1.4017 -0.000153894  1.92041e-05     -28.8868 
         -25      1.45409 -0.000151842  1.95538e-05     -28.8867 
         -25      1.50745 -0.000149704  1.98565e-05     -28.8867 
         -25      1.56176  -0.00014751  2.01127e-05     -28.8867 
         -25      1.61705 -0.000145297   2.0322e-05     -28.8867 
         -25      1.67329 -0.000143109  2.04828e-05     -28.8866 
         -25      1.73049 -0.000140995   2.0593e-05     -28.8866 
         -25      1.78865 -0.000139005    2.065e-05     -28.8865 
         -25      1.84778 -0.000137191   2.0651e-05     -28.8865 
         -25      1.90786 -0.000135602  2.05929e-05     -28.8864 
         -25      1.96891 -0.000134282  2.04733e-05     -28.8864 
         -25      2.03092 -0.000133268    2.029e-05     -28.8864 
         -25      2.09389 -0.000132586   2.0042e-05     -28.8863 
         -25      2.15782 -0.000132248  1.97291e-05     -28.8863 
         -25      2.22272 -0.000132251  1.93528e-05     -28.8862 
         -25      2.28857 -0.000132574  1.89158e-05     -28.8861 
         -25      2.35539 -0.000133176  1.84226e-05     -28.8861 
         -25      2.42317 -0.000133998  1.78794e-05      -28.886 
         -25      2.49191 -0.000134959  1.72937e-05     -28.8859 
         -25      2.56161 -0.000135959  1.66742e-05     -28.8859 
         -25      2.63226 -0.000136883  1.60299e-05     -28.8858 
         -25      2.70389 -0.000137608  1.53696e-05     -28.8857 
         -25      2.77648 -0.000138762  1.40671e-05     -28.8857 
         -25      2.85002 -0.000140351  1.36224e-05     -28.8856 
         -25      2.92453 -0.000141282  1.30247e-05     -28.8855 
         -25            3 -0.000141798  1.19906e-05     -28.8854 
           0            0  -1.2407e-19 -4.63032e-24     -27.9307 
           0      0.00048 -1.16573e-05 -4.47009e-10     -27.9307 
           0     0.001922 -4.17725e-05 -1.73916e-09     -27.9307 
           0     0.004326 -7.80013e-05 -3.73289e-09     -27.9307 
           0      0.00769 -0.000106589 -6.21074e-09     -27.9307 
           0     0.012017 -0.000119178 -8.90247e-09     -27.9307 
           0     0.017304 -0.000116626 -1.14702e-08     -27.9307 
           0     0.023553 -0.000107641 -1.34738e-08     -27.9307 
           0     0.030763 -0.000102206 -1.42938e-08     -27.9307 
           0     0.038936 -0.000103618 -1.30537e-08     -27.9307 
           0     0.048069 -0.000105557 -8.56993e-09     -27.9307 
           0     0.058163 -9.97216e-05  6.46233e-10     -27.9307 
           0     0.069219 -9.08912e-05  1.63739e-08     -27.9307 
           0     0.081236 -9.41988e-05  4.08389e-08     -27.9307 
           0     0.094215 -8.64764e-05  7.67095e-08     -27.9307 
           0     0.108155  -8.4346e-05  1.25702e-07     -27.9307 
           0     0.123056  -8.1092e-05  1.90602e-07     -27.9307 
           0     0.138918 -7.79533e-05  2.73748e-07     -27.9307 
           0     0.155744 -7.54403e-05  3.77384e-07     -27.9307 
           0     0.173529 -7.34718e-05  5.03493e-07     -27.9307 
           0     0.192276 -7.17244e-05  6.53817e-07     -27.9307 
           0     0.211984 -7.00702e-05  8.29714e-07     -27.9307 
           0     0.232655 -6.87966e-05  1.03219e-06     -27.9307 
           0     0.254285 -6.80713e-05  1.26184e-06     -27.9307 
           0     0.276877 -6.71128e-05  1.51895e-06     -27.9307 
           0     0.300431 -6.65395e-05  1.80331e-06     -27.9307 
           0     0.324946 -6.60104e-05  2.11454e-06     -27.9307 
           0     0.350424 -6.55158e-05  2.45188e-06     -27.9307 
           0     0.376861  -6.5033e-05  2.81423e-06     -27.9307 
           0      0.40426 -6.45316e-05   3.2003e-06     -27.9307 
           0     0.432621 -6.39816e-05   3.6085e-06     -27.9307 
           0     0.461945 -6.33609e-05  4.03703e-06     -27.9307 
           0     0.492228 -6.26628e-05  4.48372e-06     -27.9307 
           0     0.523472 -6.19007e-05  4.94626e-06     -27.9307 
           0     0.555678 -6.11056e-05  5.42201e-06     -27.9307 
           0     0.588845 -6.03131e-05  5.90797e-06     -27.9307 
           0     0.622976 -5.95371e-05  6.40087e-06     -27.9307 
           0     0.658066 -5.88615e-05    6.897e-06     -27.9307 
           0     0.694117 -5.83096e-05  7.39148e-06     -27.9307 
           0      0.73113 -5.79468e-05  7.88181e-06     -27.9307 
           0     0.769107 -5.78244e-05  8.36518e-06     -27.9307 
           0     0.808042 -5.79784e-05  8.83859e-06     -27.9307 
           0     0.847939 -5.84291e-05  9.29924e-06     -27.9306 
           0     0.888797 -5.91818e-05  9.74459e-06     -27.9306 
           0      0.93062 -6.02278e-05  1.01727e-05     -27.9306 
           0       0.9734 -6.15465e-05  1.05823e-05     -27.9306 
           0      1.01714 -6.31089e-05  1.09728e-05     -27.9306 
           0      1.06185 -6.48815e-05  1.13448e-05     -27.9306 
           0      1.10751 -6.68313e-05  1.16992e-05     -27.9306 
           0      1.15414 -6.89318e-05   1.2037e-05     -27.9306 
           0      1.20173 -7.11691e-05  1.23587e-05     -27.9306 
           0      1.25028 -7.35496e-05  1.26629e-05     -27.9306 
           0      1.29979 -7.61073e-05  1.29444e-05     -27.9306 
           0      1.35026 -7.87683e-05  1.32132e-05     -27.9305 
           0       1.4017 -8.14605e-05  1.34704e-05     -27.9305 
           0      1.45409 -8.43246e-05  1.36885e-05     -27.9305 
           0      1.50745 -8.72812e-05  1.38745e-05     -27.9305 
           0      1.56176 -9.02589e-05  1.40337e-05     -27.9305 
           0      1.61705 -9.31945e-05  1.41691e-05     -27.9305 
           0      1.67329 -9.60327e-05  1.42826e-05     -27.9305 
           0      1.73049 -9.87268e-05   1.4375e-05     -27.9304 
           0      1.78865 -0.000101238  1.44464e-05     -27.9304 
           0      1.84778 -0.000103534  1.44969e-05     -27.9304 
           0      1.90786 -0.000105591  1.45268e-05     -27.9304 
           0      1.96891  -0.00010739  1.45371e-05     -27.9304 
           0      2.03092 -0.000108916  1.45299e-05     -27.9303 
           0      2.09389 -0.000110162  1.45086e-05     -27.9303 
           0      2.15782 -0.000111122  1.44777e-05     -27.9303 
           0      2.22272 -0.000111796  1.44426e-05     -27.9303 
           0      2.28857 -0.000112188  1.44092e-05     -27.9302 
           0      2.35539 -0.000112305  1.43827e-05     -27.9302 
           0      2.42317 -0.000112164  1.43659e-05     -27.9302 
           0      2.49191 -0.000111786  1.43571e-05     -27.9301 
           0      2.56161 -0.000111209  1.43472e-05     -27.9301 
           0      2.63226 -0.000110486  1.43156e-05     -27.9301 
           0      2.70389 -0.000109693  1.42248e-05       -27.93 
           0      2.77648 -0.000109014  1.40781e-05       -27.93 
           0      2.85002 -0.000108679  1.39047e-05       -27.93 
           0      2.92453 -0.000108654  1.35695e-05     -27.9299 
           0            3  -0.00010897  1.30408e-05     -27.9299 
          20            0 -1.14283e-19 -2.76947e-24     -27.2571 
          20      0.00048 -1.07389e-05 -2.79402e-10     -27.2571 
          20     0.001922 -3.84946e-05 -1.23287e-09     -27.2571 
          20     0.004326  -7.1927e-05 -3.20562e-09     -27.2571 
          20      0.00769 -9.83932e-05 -6.77519e-09     -27.2571 
          20     0.012017 -0.000110195 -1.27528e-08     -27.2571 
          20     0.017304 -0.000108087 -2.21426e-08     -27.2571 
          20     0.023553 -0.000100022 -3.60975e-08     -27.2571 
          20     0.030763   -9.512e-05 -5.58187e-08     -27.2571 
          20     0.038936 -9.63694e-05 -8.24665e-08     -27.2571 
          20     0.048069 -9.79352e-05  -1.1704e-07     -27.2571 
          20     0.058163 -9.21707e-05 -1.60332e-07     -27.2571 
          20     0.069219 -8.34398e-05 -2.12848e-07     -27.2571 
          20     0.081236 -8.56195e-05 -2.74608e-07     -27.2571 
          20     0.094215 -7.74554e-05 -3.45078e-07     -27.2571 
          20     0.108155 -7.42155e-05 -4.23984e-07     -27.2571 
          20     0.123056 -6.97687e-05 -5.09903e-07     -27.2571 
          20     0.138918  -6.5294e-05 -6.01231e-07     -27.2571 
          20     0.155744  -6.1311e-05    -6.96e-07     -27.2571 
          20     0.173529 -5.78046e-05 -7.91848e-07     -27.2571 
          20     0.192276   -5.454e-05 -8.86152e-07     -27.2571 
          20     0.211984 -5.14622e-05 -9.76027e-07     -27.2571 
          20     0.232655 -4.88932e-05 -1.05849e-06     -27.2571 
          20     0.254285 -4.70383e-05 -1.13062e-06     -27.2571 
          20     0.276877 -4.52221e-05 -1.18997e-06     -27.2571 
          20     0.300431  -4.4042e-05 -1.23308e-06     -27.2571 
          20     0.324946 -4.32017e-05  -1.2578e-06     -27.2571 
          20     0.350424 -4.26956e-05 -1.26243e-06     -27.2571 
          20     0.376861 -4.24939e-05 -1.24527e-06     -27.2571 
          20      0.40426 -4.25484e-05 -1.20481e-06     -27.2571 
          20     0.432621 -4.27995e-05 -1.13993e-06     -27.2571 
          20     0.461945 -4.31863e-05 -1.05007e-06     -27.2571 
          20     0.492228 -4.36555e-05 -9.35304e-07     -27.2571 
          20     0.523472  -4.4168e-05 -7.96312e-07     -27.2571 
          20     0.555678 -4.47001e-05 -6.34035e-07     -27.2571 
          20     0.588845 -4.52326e-05 -4.48993e-07     -27.2571 
          20     0.622976 -4.57268e-05 -2.40369e-07     -27.2571 
          20     0.658066 -4.62099e-05 -1.56133e-08     -27.2571 
          20     0.694117   -4.668e-05  2.27237e-07      -27.257 
          20      0.73113 -4.71619e-05  4.85395e-07      -27.257 
          20     0.769107 -4.76864e-05  7.56063e-07      -27.257 
          20     0.808042 -4.82879e-05  1.03644e-06      -27.257 
          20     0.847939 -4.90025e-05  1.32392e-06      -27.257 
          20     0.888797 -4.98648e-05  1.61603e-06      -27.257 
          20      0.93062 -5.09051e-05  1.91058e-06      -27.257 
          20       0.9734 -5.21463e-05  2.20552e-06      -27.257 
          20      1.01714 -5.36018e-05  2.49918e-06      -27.257 
          20      1.06185 -5.52732e-05  2.79006e-06      -27.257 
          20      1.10751 -5.71508e-05  3.07685e-06      -27.257 
          20      1.15414 -5.92145e-05  3.35831e-06      -27.257 
          20      1.20173  -6.1438e-05  3.63299e-06      -27.257 
          20      1.25028 -6.37979e-05  3.89908e-06      -27.257 
          20      1.29979 -6.62855e-05  4.15402e-06      -27.257 
          20      1.35026 -6.88218e-05  4.41332e-06      -27.257 
          20       1.4017 -7.14771e-05  4.68856e-06      -27.257 
          20      1.45409  -7.4344e-05  4.95044e-06      -27.257 
          20      1.50745 -7.73032e-05  5.19845e-06     -27.2569 
          20      1.56176   -8.027e-05  5.43157e-06     -27.2569 
          20      1.61705 -8.31926e-05  5.64844e-06     -27.2569 
          20      1.67329 -8.60475e-05  5.84738e-06     -27.2569 
          20      1.73049 -8.88374e-05  6.02673e-06     -27.2569 
          20      1.78865  -9.1585e-05  6.18491e-06     -27.2569 
          20      1.84778 -9.43272e-05  6.32058e-06     -27.2569 
          20      1.90786  -9.7108e-05  6.43284e-06     -27.2569 
          20      1.96891 -9.99726e-05  6.52133e-06     -27.2569 
          20      2.03092 -0.000102959   6.5863e-06     -27.2568 
          20      2.09389 -0.000106093  6.62865e-06     -27.2568 
          20      2.15782 -0.000109379   6.6498e-06     -27.2568 
          20      2.22272 -0.000112796  6.65155e-06     -27.2568 
          20      2.28857 -0.000116299  6.63571e-06     -27.2568 
          20      2.35539  -0.00011981   6.6036e-06     -27.2568 
          20      2.42317  -0.00012323  6.55528e-06     -27.2568 
          20      2.49191 -0.000126438  6.48859e-06     -27.2567 
          20      2.56161  -0.00012931  6.39779e-06     -27.2567 
          20      2.63226 -0.000131738  6.27187e-06     -27.2567 
          20      2.70389 -0.000133657  6.09241e-06     -27.2567 
          20      2.77648 -0.000134947  5.88088e-06     -27.2566 
          20      2.85002 -0.000136185  5.53907e-06     -27.2566 
          20      2.92453 -0.000137855  4.60898e-06     -27.2566 
          20            3  -0.00013962   3.5801e-06     -27.2566 
          40            0 -1.12499e-19  -1.7141e-24     -26.6292 
          40      0.00048 -1.05857e-05 -1.97186e-10     -26.6292 
          40     0.001922 -3.81126e-05 -1.15192e-09     -26.6292 
          40     0.004326 -7.18166e-05 -3.95345e-09     -26.6292 
          40      0.00769 -9.96729e-05 -1.04133e-08     -26.6292 
          40     0.012017 -0.000114311  -2.3069e-08     -26.6292 
          40     0.017304 -0.000116325   -4.513e-08     -26.6292 
          40     0.023553 -0.000113098 -8.04488e-08     -26.6292 
          40     0.030763 -0.000113107 -1.33402e-07     -26.6292 
          40     0.038936 -0.000119022 -2.08806e-07     -26.6292 
          40     0.048069 -0.000125167 -3.11717e-07     -26.6292 
          40     0.058163 -0.000124158 -4.47364e-07     -26.6292 
          40     0.069219 -0.000119973 -6.20964e-07     -26.6292 
          40     0.081236 -0.000125597 -8.37442e-07     -26.6292 
          40     0.094215 -0.000120825  -1.1013e-06     -26.6292 
          40     0.108155 -0.000119996 -1.41691e-06     -26.6292 
          40     0.123056 -0.000117253 -1.78755e-06     -26.6292 
          40     0.138918 -0.000113675  -2.2159e-06     -26.6292 
          40     0.155744 -0.000109747 -2.70385e-06     -26.6292 
          40     0.173529 -0.000105477 -3.25218e-06     -26.6292 
          40     0.192276 -0.000100691 -3.86098e-06     -26.6292 
          40     0.211984  -9.5409e-05 -4.52937e-06     -26.6292 
          40     0.232655 -9.00239e-05 -5.25583e-06     -26.6292 
          40     0.254285 -8.48347e-05 -6.03802e-06     -26.6292 
          40     0.276877 -7.93166e-05 -6.87344e-06     -26.6292 
          40     0.300431 -7.41548e-05   -7.759e-06     -26.6292 
          40     0.324946 -6.91897e-05 -8.69148e-06     -26.6292 
          40     0.350424 -6.45339e-05 -9.66786e-06     -26.6292 
          40     0.376861 -6.02738e-05  -1.0685e-05     -26.6292 
          40      0.40426 -5.64689e-05 -1.17402e-05     -26.6292 
          40     0.432621 -5.31585e-05 -1.28308e-05     -26.6292 
          40     0.461945 -5.03672e-05 -1.39548e-05     -26.6292 
          40     0.492228 -4.81136e-05 -1.51101e-05     -26.6292 
          40     0.523472 -4.64139e-05 -1.62949e-05     -26.6292 
          40     0.555678 -4.52827e-05 -1.75081e-05     -26.6292 
          40     0.588845 -4.47212e-05 -1.87483e-05     -26.6292 
          40     0.622976 -4.46902e-05 -2.00143e-05     -26.6292 
          40     0.658066 -4.51936e-05 -2.13005e-05     -26.6292 
          40     0.694117 -4.61884e-05 -2.26079e-05     -26.6292 
          40      0.73113 -4.76278e-05  -2.3934e-05     -26.6292 
          40     0.769107 -4.94531e-05 -2.52751e-05     -26.6292 
          40     0.808042 -5.15953e-05 -2.66265e-05     -26.6292 
          40     0.847939 -5.39787e-05 -2.79832e-05     -26.6292 
          40     0.888797 -5.65241e-05 -2.93394e-05     -26.6292 
          40      0.93062 -5.91527e-05 -3.06892e-05     -26.6292 
          40       0.9734 -6.17889e-05 -3.20264e-05     -26.6292 
          40      1.01714 -6.43656e-05 -3.33453e-05     -26.6292 
          40      1.06185 -6.68259e-05 -3.46405e-05     -26.6292 
          40      1.10751 -6.91251e-05 -3.59074e-05     -26.6292 
          40      1.15414 -7.12305e-05 -3.71421e-05     -26.6292 
          40      1.20173 -7.31184e-05 -3.83414e-05     -26.6292 
          40      1.25028  -7.4768e-05 -3.95026e-05     -26.6292 
          40      1.29979 -7.61499e-05 -4.06233e-05     -26.6292 
          40      1.35026  -7.7358e-05 -4.16785e-05     -26.6292 
          40       1.4017 -7.91841e-05 -4.26616e-05     -26.6291 
          40      1.45409 -8.15131e-05 -4.35974e-05     -26.6291 
          40      1.50745 -8.41156e-05 -4.44713e-05     -26.6291 
          40      1.56176 -8.68033e-05 -4.52721e-05     -26.6291 
          40      1.61705 -8.94293e-05 -4.59919e-05     -26.6291 
          40      1.67329 -9.18867e-05 -4.66256e-05     -26.6291 
          40      1.73049  -9.4108e-05 -4.71711e-05     -26.6291 
          40      1.78865 -9.60608e-05 -4.76282e-05     -26.6291 
          40      1.84778 -9.77443e-05 -4.79984e-05     -26.6291 
          40      1.90786 -9.91825e-05 -4.82841e-05     -26.6291 
          40      1.96891  -0.00010042 -4.84884e-05     -26.6291 
          40      2.03092 -0.000101512  -4.8614e-05     -26.6291 
          40      2.09389  -0.00010252  -4.8663e-05     -26.6291 
          40      2.15782 -0.000103499 -4.86361e-05     -26.6291 
          40      2.22272 -0.000104495 -4.85328e-05      -26.629 
          40      2.28857  -0.00010553 -4.83505e-05      -26.629 
          40      2.35539 -0.000106601 -4.80857e-05      -26.629 
          40      2.42317 -0.000107673 -4.77334e-05      -26.629 
          40      2.49191 -0.000108672 -4.72894e-05      -26.629 
          40      2.56161 -0.000109489 -4.67507e-05      -26.629 
          40      2.63226  -0.00010998  -4.6119e-05      -26.629 
          40      2.70389 -0.000109975 -4.54032e-05      -26.629 
          40      2.77648 -0.000109128 -4.46388e-05      -26.629 
          40      2.85002 -0.000107775 -4.37136e-05     -26.6289 
          40      2.92453 -0.000106391 -4.25733e-05     -26.6289 
          40            3 -0.000104946 -4.12798e-05     -26.6289 
          60            0            0            0     -26.0296 
          60      0.00048 -1.05087e-05 -1.13567e-10     -26.0296 
          60     0.001922   -3.796e-05 -5.51995e-10     -26.0296 
          60     0.004326 -7.19808e-05 -1.62122e-09     -26.0296 
          60      0.00769 -0.000100982 -3.87303e-09     -26.0296 
          60     0.012017 -0.000117862 -8.16519e-09     -26.0296 
          60     0.017304 -0.000123187 -1.57144e-08     -26.0296 
          60     0.023553 -0.000124066 -2.81626e-08     -26.0296 
          60     0.030763 -0.000128648 -4.76092e-08     -26.0296 
          60     0.038936 -0.000139479 -7.66485e-08     -26.0296 
          60     0.048069 -0.000151046 -1.18349e-07     -26.0296 
          60     0.058163 -0.000156177 -1.76269e-07     -26.0296 
          60     0.069219 -0.000158641 -2.54401e-07     -26.0296 
          60     0.081236 -0.000170871 -3.57029e-07     -26.0296 
          60     0.094215 -0.000173302 -4.88631e-07     -26.0296 
          60     0.108155 -0.000179655 -6.54058e-07     -26.0296 
          60     0.123056  -0.00018418 -8.57849e-07     -26.0296 
          60     0.138918 -0.000187812 -1.10446e-06     -26.0296 
          60     0.155744 -0.000190918 -1.39808e-06     -26.0296 
          60     0.173529 -0.000193411 -1.74227e-06     -26.0296 
          60     0.192276 -0.000195044 -2.14016e-06     -26.0296 
          60     0.211984 -0.000195768 -2.59411e-06     -26.0296 
          60     0.232655 -0.000195914 -3.10583e-06     -26.0296 
          60     0.254285 -0.000195736 -3.67622e-06     -26.0296 
          60     0.276877 -0.000194714 -4.30565e-06     -26.0296 
          60     0.300431 -0.000193507 -4.99352e-06     -26.0296 
          60     0.324946 -0.000191977 -5.73891e-06     -26.0296 
          60     0.350424 -0.000190258 -6.54048e-06     -26.0296 
          60     0.376861 -0.000188463 -7.39618e-06     -26.0296 
          60      0.40426 -0.000186685 -8.30375e-06     -26.0296 
          60     0.432621 -0.000184999 -9.26057e-06     -26.0296 
          60     0.461945  -0.00018346 -1.02638e-05     -26.0296 
          60     0.492228 -0.000182113 -1.13105e-05     -26.0296 
          60     0.523472 -0.000180993 -1.23974e-05     -26.0296 
          60     0.555678 -0.000180124 -1.35213e-05     -26.0296 
          60     0.588845 -0.000179505 -1.46781e-05     -26.0296 
          60     0.622976 -0.000179091 -1.58627e-05     -26.0296 
          60     0.658066 -0.000178869 -1.70731e-05     -26.0296 
          60     0.694117  -0.00017878 -1.83015e-05     -26.0296 
          60      0.73113 -0.000178752 -1.95431e-05     -26.0296 
          60     0.769107 -0.000178709 -2.07924e-05     -26.0296 
          60     0.808042 -0.000178573 -2.20432e-05     -26.0296 
          60     0.847939 -0.000178268 -2.32895e-05     -26.0296 
          60     0.888797 -0.000177725 -2.45247e-05     -26.0296 
          60      0.93062 -0.000176887 -2.57431e-05     -26.0296 
          60       0.9734 -0.000175713 -2.69387e-05     -26.0296 
          60      1.01714 -0.000174177  -2.8107e-05     -26.0296 
          60      1.06185 -0.000172272  -2.9244e-05     -26.0296 
          60      1.10751 -0.000170009 -3.03468e-05     -26.0296 
          60      1.15414 -0.000167407 -3.14135e-05     -26.0296 
          60      1.20173 -0.000164486 -3.24429e-05     -26.0296 
          60      1.25028 -0.000161246 -3.34338e-05     -26.0296 
          60      1.29979 -0.000157647 -3.43845e-05     -26.0296 