Variables = x, y, u, v, p

Zone, I=416, F=POINT
         -50            0            0            0     -46.9101 
         -50     0.013333 -0.000263835 -7.03658e-08     -46.9101 
         -50     0.053333 -0.000251047 -1.44348e-07     -46.9101 
         -50         0.12  -0.00024663 -1.17681e-07     -46.9101 
         -50     0.213332 -0.000245693   1.1191e-08     -46.9101 
         -50     0.333332 -0.000240107  7.22114e-08       -46.91 
         -50         0.48 -0.000230059 -7.74657e-08     -46.9099 
         -50     0.653331 -0.000220086 -4.95796e-07     -46.9098 
         -50     0.853332 -0.000214673 -1.25167e-06     -46.9096 
         -50         1.08 -0.000214194 -2.34006e-06     -46.9092 
         -50      1.33333 -0.000214962 -3.60747e-06     -46.9087 
         -50      1.61333 -0.000214246 -4.87571e-06     -46.9081 
         -50         1.92 -0.000212036 -6.36676e-06     -46.9073 
         -50      2.25333 -0.000212972 -7.63232e-06     -46.9062 
         -50      2.61333 -0.000218576 -1.08765e-05     -46.9049 
         -50            3   -0.0002274 -1.70531e-05     -46.9032 
         -25            0 -2.05312e-19 -1.57711e-23     -45.0152 
         -25     0.013333 -0.000191195 -2.84748e-08     -45.0152 
         -25     0.053333  -0.00017952 -5.70747e-08     -45.0152 
         -25         0.12 -0.000177431  3.21511e-08     -45.0152 
         -25     0.213332 -0.000186278  4.36865e-07     -45.0152 
         -25     0.333332 -0.000199193  1.25049e-06     -45.0152 
         -25         0.48 -0.000209462  2.38907e-06     -45.0152 
         -25     0.653331 -0.000213672   3.6882e-06     -45.0151 
         -25     0.853332 -0.000211985  5.02059e-06      -45.015 
         -25         1.08 -0.000206572  6.27911e-06     -45.0149 
         -25      1.33333 -0.000200406  7.35381e-06     -45.0147 
         -25      1.61333 -0.000193118  8.03753e-06     -45.0145 
         -25         1.92 -0.000185286  8.20445e-06     -45.0141 
         -25      2.25333 -0.000176981  7.94374e-06     -45.0137 
         -25      2.61333 -0.000179854  2.74026e-06     -45.0132 
         -25            3 -0.000194191 -6.28789e-06     -45.0125 
           0            0 -1.76162e-19 -7.59374e-24     -43.5258 
           0     0.013333  -0.00017069 -8.06452e-09     -43.5258 
           0     0.053333 -0.000186347  2.17498e-08     -43.5258 
           0         0.12 -0.000209212  1.71434e-08     -43.5258 
           0     0.213332 -0.000224523 -4.01258e-07     -43.5258 
           0     0.333332 -0.000225945  -1.6814e-06     -43.5258 
           0         0.48 -0.000220856 -3.95674e-06     -43.5258 
           0     0.653331 -0.000216714 -6.96622e-06     -43.5258 
           0     0.853332  -0.00021224 -1.01862e-05     -43.5257 
           0         1.08  -0.00020331 -1.31466e-05     -43.5257 
           0      1.33333 -0.000189964 -1.56626e-05     -43.5256 
           0      1.61333 -0.000173389 -1.76342e-05     -43.5254 
           0         1.92 -0.000157416 -1.85069e-05     -43.5253 
           0      2.25333 -0.000148757 -1.88596e-05     -43.5251 
           0      2.61333 -0.000141268 -1.64051e-05     -43.5248 
           0            3 -0.000126208 -1.02897e-05     -43.5245 
          20            0 -1.61309e-19 -4.54169e-24     -42.4764 
          20     0.013333 -0.000156042  8.48835e-09     -42.4764 
          20     0.053333 -0.000172194  2.06183e-07     -42.4764 
          20         0.12 -0.000203487  8.34668e-07     -42.4764 
          20     0.213332  -0.00023633  1.79886e-06     -42.4764 
          20     0.333332 -0.000257448  2.66507e-06     -42.4764 
          20         0.48 -0.000266172  3.09326e-06     -42.4764 
          20     0.653331 -0.000266392  3.13397e-06     -42.4764 
          20     0.853332 -0.000257671   3.1336e-06     -42.4763 
          20         1.08 -0.000239873  3.33443e-06     -42.4763 
          20      1.33333 -0.000218524   3.6194e-06     -42.4762 
          20      1.61333 -0.000191795  3.71986e-06     -42.4762 
          20         1.92 -0.000163342  3.82868e-06     -42.4761 
          20      2.25333 -0.000136641  3.86914e-06     -42.4759 
          20      2.61333 -0.000112665  3.74632e-06     -42.4758 
          20            3  -0.00010135   4.5581e-06     -42.4756 
          40            0 -1.50858e-19 -2.81229e-24     -41.4981 
          40     0.013333 -0.000143439  1.95275e-08     -41.4981 
          40     0.053333 -0.000150143  3.36533e-07     -41.4981 
          40         0.12 -0.000173496  1.41675e-06      -41.498 
          40     0.213332 -0.000202944  3.36581e-06      -41.498 
          40     0.333332 -0.000222429   5.7767e-06      -41.498 
          40         0.48 -0.000227801  8.20366e-06      -41.498 
          40     0.653331 -0.000222637  1.05818e-05      -41.498 
          40     0.853332 -0.000209511  1.30683e-05      -41.498 
          40         1.08 -0.000192868  1.55304e-05      -41.498 
          40      1.33333 -0.000178986  1.75665e-05      -41.498 
          40      1.61333 -0.000162777  1.87527e-05     -41.4979 
          40         1.92 -0.000147428  1.90911e-05     -41.4978 
          40      2.25333 -0.000136047  1.83165e-05     -41.4978 
          40      2.61333 -0.000124485  1.69272e-05     -41.4977 
          40            3 -0.000119818  1.36888e-05     -41.4976 
          60            0            0            0     -40.5636 
          60     0.013333  -0.00013189  2.29673e-08     -40.5636 
          60     0.053333 -0.000123539  3.81265e-07     -40.5636 
          60         0.12 -0.000133127  1.70912e-06     -40.5636 
          60     0.213332 -0.000159031  4.43824e-06     -40.5636 
          60     0.333332 -0.000184957  8.43186e-06     -40.5636 
          60         0.48 -0.000199125  1.32511e-05     -40.5636 
          60     0.653331 -0.000198994  1.86243e-05     -40.5636 
          60     0.853332 -0.000186914  2.44188e-05     -40.5636 
          60         1.08 -0.000170582  3.02109e-05     -40.5636 
          60      1.33333 -0.000159607   3.5283e-05     -40.5635 
          60      1.61333 -0.000148164  3.90159e-05     -40.5635 
          60         1.92 -0.000140055  4.08196e-05     -40.5635 
          60      2.25333 -0.000136587   4.0801e-05     -40.5634 
          60      2.61333 -0.000132524  3.90355e-05     -40.5634 
          60            3 -0.000128434  3.75042e-05     -40.5633 
          80            0            0            0     -39.6568 
          80     0.013333 -0.000120829    1.901e-08     -39.6568 
          80     0.053333  -9.2508e-05  3.31554e-07     -39.6568 
          80         0.12 -8.00007e-05  1.62506e-06     -39.6568 
          80     0.213332  -9.3215e-05   4.6222e-06     -39.6568 
          80     0.333332 -0.000118705  9.50409e-06     -39.6568 
          80         0.48 -0.000138446  1.58659e-05     -39.6568 
          80     0.653331 -0.000144398  2.31663e-05     -39.6568 
          80     0.853332 -0.000139636  3.08623e-05     -39.6568 
          80         1.08 -0.000133391   3.8221e-05     -39.6568 
          80      1.33333 -0.000132438  4.45485e-05     -39.6568 
          80      1.61333 -0.000130656  4.92933e-05     -39.6568 
          80         1.92 -0.000130809  5.16894e-05     -39.6567 
          80      2.25333 -0.000134506  5.16684e-05     -39.6567 
          80      2.61333 -0.000138881  4.92322e-05     -39.6567 
          80            3 -0.000144637  4.54593e-05     -39.6566 
         100            0 -1.31792e-19 -7.33077e-25     -38.7677 
         100     0.013333 -0.000111811  5.52392e-10     -38.7677 
         100     0.053333 -6.09206e-05  6.15955e-08     -38.7677 
         100         0.12 -1.10528e-05  5.10611e-07     -38.7677 
         100     0.213332  1.63207e-05  1.99531e-06     -38.7677 
         100     0.333332  2.00208e-05  5.07585e-06     -38.7677 
         100         0.48  1.35314e-05  9.85701e-06     -38.7677 
         100     0.653331  9.31101e-06  1.60108e-05     -38.7677 
         100     0.853332  6.52781e-06  2.28125e-05     -38.7677 
         100         1.08 -5.13719e-06  2.92743e-05     -38.7677 
         100      1.33333  -2.8572e-05  3.47972e-05     -38.7677 
         100      1.61333 -5.76235e-05  3.91385e-05     -38.7677 
         100         1.92 -8.92561e-05   4.1589e-05     -38.7677 
         100      2.25333 -0.000118572  4.23167e-05     -38.7677 
         100      2.61333 -0.000139689    4.141e-05     -38.7676 
         100            3 -0.000144334  3.93756e-05     -38.7676 
         150            0           -0           -0     -36.5865 
         150     0.013333 -0.000139069  -3.4351e-08     -36.5865 
         150     0.053333  -0.00015321 -5.26537e-07     -36.5865 
         150         0.12 -0.000150457 -2.46467e-06     -36.5865 
         150     0.213332  -0.00011842 -6.79995e-06     -36.5865 
         150     0.333332 -7.17781e-05 -1.37192e-05     -36.5865 
         150         0.48 -3.47694e-05 -2.26703e-05     -36.5865 
         150     0.653331 -1.99936e-05 -3.30229e-05     -36.5865 
         150     0.853332 -2.66911e-05  -4.4298e-05     -36.5865 
         150         1.08 -4.32861e-05 -5.57334e-05     -36.5865 
         150      1.33333 -5.51524e-05 -6.62804e-05     -36.5865 
         150      1.61333 -7.03234e-05 -7.49614e-05     -36.5865 
         150         1.92 -8.60445e-05  -8.0807e-05     -36.5865 
         150      2.25333 -9.79154e-05 -8.33555e-05     -36.5865 
         150      2.61333 -0.000108745 -8.23744e-05     -36.5865 
         150            3 -0.000112024 -7.86178e-05     -36.5865 
         200            0           -0           -0     -34.4311 
         200     0.013333 -0.000145359 -2.75482e-08     -34.4311 
         200     0.053333 -0.000179393  -4.4127e-07     -34.4311 
         200         0.12  -0.00020323 -2.16619e-06     -34.4311 
         200     0.213332 -0.000194978 -6.25819e-06     -34.4311 
         200     0.333332 -0.000163028 -1.31403e-05     -34.4311 
         200         0.48 -0.000132593 -2.24121e-05     -34.4311 
         200     0.653331 -0.000119805  -3.3386e-05     -34.4311 
         200     0.853332 -0.000124166 -4.53865e-05     -34.4311 
         200         1.08  -0.00013233 -5.74835e-05     -34.4311 
         200      1.33333 -0.000129831 -6.86166e-05     -34.4311 
         200      1.61333 -0.000124154 -7.78973e-05     -34.4311 
         200         1.92 -0.000117528  -8.4377e-05     -34.4311 
         200      2.25333 -0.000109457 -8.76855e-05     -34.4311 
         200      2.61333 -0.000104791 -8.74715e-05     -34.4311 
         200            3 -0.000104456 -8.42259e-05     -34.4311 
         250            0            0            0     -32.2836 
         250     0.013333  -0.00013386  -2.6078e-08     -32.2836 
         250     0.053333 -0.000140558 -3.95102e-07     -32.2836 
         250         0.12 -0.000137402 -1.79545e-06     -32.2836 
         250     0.213332 -0.000118346  -4.7848e-06     -32.2836 
         250     0.333332 -9.38513e-05 -9.33624e-06     -32.2836 
         250         0.48 -7.80688e-05 -1.50268e-05     -32.2836 
         250     0.653331 -7.67035e-05 -2.15627e-05     -32.2836 
         250     0.853332 -8.84714e-05 -2.88201e-05     -32.2836 
         250         1.08 -0.000104559 -3.63489e-05     -32.2836 
         250      1.33333 -0.000111962 -4.32992e-05     -32.2836 
         250      1.61333  -0.00011459 -4.89809e-05     -32.2836 
         250         1.92 -0.000115211 -5.29943e-05     -32.2836 
         250      2.25333 -0.000113027 -5.50789e-05     -32.2836 
         250      2.61333  -0.00011174 -5.50713e-05     -32.2836 
         250            3 -0.000110965 -5.30154e-05     -32.2836 
         300            0           -0           -0      -30.138 
         300     0.013333 -0.000102973 -4.78649e-08      -30.138 
         300     0.053333 -2.53247e-05 -6.68624e-07      -30.138 
         300         0.12  8.72577e-05 -2.67873e-06      -30.138 
         300     0.213332   0.00019791 -6.05854e-06      -30.138 
         300     0.333332  0.000267415 -9.66323e-06      -30.138 
         300         0.48  0.000286807 -1.22654e-05      -30.138 
         300     0.653331  0.000274192 -1.36208e-05      -30.138 
         300     0.853332  0.000243711 -1.44395e-05      -30.138 
         300         1.08  0.000197201 -1.54806e-05      -30.138 
         300      1.33333  0.000141303 -1.66216e-05      -30.138 
         300      1.61333  7.88616e-05 -1.72551e-05      -30.138 
         300         1.92  1.37421e-05 -1.73455e-05      -30.138 
         300      2.25333 -4.91743e-05 -1.67977e-05      -30.138 
         300      2.61333 -0.000112293 -1.56681e-05      -30.138 
         300            3 -0.000159358 -1.40767e-05      -30.138 
         350            0 -1.42614e-19  4.23714e-27     -27.9926 
         350     0.013333  -0.00014591 -2.30972e-08     -27.9926 
         350     0.053333 -0.000184691 -3.64205e-07     -27.9926 
         350         0.12 -0.000221084 -1.75218e-06     -27.9926 
         350     0.213332  -0.00023301  -4.9991e-06     -27.9926 
         350     0.333332 -0.000221738 -1.04812e-05     -27.9926 
         350         0.48 -0.000204595 -1.80307e-05     -27.9926 
         350     0.653331 -0.000196093 -2.73057e-05     -27.9926 
         350     0.853332 -0.000200986 -3.80097e-05     -27.9926 
         350         1.08 -0.000212311 -4.95826e-05     -27.9926 
         350      1.33333 -0.000212913 -6.09219e-05     -27.9926 
         350      1.61333 -0.000200221 -7.08914e-05     -27.9926 
         350         1.92 -0.000181581 -7.87385e-05     -27.9926 
         350      2.25333 -0.000160694 -8.41594e-05     -27.9926 
         350      2.61333 -0.000140913 -8.65807e-05     -27.9926 
         350            3 -0.000123147 -8.57988e-05     -27.9926 
         400            0           -0           -0     -25.8466 
         400     0.013333 -0.000114802  2.96389e-09     -25.8466 
         400     0.053333 -8.14159e-05  6.49201e-08     -25.8466 
         400         0.12 -5.31482e-05  4.33508e-07     -25.8466 
         400     0.213332 -4.65014e-05   1.6079e-06     -25.8466 
         400     0.333332 -6.24092e-05  4.07298e-06     -25.8466 
         400         0.48 -8.81965e-05  7.90025e-06     -25.8466 
         400     0.653331  -0.00011018  1.27023e-05     -25.8466 
         400     0.853332 -0.000124028  1.79572e-05     -25.8466 
         400         1.08 -0.000131862  2.33072e-05     -25.8466 
         400      1.33333 -0.000135856  2.86069e-05     -25.8466 
         400      1.61333 -0.000136302  3.36569e-05     -25.8466 
         400         1.92 -0.000135905  3.80635e-05     -25.8466 
         400      2.25333 -0.000135278  4.14619e-05     -25.8466 
         400      2.61333 -0.000132562   4.3604e-05     -25.8466 
         400            3 -0.000128917  4.42588e-05     -25.8466 
         450            0           -0           -0     -23.6997 
         450     0.013333 -0.000139375 -7.22361e-08     -23.6997 
         450     0.053333 -0.000145757 -1.09729e-06     -23.6997 
         450         0.12 -0.000105301 -5.02081e-06     -23.6997 
         450     0.213332  -5.2617e-06 -1.35423e-05     -23.6997 
         450     0.333332  0.000112799 -2.67369e-05     -23.6997 
         450         0.48   0.00019544 -4.31968e-05     -23.6997 
         450     0.653331  0.000222116 -6.15005e-05     -23.6997 
         450     0.853332  0.000200851 -8.10542e-05     -23.6997 
         450         1.08  0.000151219 -0.000101381     -23.6997 
         450      1.33333  0.000100789 -0.000121213     -23.6997 
         450      1.61333  5.59071e-05 -0.000138968     -23.6997 
         450         1.92  1.26922e-05  -0.00015362     -23.6997 
         450      2.25333  -3.0562e-05 -0.000164284     -23.6997 
         450      2.61333 -7.97907e-05 -0.000170036     -23.6997 
         450            3 -0.000122289 -0.000170217     -23.6997 
         500            0           -0           -0     -21.5517 
         500     0.013333 -0.000163083  7.30705e-08     -21.5517 
         500     0.053333 -0.000272961  1.03316e-06     -21.5517 
         500         0.12 -0.000457143  4.24702e-06     -21.5517 
         500     0.213332 -0.000662558   1.0036e-05     -21.5517 
         500     0.333332 -0.000817687  1.70674e-05     -21.5517 
         500         0.48 -0.000891948  2.35005e-05     -21.5517 
         500     0.653331 -0.000904237  2.84861e-05     -21.5517 
         500     0.853332 -0.000880792  3.26135e-05     -21.5517 
         500         1.08 -0.000823426  3.72864e-05     -21.5517 
         500      1.33333 -0.000728875  4.32712e-05     -21.5517 
         500      1.61333 -0.000612312  4.97223e-05     -21.5517 
         500         1.92 -0.000493897  5.55141e-05     -21.5517 
         500      2.25333 -0.000374357  5.99467e-05     -21.5517 
         500      2.61333  -0.00024567  6.27266e-05     -21.5517 
         500            3  -0.00013013  6.36317e-05     -21.5517 
         550            0           -0           -0     -19.4018 
         550     0.013333 -0.000149191 -8.25947e-08     -19.4018 
         550     0.053333  -0.00017532 -1.27367e-06     -19.4018 
         550         0.12 -0.000141296 -5.97897e-06     -19.4018 
         550     0.213332 -1.26645e-05 -1.66902e-05     -19.4018 
         550     0.333332  0.000169061 -3.42369e-05     -19.4018 
         550         0.48  0.000325982 -5.72973e-05     -19.4018 
         550     0.653331  0.000411623  -8.3715e-05     -19.4018 
         550     0.853332   0.00042655 -0.000111951     -19.4018 
         550         1.08  0.000392713 -0.000141162     -19.4018 
         550      1.33333  0.000335011 -0.000170448     -19.4018 
         550      1.61333  0.000263516 -0.000198452     -19.4018 
         550         1.92  0.000188598 -0.000223491     -19.4018 
         550      2.25333  0.000112536 -0.000243891     -19.4018 
         550      2.61333  2.55747e-05 -0.000258025     -19.4018 
         550            3 -5.50299e-05 -0.000264574     -19.4018 
         600            0           -0           -0     -17.2511 
         600     0.013333 -5.38542e-05  1.19222e-07     -17.2511 
         600     0.053333  0.000102878  1.86689e-06     -17.2511 
         600         0.12  0.000190887  8.94149e-06     -17.2511 
         600     0.213332  0.000118962  2.54828e-05     -17.2511 
         600     0.333332 -7.32629e-05  5.33497e-05     -17.2511 
         600         0.48 -0.000271455  9.11577e-05     -17.2511 
         600     0.653331 -0.000390107  0.000136145     -17.2511 
         600     0.853332 -0.000408666  0.000186257     -17.2511 
         600         1.08 -0.000352941  0.000239827     -17.2511 
         600      1.33333 -0.000282706   0.00029393     -17.2511 
         600      1.61333 -0.000237299  0.000344687     -17.2511 
         600         1.92 -0.000212978  0.000389258     -17.2511 
         600      2.25333 -0.000192706  0.000425664     -17.2511 
         600      2.61333 -0.000163031  0.000451346     -17.2511 
         600            3 -0.000137648  0.000463868     -17.2511 
         650            0            0            0     -15.0992 
         650     0.013333 -0.000194619 -5.20936e-08     -15.0992 
         650     0.053333 -0.000350369 -8.46364e-07     -15.0992 
         650         0.12 -0.000503952  -4.2511e-06     -15.0992 
         650     0.213332  -0.00057057 -1.27354e-05     -15.0992 
         650     0.333332 -0.000538178 -2.79709e-05     -15.0992 
         650         0.48 -0.000459939 -4.99311e-05     -15.0992 
         650     0.653331 -0.000395327 -7.74564e-05     -15.0992 
         650     0.853332 -0.000373189 -0.000109325     -15.0992 
         650         1.08  -0.00038884 -0.000144306     -15.0992 
         650      1.33333 -0.000406521 -0.000180296     -15.0992 
         650      1.61333 -0.000392057 -0.000214358     -15.0992 
         650         1.92 -0.000347429 -0.000244326     -15.0992 
         650      2.25333 -0.000292699 -0.000269141     -15.0992 
         650      2.61333   -0.0002378  -0.00028732     -15.0992 
         650            3 -0.000180278 -0.000297246     -15.0992 
         700            0           -0           -0     -12.9457 
         700     0.013333 -8.41917e-05  -7.8858e-09     -12.9457 
         700     0.053333  3.34329e-05 -6.74492e-08     -12.9457 
         700         0.12  0.000172908  3.73376e-08     -12.9457 
         700     0.213332  0.000279655  1.19296e-06     -12.9457 
         700     0.333332  0.000323852  4.63021e-06     -12.9457 
         700         0.48  0.000316211  1.10542e-05     -12.9457 
         700     0.653331  0.000289928  2.02248e-05     -12.9457 
         700     0.853332  0.000268232   3.1251e-05     -12.9457 
         700         1.08  0.000249907  4.29741e-05     -12.9457 
         700      1.33333  0.000219439  5.42632e-05     -12.9457 
         700      1.61333  0.000171384  6.44081e-05     -12.9457 
         700         1.92  0.000114872  7.31798e-05     -12.9457 
         700      2.25333  5.57801e-05  8.04754e-05     -12.9457 
         700      2.61333 -6.91662e-06  8.58636e-05     -12.9457 
         700            3 -7.03573e-05  8.88277e-05     -12.9457 
         750            0           -0           -0     -10.7916 
         750     0.013333  -0.00014324  1.80545e-08     -10.7916 
         750     0.053333 -0.000185915  2.45367e-07     -10.7916 
         750         0.12 -0.000254274  9.43829e-07     -10.7916 
         750     0.213332 -0.000325556  2.02232e-06     -10.7916 
         750     0.333332 -0.000375982  2.99393e-06     -10.7916 
         750         0.48 -0.000399885  3.38791e-06     -10.7916 
         750     0.653331 -0.000407227  3.10264e-06     -10.7916 
         750     0.853332 -0.000408115  2.43265e-06     -10.7916 
         750         1.08 -0.000400916  1.98229e-06     -10.7916 
         750      1.33333 -0.000375863  2.41792e-06     -10.7916 
         750      1.61333 -0.000333633  3.87292e-06     -10.7916 
         750         1.92 -0.000288987  5.80393e-06     -10.7916 
         750      2.25333 -0.000246564  7.70882e-06     -10.7916 
         750      2.61333 -0.000201617  9.50216e-06     -10.7916 
         750            3 -0.000156748  1.11134e-05     -10.7916 
         800            0            0            0     -8.63593 
         800     0.013333 -0.000124788 -5.25311e-09     -8.63593 
         800     0.053333 -0.000112524  -7.8534e-08     -8.63593 
         800         0.12 -9.84851e-05 -3.50892e-07     -8.63593 
         800     0.213332 -8.42166e-05 -9.21445e-07     -8.63593 
         800     0.333332 -7.31437e-05 -1.75777e-06     -8.63593 
         800         0.48 -6.97737e-05 -2.69603e-06     -8.63593 
         800     0.653331 -7.44739e-05 -3.54333e-06     -8.63593 
         800     0.853332 -8.30762e-05 -4.16406e-06     -8.63593 
         800         1.08    -9.04e-05 -4.50045e-06     -8.63593 
         800      1.33333 -9.49717e-05 -4.62294e-06     -8.63593 
         800      1.61333 -9.96295e-05 -4.70676e-06     -8.63593 
         800         1.92 -0.000104638 -4.79229e-06     -8.63593 
         800      2.25333 -0.000108683 -4.78435e-06     -8.63593 
         800      2.61333 -0.000112465  -4.6364e-06     -8.63593 
         800            3 -0.000116186 -4.36157e-06     -8.63593 
         850            0            0            0     -6.47912 
         850     0.013333 -8.40483e-05  2.50537e-08     -6.47912 
         850     0.053333  2.22013e-05  4.33775e-07     -6.47912 
         850         0.12  0.000114853  2.36142e-06     -6.47912 
         850     0.213332  0.000130592  7.64569e-06     -6.47912 
         850     0.333332  6.01892e-05   1.7888e-05     -6.47912 
         850         0.48   -4.915e-05  3.33072e-05     -6.47912 
         850     0.653331  -0.00013888  5.26495e-05     -6.47912 
         850     0.853332 -0.000183733  7.41254e-05     -6.47912 
         850         1.08  -0.00019572  9.61715e-05     -6.47912 
         850      1.33333 -0.000199623   0.00011766     -6.47912 
         850      1.61333   -0.0002043  0.000137996     -6.47913 
         850         1.92 -0.000204978  0.000156872     -6.47913 
         850      2.25333 -0.000200687  0.000173665     -6.47913 
         850      2.61333 -0.000191915   0.00018737     -6.47913 
         850            3  -0.00018071  0.000196901     -6.47913 
         900            0            0            0      -4.3214 
         900     0.013333 -0.000233961  1.24968e-07      -4.3214 
         900     0.053333 -0.000549264  1.77032e-06      -4.3214 
         900         0.12  -0.00103867  7.26775e-06      -4.3214 
         900     0.213332  -0.00156452  1.69556e-05      -4.3214 
         900     0.333332  -0.00194971  2.77678e-05      -4.3214 
         900         0.48  -0.00210727  3.53005e-05     -4.32141 
         900     0.653331  -0.00208276  3.72148e-05     -4.32141 
         900     0.853332   -0.0019698  3.45008e-05     -4.32141 
         900         1.08  -0.00181679  3.00487e-05     -4.32141 
         900      1.33333  -0.00162605  2.62168e-05     -4.32141 
         900      1.61333  -0.00140813  2.32354e-05     -4.32141 
         900         1.92   -0.0011885  2.00267e-05      -4.3214 
         900      2.25333 -0.000965991  1.59692e-05      -4.3214 
         900      2.61333  -0.00072458  1.13444e-05     -4.32139 
         900            3 -0.000472044  6.48493e-06     -4.32137 
         950            0            0            0     -2.16112 
         950     0.013333 -0.000289376 -1.64022e-07     -2.16112 
         950     0.053333 -0.000654592 -2.62702e-06     -2.16112 
         950         0.12 -0.000962058 -1.30088e-05     -2.16112 
         950     0.213332  -0.00098688 -3.85806e-05     -2.16112 
         950     0.333332 -0.000717814 -8.41595e-05     -2.16112 
         950         0.48 -0.000336791 -0.000149224     -2.16112 
         950     0.653331 -4.22962e-05 -0.000229394     -2.16112 
         950     0.853332   7.5766e-05 -0.000320133     -2.16112 
         950         1.08  3.61008e-05 -0.000418004     -2.16112 
         950      1.33333  -6.8789e-05 -0.000518835     -2.16112 
         950      1.61333 -0.000136607 -0.000616909     -2.16112 
         950         1.92 -0.000137961 -0.000707727     -2.16112 
         950      2.25333 -0.000116048 -0.000788518     -2.16112 
         950      2.61333   -0.0001038 -0.000855685     -2.16112 
         950            3  -9.2475e-05 -0.000905245     -2.16112 
        1000            0            0            0            0 
        1000     0.013333 -0.000190568  1.08737e-05           -0 
        1000     0.053333 -0.000302169  4.75493e-05           -0 
        1000         0.12  -0.00025055  0.000130408 -1.79831e-16 
        1000     0.213332  0.000146646  0.000290187 -2.13625e-15 
        1000     0.333332 -1.71606e-05  0.000711913  -1.1798e-15 
        1000         0.48   0.00143776   0.00100578           -0 
        1000     0.653331   0.00126017  0.000912825            0 
        1000     0.853332   0.00113789   0.00155371            0 
        1000         1.08   0.00258686   0.00202248            0 
        1000      1.33333   0.00789903    0.0015765 -1.27819e-15 
        1000      1.61333   0.00298402 -0.000514688           -0 
        1000         1.92   0.00194777 -0.000107299 -2.45006e-15 
        1000      2.25333   0.00229788  8.49438e-05 -2.65279e-15 
        1000      2.61333   0.00325155 -0.000783042           -0 
        1000            3  0.000782951  -0.00086949  -2.5016e-15 
