Variables = x, y, u, v, p

Zone, I=416, F=POINT
         -50            0            0            0      29.9143 
         -50     0.013333 -0.000204002  -2.6372e-08      29.9143 
         -50     0.053333 -0.000170231 -2.23261e-07      29.9143 
         -50         0.12 -0.000138254 -6.41227e-07      29.9143 
         -50     0.213332  -0.00011561 -1.03948e-06      29.9143 
         -50     0.333332 -0.000106044 -8.50884e-07      29.9143 
         -50         0.48 -0.000104118  3.90941e-07      29.9142 
         -50     0.653331 -0.000105492  1.79416e-06      29.9142 
         -50     0.853332 -0.000112509  3.45854e-06      29.9142 
         -50         1.08 -0.000127434  5.47423e-06      29.9141 
         -50      1.33333 -0.000146866  6.42401e-06       29.914 
         -50      1.61333 -0.000167275  7.56443e-06      29.9138 
         -50         1.92 -0.000183208  7.98539e-06      29.9136 
         -50      2.25333   -0.0002041  6.83325e-06      29.9133 
         -50      2.61333 -0.000218868  8.31817e-06       29.913 
         -50            3 -0.000217386  1.26536e-05      29.9126 
         -25            0           -0           -0      29.0895 
         -25     0.013333 -0.000179714  1.13258e-08      29.0895 
         -25     0.053333 -0.000171351   2.0025e-07      29.0895 
         -25         0.12 -0.000177371  9.04953e-07      29.0895 
         -25     0.213332 -0.000191262  2.28449e-06      29.0895 
         -25     0.333332 -0.000203639  4.14535e-06      29.0895 
         -25         0.48 -0.000209596    6.261e-06      29.0895 
         -25     0.653331 -0.000209562  8.53286e-06      29.0895 
         -25     0.853332 -0.000204897   1.0842e-05      29.0894 
         -25         1.08 -0.000198199  1.29262e-05      29.0894 
         -25      1.33333 -0.000189367  1.44402e-05      29.0894 
         -25      1.61333 -0.000176923  1.53057e-05      29.0894 
         -25         1.92 -0.000162962  1.51368e-05      29.0893 
         -25      2.25333 -0.000154938  1.48641e-05      29.0892 
         -25      2.61333  -0.00015171  1.41903e-05      29.0892 
         -25            3 -0.000149558  1.24126e-05       29.089 
           0            0            0            0      28.2983 
           0     0.013333 -0.000721191   0.00037865       28.299 
           0     0.053333 -0.000386402  0.000209319      28.3008 
           0         0.12 -0.000281112  0.000128484      28.3027 
           0     0.213332 -0.000237326  9.97946e-05      28.3047 
           0     0.333332  -0.00021633  8.08302e-05      28.3067 
           0         0.48 -0.000201251  6.59715e-05      28.3088 
           0     0.653331  -0.00019136  5.42798e-05      28.3109 
           0     0.853332 -0.000184459   4.4858e-05       28.313 
           0         1.08 -0.000178491  3.73338e-05       28.315 
           0      1.33333 -0.000175601  3.14386e-05       28.317 
           0      1.61333 -0.000175691  2.69769e-05      28.3189 
           0         1.92 -0.000173467   2.3256e-05      28.3207 
           0      2.25333 -0.000164989  2.10751e-05      28.3225 
           0      2.61333 -0.000154331  1.92236e-05      28.3243 
           0            3 -0.000156575  1.28275e-05      28.3259 
          20            0  0.000195141 -0.000502576      27.7991 
          20     0.013333   0.00020886 -0.000504074      27.7991 
          20     0.053333  0.000253326 -0.000508226      27.7991 
          20         0.12  0.000338373 -0.000513986      27.7991 
          20     0.213332   0.00047666   -0.0005201       27.799 
          20     0.333332  0.000672837 -0.000524606       27.799 
          20         0.48  0.000874091 -0.000529921       27.799 
          20     0.653331  0.000988549  -0.00053786      27.7989 
          20     0.853332  0.000953586 -0.000548288      27.7989 
          20         1.08   0.00077498 -0.000556929      27.7988 
          20      1.33333  0.000516953 -0.000556111      27.7987 
          20      1.61333  0.000237092 -0.000539373      27.7986 
          20         1.92 -1.91011e-05 -0.000506175      27.7985 
          20      2.25333 -0.000227198  -0.00045884      27.7984 
          20      2.61333 -0.000359427 -0.000402152      27.7983 
          20            3 -0.000412194  -0.00033805      27.7981 
          40            0  5.41457e-20  1.72664e-24      27.2483 
          40     0.013333   0.00045932 -8.02909e-07      27.2483 
          40     0.053333   0.00214966 -9.13643e-06      27.2483 
          40         0.12   0.00413005 -2.44241e-05      27.2483 
          40     0.213332   0.00551068 -2.21458e-05      27.2483 
          40     0.333332   0.00607409  1.87808e-05      27.2483 
          40         0.48   0.00604741  8.34188e-05      27.2483 
          40     0.653331   0.00573204  0.000150944      27.2483 
          40     0.853332   0.00548167  0.000247908      27.2482 
          40         1.08   0.00484211  0.000367004      27.2482 
          40      1.33333   0.00344662  0.000455802      27.2481 
          40      1.61333   0.00175294  0.000502825      27.2479 
          40         1.92  0.000199946  0.000513144      27.2477 
          40      2.25333 -0.000976749    0.0004923      27.2475 
          40      2.61333  -0.00168203  0.000450042      27.2471 
          40            3  -0.00195392  0.000396229      27.2468 
          60            0            0            0      26.6731 
          60     0.013333  0.000105153   8.0607e-07      26.6731 
          60     0.053333  0.000566735  1.27597e-05      26.6731 
          60         0.12  0.000549582  5.99932e-05      26.6731 
          60     0.213332 -5.82777e-05  0.000161157      26.6731 
          60     0.333332 -0.000696972  0.000310091      26.6731 
          60         0.48 -0.000821156  0.000490213      26.6731 
          60     0.653331 -0.000295301   0.00069516      26.6731 
          60     0.853332  0.000470783  0.000906728      26.6731 
          60         1.08  0.000790425   0.00108608      26.6731 
          60      1.33333  0.000600406   0.00121165      26.6731 
          60      1.61333   0.00026289   0.00128264      26.6731 
          60         1.92 -8.29654e-06   0.00128681      26.6731 
          60      2.25333 -0.000190881   0.00122628      26.6731 
          60      2.61333 -0.000287681   0.00111899      26.6731 
          60            3 -0.000341839  0.000982857       26.673 
          80            0            0            0      26.1082 
          80     0.013333  -0.00039198   1.0233e-06      26.1082 
          80     0.053333  -0.00115999  1.38967e-05      26.1082 
          80         0.12  -0.00240627  5.29558e-05      26.1082 
          80     0.213332  -0.00357988  0.000111938      26.1082 
          80     0.333332  -0.00420643  0.000167007      26.1082 
          80         0.48  -0.00434435  0.000208196      26.1082 
          80     0.653331  -0.00403196  0.000261322      26.1082 
          80     0.853332  -0.00290355  0.000369446      26.1082 
          80         1.08  -0.00136664  0.000518659      26.1082 
          80      1.33333 -0.000530628  0.000641286      26.1083 
          80      1.61333 -0.000188843  0.000714794      26.1083 
          80         1.92  0.000216497  0.000748958      26.1084 
          80      2.25333  0.000508939  0.000744589      26.1084 
          80      2.61333  0.000660329  0.000705668      26.1085 
          80            3  0.000721199  0.000643489      26.1086 
         100            0           -0           -0      25.5476 
         100     0.013333 -0.000418811  1.30763e-07      25.5476 
         100     0.053333  -0.00105724  1.00705e-06      25.5476 
         100         0.12  -0.00175304 -1.02239e-06      25.5476 
         100     0.213332  -0.00215615 -1.70889e-05      25.5476 
         100     0.333332  -0.00223979 -5.65651e-05      25.5476 
         100         0.48  -0.00225096 -0.000118219      25.5476 
         100     0.653331  -0.00229275 -0.000187804      25.5476 
         100     0.853332  -0.00201181 -0.000234813      25.5476 
         100         1.08   -0.0012415   -0.0002419      25.5476 
         100      1.33333 -0.000719954 -0.000238659      25.5476 
         100      1.61333 -0.000520132  -0.00024517      25.5476 
         100         1.92 -0.000200697 -0.000242677      25.5477 
         100      2.25333  9.60856e-05 -0.000227484      25.5477 
         100      2.61333  0.000292759 -0.000204727      25.5477 
         100            3  0.000402563 -0.000177387      25.5478 
         150            0           -0           -0      24.1493 
         150     0.013333 -0.000352407  3.92336e-07      24.1493 
         150     0.053333 -0.000905237  5.23931e-06      24.1493 
         150         0.12  -0.00170536  1.95084e-05      24.1493 
         150     0.213332  -0.00243631  4.00227e-05      24.1493 
         150     0.333332  -0.00285792  5.68755e-05      24.1493 
         150         0.48  -0.00299585  6.39703e-05      24.1493 
         150     0.653331  -0.00296085  6.52122e-05      24.1493 
         150     0.853332  -0.00271858  7.21482e-05      24.1493 
         150         1.08  -0.00223505  9.11151e-05      24.1493 
         150      1.33333  -0.00169998  0.000114887      24.1493 
         150      1.61333   -0.0012033  0.000133776      24.1493 
         150         1.92 -0.000649652  0.000148101      24.1494 
         150      2.25333 -0.000168518  0.000157084      24.1494 
         150      2.61333  0.000189329  0.000158361      24.1494 
         150            3  0.000437811  0.000153424      24.1495 
         200            0            0            0      22.7561 
         200     0.013333 -5.56224e-05 -4.81398e-08      22.7561 
         200     0.053333  0.000230847 -4.59053e-07      22.7561 
         200         0.12  0.000545768 -3.76968e-07      22.7561 
         200     0.213332  0.000730949  4.03478e-06      22.7561 
         200     0.333332   0.00073121  1.74094e-05      22.7561 
         200         0.48  0.000627834  4.11709e-05      22.7561 
         200     0.653331  0.000522017  7.26787e-05      22.7561 
         200     0.853332  0.000431748  0.000106883      22.7561 
         200         1.08  0.000319177  0.000139161      22.7561 
         200      1.33333  0.000190619  0.000167911      22.7561 
         200      1.61333   6.9568e-05  0.000193251       22.756 
         200         1.92 -5.76037e-05  0.000212408       22.756 
         200      2.25333 -0.000175556  0.000223258       22.756 
         200      2.61333  -0.00026947  0.000225732       22.756 
         200            3 -0.000334264  0.000220185       22.756 
         250            0           -0           -0      21.3651 
         250     0.013333 -0.000137242  -1.5743e-07      21.3651 
         250     0.053333 -2.47569e-05 -2.24211e-06      21.3651 
         250         0.12  0.000182843 -9.33718e-06      21.3651 
         250     0.213332  0.000437045 -2.25993e-05      21.3651 
         250     0.333332  0.000648526 -4.01979e-05      21.3651 
         250         0.48  0.000773081  -5.9818e-05      21.3651 
         250     0.653331  0.000811141 -8.12835e-05      21.3651 
         250     0.853332  0.000758505 -0.000106283      21.3651 
         250         1.08  0.000620584 -0.000135311      21.3651 
         250      1.33333  0.000450299 -0.000165821      21.3651 
         250      1.61333  0.000288236 -0.000193771      21.3651 
         250         1.92  0.000117428 -0.000216402      21.3651 
         250      2.25333 -4.29399e-05 -0.000231955      21.3651 
         250      2.61333 -0.000182027 -0.000239164      21.3651 
         250            3 -0.000293688 -0.000237943      21.3651 
         300            0           -0           -0      19.9779 
         300     0.013333 -8.83326e-05    7.004e-09      19.9779 
         300     0.053333  0.000110404   2.1429e-07      19.9779 
         300         0.12  0.000332417  1.63094e-06      19.9779 
         300     0.213332  0.000492806  6.23607e-06      19.9779 
         300     0.333332  0.000562613  1.58309e-05      19.9779 
         300         0.48  0.000575428  3.11113e-05      19.9779 
         300     0.653331  0.000582225  5.18568e-05      19.9779 
         300     0.853332  0.000600388  7.65173e-05      19.9779 
         300         1.08  0.000582888  0.000101175      19.9779 
         300      1.33333  0.000486548  0.000121899      19.9779 
         300      1.61333  0.000348817  0.000138404      19.9779 
         300         1.92  0.000201505  0.000150779      19.9779 
         300      2.25333   5.3466e-05  0.000157961      19.9778 
         300      2.61333 -8.52165e-05  0.000159597      19.9778 
         300            3 -0.000201783  0.000155762      19.9778 
         350            0           -0           -0      18.5941 
         350     0.013333    -0.000344 -1.74319e-08      18.5941 
         350     0.053333 -0.000783281 -6.29165e-07      18.5941 
         350         0.12  -0.00124334 -5.18468e-06      18.5941 
         350     0.213332  -0.00146966 -2.07565e-05      18.5941 
         350     0.333332  -0.00141424 -5.36872e-05      18.5941 
         350         0.48  -0.00123887 -0.000104303      18.5941 
         350     0.653331  -0.00111327  -0.00016728      18.5941 
         350     0.853332  -0.00105845 -0.000234747      18.5941 
         350         1.08 -0.000972904 -0.000298468      18.5941 
         350      1.33333 -0.000807144 -0.000353791      18.5941 
         350      1.61333 -0.000623742 -0.000401086      18.5941 
         350         1.92 -0.000447039 -0.000438759      18.5941 
         350      2.25333 -0.000274956 -0.000463086      18.5941 
         350      2.61333 -0.000116673 -0.000472116      18.5941 
         350            3  1.34568e-05 -0.000465249      18.5941 
         400            0            0            0      17.2135 
         400     0.013333 -0.000347391  2.15637e-07      17.2135 
         400     0.053333 -0.000865931  2.87956e-06      17.2135 
         400         0.12   -0.0015906   1.0649e-05      17.2135 
         400     0.213332  -0.00224265   2.1142e-05      17.2135 
         400     0.333332  -0.00259391   2.6998e-05      17.2135 
         400         0.48  -0.00264189  2.21243e-05      17.2135 
         400     0.653331  -0.00253749  6.41806e-06      17.2135 
         400     0.853332  -0.00238063 -1.48208e-05      17.2135 
         400         1.08  -0.00214314 -3.42328e-05      17.2135 
         400      1.33333  -0.00179733 -4.76932e-05      17.2135 
         400      1.61333  -0.00141585 -5.75647e-05      17.2135 
         400         1.92  -0.00103038 -6.63863e-05      17.2136 
         400      2.25333  -0.00064331 -7.33281e-05      17.2136 
         400      2.61333 -0.000270833 -7.79368e-05      17.2136 
         400            3  5.62827e-05  -7.9983e-05      17.2136 
         450            0            0            0      15.8373 
         450     0.013333  6.68296e-05  1.11049e-07      15.8373 
         450     0.053333  0.000630514  1.98989e-06      15.8373 
         450         0.12   0.00119336  1.10471e-05      15.8373 
         450     0.213332   0.00147263  3.56668e-05      15.8373 
         450     0.333332   0.00143231  8.20467e-05      15.8373 
         450         0.48   0.00125753  0.000150059      15.8373 
         450     0.653331   0.00114214  0.000234956      15.8373 
         450     0.853332   0.00114246  0.000330479      15.8373 
         450         1.08   0.00116267  0.000428518      15.8373 
         450      1.33333   0.00106738  0.000520059      15.8373 
         450      1.61333  0.000852247  0.000599862      15.8373 
         450         1.92  0.000606068  0.000665516      15.8373 
         450      2.25333  0.000350509  0.000713023      15.8372 
         450      2.61333  9.52445e-05  0.000738623      15.8372 
         450            3 -0.000141532   0.00074011      15.8372 
         500            0            0            0      14.4633 
         500     0.013333  9.14969e-05 -1.73872e-07      14.4633 
         500     0.053333  0.000790405 -2.15713e-06      14.4633 
         500         0.12   0.00166824 -6.68824e-06      14.4633 
         500     0.213332   0.00234411 -8.12426e-06      14.4633 
         500     0.333332   0.00256575  3.97153e-06      14.4633 
         500         0.48   0.00240713  3.62515e-05      14.4633 
         500     0.653331   0.00212013  8.62856e-05      14.4633 
         500     0.853332   0.00185114  0.000145063      14.4633 
         500         1.08   0.00156375  0.000202584      14.4633 
         500      1.33333   0.00121579  0.000254038      14.4633 
         500      1.61333  0.000873205  0.000301376      14.4633 
         500         1.92    0.0005554  0.000345431      14.4633 
         500      2.25333    0.0002375   0.00038255      14.4633 
         500      2.61333 -7.45218e-05  0.000409648      14.4632 
         500            3  -0.00035235  0.000424718      14.4632 
         550            0            0            0      13.0904 
         550     0.013333 -0.000597898 -1.21267e-07      13.0904 
         550     0.053333  -0.00167164 -2.39612e-06      13.0904 
         550         0.12  -0.00282931 -1.45961e-05      13.0904 
         550     0.213332  -0.00349938 -5.07153e-05      13.0904 
         550     0.333332  -0.00351664 -0.000123401      13.0904 
         550         0.48  -0.00316366  -0.00023534      13.0904 
         550     0.653331  -0.00282799 -0.000379658      13.0904 
         550     0.853332  -0.00268998 -0.000545615      13.0904 
         550         1.08  -0.00265257  -0.00072006      13.0904 
         550      1.33333  -0.00248222  -0.00088784      13.0904 
         550      1.61333  -0.00210176  -0.00103818      13.0905 
         550         1.92  -0.00165154  -0.00116715      13.0905 
         550      2.25333   -0.0011834  -0.00126863      13.0905 
         550      2.61333 -0.000711529  -0.00133552      13.0905 
         550            3 -0.000260642  -0.00136224      13.0905 
         600            0            0            0      11.7224 
         600     0.013333 -5.39615e-05  1.70999e-07      11.7224 
         600     0.053333  0.000190436  2.63064e-06      11.7224 
         600         0.12  0.000374036   1.2228e-05      11.7224 
         600     0.213332  0.000398149  3.35091e-05      11.7224 
         600     0.333332  0.000318507   6.7293e-05      11.7224 
         600         0.48  0.000249953  0.000111112      11.7224 
         600     0.653331   0.00025828  0.000163008      11.7224 
         600     0.853332  0.000363708  0.000223247      11.7224 
         600         1.08  0.000542822  0.000290981      11.7224 
         600      1.33333  0.000673559  0.000359546      11.7224 
         600      1.61333  0.000640004  0.000419695      11.7224 
         600         1.92  0.000516931  0.000468056      11.7224 
         600      2.25333  0.000376755  0.000504062      11.7224 
         600      2.61333  0.000233373  0.000525959      11.7224 
         600            3  8.34087e-05   0.00053174      11.7224 
         650            0           -0           -0      10.3556 
         650     0.013333  3.96599e-05  1.94064e-08      10.3556 
         650     0.053333  0.000557466    5.956e-07      10.3556 
         650         0.12   0.00111952  4.70592e-06      10.3556 
         650     0.213332   0.00144838  1.88768e-05      10.3556 
         650     0.333332   0.00144588  4.97928e-05      10.3556 
         650         0.48   0.00124974  9.92322e-05      10.3556 
         650     0.653331   0.00106755    0.0001634      10.3556 
         650     0.853332  0.000994305  0.000235862      10.3556 
         650         1.08  0.000962827  0.000308965      10.3556 
         650      1.33333  0.000845953  0.000375467      10.3556 
         650      1.61333  0.000639293  0.000433056      10.3556 
         650         1.92  0.000440183  0.000483555      10.3556 
         650      2.25333  0.000250297   0.00052516      10.3556 
         650      2.61333  5.94359e-05  0.000554864      10.3555 
         650            3  -0.00012409  0.000569959      10.3555 
         700            0           -0           -0      8.98954 
         700     0.013333 -0.000391795 -9.35089e-08      8.98954 
         700     0.053333 -0.000942441 -1.69781e-06      8.98954 
         700         0.12  -0.00150413 -9.63967e-06      8.98954 
         700     0.213332  -0.00175785 -3.20568e-05      8.98954 
         700     0.333332  -0.00162464 -7.61024e-05      8.98954 
         700         0.48  -0.00128676 -0.000143005      8.98954 
         700     0.653331 -0.000985008 -0.000228174      8.98954 
         700     0.853332 -0.000836974 -0.000325222      8.98954 
         700         1.08 -0.000812936 -0.000428021      8.98954 
         700      1.33333 -0.000792603 -0.000529591      8.98954 
         700      1.61333 -0.000684348 -0.000623089      8.98954 
         700         1.92 -0.000535448 -0.000705343      8.98954 
         700      2.25333 -0.000391584 -0.000773924      8.98955 
         700      2.61333 -0.000257276 -0.000824841      8.98956 
         700            3  -0.00012841  -0.00085399      8.98957 
         750            0 -7.93685e-21   1.2419e-26      7.62888 
         750     0.013333  0.000342808 -3.58843e-07      7.62888 
         750     0.053333   0.00177058 -4.80772e-06      7.62888 
         750         0.12   0.00372708  -1.7713e-05      7.62888 
         750     0.213332   0.00553167 -3.39314e-05      7.62888 
         750     0.333332   0.00656385 -3.72017e-05      7.62888 
         750         0.48   0.00670935 -1.15566e-05      7.62888 
         750     0.653331   0.00632405   4.6576e-05      7.62889 
         750     0.853332   0.00579021  0.000127818      7.62889 
         750         1.08   0.00522053  0.000217843      7.62889 
         750      1.33333    0.0045657  0.000306517      7.62889 
         750      1.61333   0.00383263  0.000391107      7.62888 
         750         1.92   0.00306486  0.000471877      7.62886 
         750      2.25333   0.00225138  0.000545781      7.62882 
         750      2.61333   0.00139787  0.000608439      7.62878 
         750            3  0.000541164  0.000655905      7.62871 
         800            0           -0           -0      6.26508 
         800     0.013333 -0.000355597  1.15591e-06      6.26508 
         800     0.053333  -0.00121962  1.70965e-05      6.26508 
         800         0.12  -0.00318727  7.54651e-05      6.26508 
         800     0.213332  -0.00601155  0.000195679      6.26508 
         800     0.333332  -0.00872077  0.000370991      6.26508 
         800         0.48   -0.0104273  0.000574863      6.26508 
         800     0.653331   -0.0109606  0.000784893      6.26507 
         800     0.853332   -0.0106255  0.000997679      6.26507 
         800         1.08  -0.00968393   0.00122262      6.26507 
         800      1.33333  -0.00834911   0.00146156      6.26507 
         800      1.61333  -0.00696394   0.00169849      6.26508 
         800         1.92  -0.00571815   0.00191266       6.2651 
         800      2.25333  -0.00444882    0.0020929      6.26514 
         800      2.61333  -0.00309307   0.00223003      6.26521 
         800            3  -0.00171249   0.00231433      6.26529 
         850            0            0            0      4.91224 
         850     0.013333  -0.00106536  -9.4888e-07      4.91224 
         850     0.053333  -0.00309424 -1.52114e-05      4.91224 
         850         0.12  -0.00472121 -7.53238e-05      4.91224 
         850     0.213332  -0.00471367 -0.000222938      4.91224 
         850     0.333332  -0.00311221 -0.000484375      4.91223 
         850         0.48  -0.00101023 -0.000854406      4.91223 
         850     0.653331  0.000501985  -0.00130633      4.91223 
         850     0.853332    0.0010016  -0.00181375      4.91223 
         850         1.08  0.000667657  -0.00235671      4.91223 
         850      1.33333  5.54396e-05  -0.00291047      4.91223 
         850      1.61333  -0.00025346  -0.00344178      4.91223 
         850         1.92 -0.000218471   -0.0039259      4.91224 
         850      2.25333 -0.000116405  -0.00434454      4.91224 
         850      2.61333 -5.54924e-05  -0.00467866      4.91225 
         850            3  -1.1219e-05  -0.00490719      4.91226 
         900            0  5.08442e-19  2.13236e-25      3.56522 
         900     0.013333   0.00108672 -7.72975e-07      3.56522 
         900     0.053333   0.00459491 -1.02556e-05      3.56522 
         900         0.12   0.00941858 -3.71502e-05      3.56522 
         900     0.213332    0.0139447 -6.91765e-05      3.56522 
         900     0.333332    0.0167225 -7.08558e-05      3.56522 
         900         0.48    0.0174569 -8.18922e-06      3.56523 
         900     0.653331    0.0169444   0.00012687      3.56523 
         900     0.853332    0.0160922  0.000314941      3.56524 
         900         1.08    0.0151512  0.000522017      3.56524 
         900      1.33333     0.013814  0.000715117      3.56524 
         900      1.61333    0.0119252  0.000878467      3.56522 
         900         1.92   0.00981945   0.00101915      3.56519 
         900      2.25333   0.00765698   0.00114383      3.56512 
         900      2.61333   0.00542763   0.00124773      3.56502 
         900            3   0.00312563   0.00132287      3.56488 
         950            0            0            0      2.20888 
         950     0.013333  0.000340629  1.39824e-06      2.20888 
         950     0.053333   0.00120654  2.14092e-05      2.20888 
         950         0.12   0.00109505  9.96889e-05      2.20888 
         950     0.213332 -0.000693004  0.000276531      2.20888 
         950     0.333332  -0.00354085  0.000565778      2.20888 
         950         0.48  -0.00615193  0.000948339      2.20888 
         950     0.653331  -0.00765578   0.00139339      2.20888 
         950     0.853332   -0.0079214   0.00188241      2.20888 
         950         1.08  -0.00717371   0.00241108      2.20888 
         950      1.33333  -0.00583363   0.00296916      2.20888 
         950      1.61333  -0.00453231   0.00352581      2.20888 
         950         1.92  -0.00366383   0.00404456      2.20889 
         950      2.25333  -0.00294199   0.00450197      2.20891 
         950      2.61333  -0.00217873   0.00487883      2.20894 
         950            3  -0.00137769   0.00515439      2.20899 
        1000            0           -0           -0     0.859197 
        1000     0.013333  -0.00127023  3.31082e-07     0.859197 
        1000     0.053333  -0.00425914  3.90329e-06     0.859197 
        1000         0.12  -0.00812857  1.00772e-05     0.859197 
        1000     0.213332    -0.011449  2.18549e-06     0.859196 
        1000     0.333332    -0.013196 -4.88698e-05     0.859194 
        1000         0.48   -0.0133946 -0.000164722     0.859191 
        1000     0.653331   -0.0128428 -0.000345536     0.859186 
        1000     0.853332   -0.0122874 -0.000573575     0.859181 
        1000         1.08   -0.0118843 -0.000822369     0.859178 
        1000      1.33333   -0.0112453  -0.00106188     0.859178 
        1000      1.61333   -0.0100285  -0.00126883     0.859187 
        1000         1.92  -0.00843689  -0.00144399     0.859208 
        1000      2.25333  -0.00678649  -0.00159186     0.859249 
        1000      2.61333  -0.00513618  -0.00171202     0.859314 
        1000            3  -0.00342243  -0.00179713     0.859406 
