Variables = x, y, u, v, p

Zone, I=416, F=POINT
         -50            0            0            0      52.7238 
         -50     0.013333  0.000348776  5.17843e-08      52.7238 
         -50     0.053333  0.000308259   2.9056e-07      52.7238 
         -50         0.12  0.000286143  7.64281e-07      52.7238 
         -50     0.213332  0.000276022  1.26165e-06      52.7237 
         -50     0.333332  0.000276242   1.6078e-06      52.7237 
         -50         0.48   0.00028055  1.16056e-06      52.7237 
         -50     0.653331  0.000285364  1.17846e-07      52.7236 
         -50     0.853332  0.000290845 -4.02501e-08      52.7235 
         -50         1.08  0.000299163 -1.06636e-06      52.7234 
         -50      1.33333   0.00030909 -1.86468e-06      52.7232 
         -50      1.61333  0.000317553 -2.18136e-06      52.7229 
         -50         1.92  0.000326848 -1.89849e-06      52.7225 
         -50      2.25333  0.000340112  -1.3026e-06       52.722 
         -50      2.61333  0.000341852 -6.46431e-06      52.7214 
         -50            3  0.000326288 -1.85675e-05      52.7207 
         -25            0           -0           -0      51.2648 
         -25     0.013333  0.000300052  1.66748e-09      51.2648 
         -25     0.053333  0.000275313  -7.7899e-08      51.2648 
         -25         0.12   0.00027116 -3.94576e-07      51.2648 
         -25     0.213332  0.000274335 -1.00461e-06      51.2648 
         -25     0.333332  0.000278478 -1.87914e-06      51.2648 
         -25         0.48  0.000280444 -3.02704e-06      51.2648 
         -25     0.653331  0.000279335 -4.50661e-06      51.2647 
         -25     0.853332  0.000275299 -6.43615e-06      51.2647 
         -25         1.08  0.000273088 -8.28157e-06      51.2647 
         -25      1.33333  0.000275319 -9.75446e-06      51.2646 
         -25      1.61333  0.000279769 -1.04479e-05      51.2646 
         -25         1.92  0.000285141 -1.07124e-05      51.2645 
         -25      2.25333  0.000288235 -8.98963e-06      51.2643 
         -25      2.61333  0.000289221 -6.65232e-06      51.2642 
         -25            3  0.000288561 -7.47267e-06       51.264 
           0            0            0            0      49.8679 
           0     0.013333    0.0010454 -0.000605981      49.8703 
           0     0.053333  0.000602383 -0.000321639      49.8731 
           0         0.12  0.000456642 -0.000212409      49.8764 
           0     0.213332  0.000394044  -0.00016559      49.8799 
           0     0.333332  0.000359027 -0.000136666      49.8836 
           0         0.48  0.000330905 -0.000115879      49.8873 
           0     0.653331  0.000309238 -0.000100595      49.8909 
           0     0.853332  0.000294275 -8.89312e-05      49.8946 
           0         1.08  0.000286308 -7.96638e-05      49.8982 
           0      1.33333  0.000283853 -7.20624e-05      49.9017 
           0      1.61333  0.000284861 -6.57753e-05      49.9051 
           0         1.92  0.000286693 -5.95956e-05      49.9084 
           0      2.25333    0.0002933 -5.39804e-05      49.9116 
           0      2.61333  0.000298013 -4.95524e-05      49.9147 
           0            3  0.000288673 -4.86553e-05      49.9176 
          20            0   0.00021926   8.7364e-05      48.9891 
          20     0.013333   0.00023325  8.64915e-05      48.9891 
          20     0.053333  0.000276425  8.35494e-05      48.9891 
          20         0.12  0.000351315  7.74803e-05      48.9891 
          20     0.213332  0.000457231  6.61454e-05       48.989 
          20     0.333332  0.000582295  4.66674e-05       48.989 
          20         0.48  0.000681272  1.47651e-05      48.9889 
          20     0.653331  0.000728704 -3.02578e-05      48.9888 
          20     0.853332  0.000725056 -8.48457e-05      48.9887 
          20         1.08  0.000693273 -0.000141708      48.9886 
          20      1.33333  0.000656766 -0.000192701      48.9884 
          20      1.61333  0.000611254 -0.000232229      48.9882 
          20         1.92  0.000559898 -0.000256714       48.988 
          20      2.25333  0.000508771 -0.000265164      48.9878 
          20      2.61333  0.000459533 -0.000260724      48.9875 
          20            3  0.000409538 -0.000248827      48.9872 
          40            0  4.77252e-19  1.27405e-23      48.0144 
          40     0.013333  7.88591e-05 -4.57359e-07      48.0144 
          40     0.053333 -0.000338061 -7.36282e-06      48.0144 
          40         0.12 -0.000513134 -3.45814e-05      48.0144 
          40     0.213332  -0.00036659 -9.45461e-05      48.0144 
          40     0.333332 -0.000182707 -0.000190144      48.0143 
          40         0.48 -0.000138146 -0.000315497      48.0143 
          40     0.653331 -5.33728e-05 -0.000454679      48.0143 
          40     0.853332  0.000103103 -0.000599045      48.0143 
          40         1.08  9.79725e-05 -0.000749582      48.0142 
          40      1.33333  7.61123e-05 -0.000882588      48.0141 
          40      1.61333  0.000125638 -0.000970565       48.014 
          40         1.92  0.000205856  -0.00100254      48.0138 
          40      2.25333  0.000280726 -0.000980141      48.0136 
          40      2.61333  0.000332493 -0.000914881      48.0133 
          40            3  0.000358882 -0.000822711       48.013 
          60            0            0            0       47.004 
          60     0.013333  0.000236534 -9.60613e-08       47.004 
          60     0.053333  0.000140196 -1.44911e-06       47.004 
          60         0.12  0.000103116 -6.52684e-06       47.004 
          60     0.213332   0.00014173 -1.75418e-05       47.004 
          60     0.333332  0.000214554   -3.507e-05       47.004 
          60         0.48  0.000271746 -5.80347e-05       47.004 
          60     0.653331  0.000289775 -8.55302e-05       47.004 
          60     0.853332  0.000254859 -0.000118416       47.004 
          60         1.08  0.000190549 -0.000155667       47.004 
          60      1.33333  0.000154173 -0.000191817       47.004 
          60      1.61333  0.000161737 -0.000220099      47.0039 
          60         1.92  0.000182287 -0.000235016      47.0039 
          60      2.25333  0.000208953 -0.000236381      47.0039 
          60      2.61333  0.000231059 -0.000226417      47.0039 
          60            3  0.000245877 -0.000208272      47.0038 
          80            0            0            0      46.0104 
          80     0.013333   0.00014167 -1.00218e-07      46.0104 
          80     0.053333  -0.00017171 -1.91526e-06      46.0104 
          80         0.12 -0.000383817 -1.10911e-05      46.0104 
          80     0.213332 -0.000331508 -3.61934e-05      46.0104 
          80     0.333332 -8.97045e-05 -8.21071e-05      46.0104 
          80         0.48  0.000114459 -0.000145881      46.0104 
          80     0.653331  0.000151325 -0.000218464      46.0104 
          80     0.853332  0.000131988 -0.000286062      46.0104 
          80         1.08  0.000199894 -0.000339706      46.0104 
          80      1.33333  0.000265326 -0.000382686      46.0104 
          80      1.61333  0.000301261 -0.000416112      46.0104 
          80         1.92  0.000327661 -0.000432688      46.0104 
          80      2.25333  0.000345827 -0.000430476      46.0104 
          80      2.61333  0.000351161 -0.000411864      46.0104 
          80            3  0.000349231 -0.000380849      46.0104 
         100            0           -0           -0      45.0215 
         100     0.013333  4.50883e-05  -1.0569e-07      45.0215 
         100     0.053333  -0.00051275 -2.14157e-06      45.0215 
         100         0.12  -0.00100839 -1.29546e-05      45.0215 
         100     0.213332  -0.00117159 -4.34539e-05      45.0215 
         100     0.333332  -0.00103943 -0.000100806      45.0215 
         100         0.48 -0.000865255 -0.000183583      45.0215 
         100     0.653331 -0.000824123 -0.000283618      45.0215 
         100     0.853332 -0.000810427 -0.000385101      45.0215 
         100         1.08  -0.00057794  -0.00046911      45.0215 
         100      1.33333 -0.000241013 -0.000531837      45.0215 
         100      1.61333 -1.36686e-05 -0.000581108      45.0215 
         100         1.92  0.000189704 -0.000608724      45.0215 
         100      2.25333  0.000366084 -0.000609354      45.0215 
         100      2.61333  0.000491235 -0.000586272      45.0215 
         100            3  0.000564813 -0.000544913      45.0216 
         150            0           -0           -0       42.558 
         150     0.013333  0.000253608  5.40349e-07       42.558 
         150     0.053333  4.43176e-05  7.97645e-06       42.558 
         150         0.12 -0.000491353  3.47627e-05       42.558 
         150     0.213332  -0.00124312  8.77367e-05       42.558 
         150     0.333332   -0.0018612  0.000160623       42.558 
         150         0.48  -0.00212807  0.000241603       42.558 
         150     0.653331  -0.00205762  0.000324774       42.558 
         150     0.853332  -0.00175217  0.000408852       42.558 
         150         1.08  -0.00136813  0.000487313       42.558 
         150      1.33333  -0.00101239  0.000551682       42.558 
         150      1.61333 -0.000638327  0.000597969       42.558 
         150         1.92 -0.000208238    0.0006219      42.5581 
         150      2.25333  0.000167064  0.000620867      42.5581 
         150      2.61333  0.000456523  0.000595622      42.5581 
         150            3   0.00066482  0.000551153      42.5582 
         200            0            0            0      40.1002 
         200     0.013333   0.00023513  -3.8529e-08      40.1002 
         200     0.053333   0.00012719 -6.81092e-07      40.1002 
         200         0.12  3.71682e-05 -3.46789e-06      40.1002 
         200     0.213332 -3.52809e-05 -9.47917e-06      40.1002 
         200     0.333332  -0.00013268 -1.74489e-05      40.1002 
         200         0.48 -0.000279255 -2.53045e-05      40.1002 
         200     0.653331 -0.000452693 -3.23955e-05      40.1002 
         200     0.853332 -0.000585046 -3.66944e-05      40.1002 
         200         1.08 -0.000566025 -3.21898e-05      40.1002 
         200      1.33333 -0.000403137 -1.63497e-05      40.1002 
         200      1.61333 -0.000226549  4.76804e-06      40.1002 
         200         1.92 -5.09779e-05  2.71181e-05      40.1002 
         200      2.25333  0.000110933   4.9289e-05      40.1002 
         200      2.61333  0.000249274   6.9106e-05      40.1002 
         200            3  0.000358832  8.52982e-05      40.1002 
         250            0           -0           -0      37.6495 
         250     0.013333  0.000914012 -8.39362e-08      37.6495 
         250     0.053333   0.00251186  1.17259e-07      37.6495 
         250         0.12   0.00427082  9.23961e-06      37.6495 
         250     0.213332   0.00529461  5.00975e-05      37.6495 
         250     0.333332   0.00534596  0.000145654      37.6495 
         250         0.48   0.00490536  0.000300115      37.6495 
         250     0.653331    0.0045148  0.000498111      37.6495 
         250     0.853332   0.00424444   0.00071312      37.6495 
         250         1.08   0.00378835  0.000916424      37.6495 
         250      1.33333   0.00304747   0.00109139      37.6495 
         250      1.61333    0.0022273   0.00123758      37.6494 
         250         1.92   0.00138793   0.00134577      37.6494 
         250      2.25333  0.000595273    0.0014047      37.6493 
         250      2.61333  -8.6863e-05   0.00141231      37.6492 
         250            3 -0.000612327   0.00137012      37.6491 
         300            0           -0           -0      35.2062 
         300     0.013333  0.000493456 -1.23092e-07      35.2062 
         300     0.053333   0.00106233 -1.40107e-06      35.2062 
         300         0.12   0.00179019 -3.58179e-06      35.2062 
         300     0.213332   0.00237775 -1.81872e-06      35.2062 
         300     0.333332   0.00267947   1.0466e-05      35.2062 
         300         0.48   0.00276802  3.62321e-05      35.2062 
         300     0.653331   0.00278643  7.35256e-05      35.2062 
         300     0.853332   0.00277136  0.000116021      35.2062 
         300         1.08   0.00260627  0.000153214      35.2062 
         300      1.33333   0.00221269   0.00017627      35.2062 
         300      1.61333   0.00172084  0.000187243      35.2062 
         300         1.92   0.00121686  0.000190126      35.2062 
         300      2.25333  0.000729316  0.000184689      35.2062 
         300      2.61333  0.000283182  0.000171954      35.2061 
         300            3 -8.99548e-05   0.00015301      35.2061 
         350            0           -0           -0      32.7716 
         350     0.013333  0.000293843  1.38165e-08      32.7716 
         350     0.053333  0.000320315   2.7123e-07      32.7716 
         350         0.12  0.000347314   1.6336e-06      32.7716 
         350     0.213332  0.000329335  5.54662e-06      32.7716 
         350     0.333332  0.000270453  1.30017e-05      32.7716 
         350         0.48   0.00020933  2.35668e-05      32.7716 
         350     0.653331  0.000175165  3.57289e-05      32.7716 
         350     0.853332  0.000163625  4.78323e-05      32.7716 
         350         1.08   0.00015673  5.87745e-05      32.7716 
         350      1.33333  0.000152091  6.83721e-05      32.7715 
         350      1.61333  0.000156428  7.67966e-05      32.7715 
         350         1.92   0.00016826  8.36092e-05      32.7715 
         350      2.25333  0.000183794  8.80258e-05      32.7715 
         350      2.61333  0.000200402   8.9704e-05      32.7715 
         350            3  0.000216434  8.85649e-05      32.7715 
         400            0            0            0      30.3434 
         400     0.013333   0.00040153 -5.95684e-08      30.3434 
         400     0.053333  0.000723863 -6.57541e-07      30.3434 
         400         0.12   0.00113722 -1.41949e-06      30.3434 
         400     0.213332   0.00144567  9.60686e-07      30.3434 
         400     0.333332   0.00154778  1.12407e-05      30.3434 
         400         0.48   0.00149611  3.17804e-05      30.3434 
         400     0.653331   0.00140601  6.09944e-05      30.3434 
         400     0.853332   0.00132771   9.4567e-05      30.3434 
         400         1.08   0.00122203  0.000127263      30.3434 
         400      1.33333   0.00105663  0.000155867      30.3434 
         400      1.61333  0.000867635   0.00018072      30.3434 
         400         1.92  0.000675577  0.000201727      30.3434 
         400      2.25333  0.000482758  0.000217221      30.3434 
         400      2.61333  0.000299071  0.000225916      30.3434 
         400            3  0.000139849  0.000227073      30.3434 
         450            0            0            0       27.919 
         450     0.013333  0.000218573  1.13353e-07       27.919 
         450     0.053333  1.92138e-05  1.70381e-06       27.919 
         450         0.12 -0.000300367  7.63793e-06       27.919 
         450     0.213332 -0.000684351  1.98373e-05       27.919 
         450     0.333332 -0.000996926  3.67352e-05       27.919 
         450         0.48  -0.00113621  5.38322e-05       27.919 
         450     0.653331  -0.00111133  6.70092e-05       27.919 
         450     0.853332  -0.00100566  7.43159e-05       27.919 
         450         1.08 -0.000895643  7.52173e-05       27.919 
         450      1.33333 -0.000790151  7.08016e-05       27.919 
         450      1.61333 -0.000644032  6.38724e-05       27.919 
         450         1.92 -0.000450539  5.60473e-05       27.919 
         450      2.25333  -0.00023575  4.71824e-05      27.9191 
         450      2.61333  -1.7659e-05   3.7432e-05      27.9191 
         450            3   0.00018871  2.72694e-05      27.9191 
         500            0            0            0      25.5013 
         500     0.013333  0.000734821 -4.60603e-07      25.5013 
         500     0.053333   0.00202401 -6.14684e-06      25.5013 
         500         0.12   0.00381542 -2.25703e-05      25.5013 
         500     0.213332   0.00541861 -4.36195e-05      25.5013 
         500     0.333332   0.00625929 -5.11955e-05      25.5013 
         500         0.48   0.00631749  -3.0063e-05      25.5013 
         500     0.653331   0.00597618  1.97255e-05      25.5013 
         500     0.853332   0.00551704  8.47488e-05      25.5013 
         500         1.08   0.00492786  0.000148575      25.5013 
         500      1.33333   0.00417084  0.000203518      25.5013 
         500      1.61333   0.00336378   0.00025308      25.5013 
         500         1.92   0.00254747  0.000299783      25.5013 
         500      2.25333   0.00170287  0.000340112      25.5012 
         500      2.61333   0.00085646  0.000370824      25.5012 
         500            3   7.4737e-05  0.000389837      25.5011 
         550            0            0            0      23.0811 
         550     0.013333 -0.000498722 -2.95297e-09      23.0811 
         550     0.053333  -0.00249325 -1.11456e-06      23.0811 
         550         0.12   -0.0047591 -1.20734e-05      23.0811 
         550     0.213332  -0.00628072 -5.42046e-05      23.0811 
         550     0.333332  -0.00662995 -0.000151071      23.0811 
         550         0.48  -0.00618699 -0.000311669      23.0811 
         550     0.653331  -0.00562134 -0.000526933      23.0811 
         550     0.853332  -0.00529168  -0.00077794      23.0811 
         550         1.08  -0.00505624  -0.00104028      23.0811 
         550      1.33333  -0.00454646  -0.00128838      23.0811 
         550      1.61333  -0.00369541  -0.00150794      23.0812 
         550         1.92  -0.00275421  -0.00169624      23.0812 
         550      2.25333   -0.0017851   -0.0018449      23.0812 
         550      2.61333 -0.000808729  -0.00194328      23.0813 
         550            3  0.000118635  -0.00198302      23.0814 
         600            0            0            0      20.6709 
         600     0.013333  0.000728988 -8.81339e-08      20.6709 
         600     0.053333   0.00192268 -8.23114e-07      20.6709 
         600         0.12   0.00344024 -4.12005e-07      20.6709 
         600     0.213332   0.00469826  9.38713e-06      20.6709 
         600     0.333332   0.00533872  4.05395e-05      20.6709 
         600         0.48   0.00541466  0.000101138      20.6709 
         600     0.653331   0.00523061  0.000191531      20.6709 
         600     0.853332    0.0050432  0.000306067      20.6709 
         600         1.08   0.00488157  0.000434458      20.6709 
         600      1.33333   0.00456538  0.000562129      20.6709 
         600      1.61333   0.00396863  0.000676177      20.6709 
         600         1.92   0.00321977  0.000773029      20.6708 
         600      2.25333   0.00241267  0.000850465      20.6708 
         600      2.61333   0.00158208  0.000904342      20.6708 
         600            3  0.000763582  0.000930576      20.6707 
         650            0           -0           -0      18.2581 
         650     0.013333  0.000228772  5.43044e-07      18.2581 
         650     0.053333 -7.47239e-05  8.08315e-06      18.2581 
         650         0.12 -0.000846884  3.60478e-05      18.2581 
         650     0.213332  -0.00205145  9.47778e-05      18.2581 
         650     0.333332  -0.00328807  0.000182813      18.2581 
         650         0.48  -0.00414654   0.00028893      18.2581 
         650     0.653331  -0.00450329  0.000402571      18.2581 
         650     0.853332  -0.00444777  0.000520723      18.2581 
         650         1.08   -0.0040858  0.000645133      18.2581 
         650      1.33333  -0.00353327  0.000774035      18.2581 
         650      1.61333  -0.00293399  0.000899587      18.2581 
         650         1.92  -0.00232514   0.00101311      18.2581 
         650      2.25333  -0.00167456    0.0011077      18.2581 
         650      2.61333 -0.000989298     0.001177      18.2582 
         650            3 -0.000309334   0.00121542      18.2582 
         700            0           -0           -0      15.8524 
         700     0.013333  1.70122e-06 -2.91218e-07      15.8524 
         700     0.053333 -0.000636918 -4.57722e-06      15.8524 
         700         0.12  -0.00117653 -2.20907e-05      15.8524 
         700     0.213332  -0.00129564  -6.3797e-05      15.8524 
         700     0.333332 -0.000997622 -0.000136157      15.8524 
         700         0.48 -0.000535406  -0.00023824      15.8524 
         700     0.653331 -0.000162868 -0.000365013      15.8524 
         700     0.853332 -9.27643e-06 -0.000512163      15.8524 
         700         1.08 -8.61292e-05 -0.000676321      15.8524 
         700      1.33333 -0.000269198 -0.000850039      15.8524 
         700      1.61333 -0.000354353  -0.00101994      15.8524 
         700         1.92 -0.000296909  -0.00117403      15.8524 
         700      2.25333  -0.00019334  -0.00130521      15.8524 
         700      2.61333 -8.38682e-05  -0.00140613      15.8524 
         700            3  3.52898e-05  -0.00146979      15.8524 
         750            0  3.30465e-19  2.90423e-26      13.4497 
         750     0.013333   0.00035817 -1.97699e-07      13.4497 
         750     0.053333   0.00062733 -2.87944e-06      13.4497 
         750         0.12   0.00113776 -1.24221e-05      13.4497 
         750     0.213332   0.00178125  -3.1335e-05      13.4497 
         750     0.333332   0.00236034 -5.76288e-05      13.4497 
         750         0.48   0.00272811 -8.64417e-05      13.4497 
         750     0.653331    0.0028742 -0.000114119      13.4497 
         750     0.853332   0.00286065 -0.000140419      13.4497 
         750         1.08   0.00272899 -0.000167463      13.4497 
         750      1.33333   0.00249873 -0.000196584      13.4497 
         750      1.61333   0.00220371 -0.000226887      13.4497 
         750         1.92   0.00187186  -0.00025634      13.4497 
         750      2.25333    0.0015106 -0.000282556      13.4497 
         750      2.61333   0.00112814 -0.000303895      13.4497 
         750            3  0.000737942 -0.000318745      13.4497 
         800            0           -0           -0      11.0514 
         800     0.013333  0.000331699  1.60112e-08      11.0514 
         800     0.053333  0.000471933  2.32475e-07      11.0514 
         800         0.12  0.000682734  1.00373e-06      11.0514 
         800     0.213332  0.000901097  2.59849e-06      11.0514 
         800     0.333332   0.00107894  5.30386e-06      11.0514 
         800         0.48   0.00118352  9.97291e-06      11.0514 
         800     0.653331   0.00121235  1.82324e-05      11.0514 
         800     0.853332   0.00120236  3.20195e-05      11.0514 
         800         1.08   0.00120809  5.26683e-05      11.0514 
         800      1.33333    0.0012353  7.91072e-05      11.0514 
         800      1.61333   0.00121549  0.000106926      11.0514 
         800         1.92   0.00110948  0.000131953      11.0514 
         800      2.25333  0.000962139  0.000153818      11.0514 
         800      2.61333  0.000800599  0.000171627      11.0514 
         800            3  0.000627957  0.000184468      11.0514 
         850            0            0            0      8.66147 
         850     0.013333  0.000535606  6.45073e-09      8.66147 
         850     0.053333   0.00119845  4.00237e-07      8.66147 
         850         0.12   0.00199666  3.87587e-06      8.66147 
         850     0.213332   0.00256054  1.71671e-05      8.66148 
         850     0.333332    0.0026993  4.84139e-05      8.66148 
         850         0.48    0.0025089  0.000101659      8.66148 
         850     0.653331   0.00223539  0.000174588      8.66148 
         850     0.853332   0.00205111  0.000260887      8.66148 
         850         1.08   0.00195155  0.000352674      8.66148 
         850      1.33333   0.00181846   0.00044229      8.66148 
         850      1.61333   0.00159132   0.00052542      8.66147 
         850         1.92   0.00134021  0.000601629      8.66147 
         850      2.25333   0.00108195  0.000669971      8.66145 
         850      2.61333  0.000814716  0.000726327      8.66144 
         850            3  0.000545571  0.000766232      8.66142 
         900            0  5.62707e-19  1.89659e-25      6.27636 
         900     0.013333  0.000212225  1.30994e-07      6.27636 
         900     0.053333   1.1395e-06  1.83088e-06      6.27636 
         900         0.12 -0.000318227   7.4254e-06      6.27636 
         900     0.213332 -0.000676654   1.7378e-05      6.27636 
         900     0.333332 -0.000970868  2.96754e-05      6.27636 
         900         0.48  -0.00116188   4.2101e-05      6.27636 
         900     0.653331   -0.0012844  5.43906e-05      6.27636 
         900     0.853332  -0.00137272  6.85369e-05      6.27636 
         900         1.08  -0.00139037  8.84907e-05      6.27636 
         900      1.33333  -0.00125706  0.000118396      6.27636 
         900      1.61333 -0.000989398  0.000157902      6.27636 
         900         1.92 -0.000727629   0.00020002      6.27636 
         900      2.25333 -0.000500684  0.000239868      6.27637 
         900      2.61333 -0.000281139  0.000275155      6.27638 
         900            3 -5.30175e-05  0.000304673      6.27639 
         950            0            0            0       3.8972 
         950     0.013333   0.00053616  1.13234e-07       3.8972 
         950     0.053333   0.00115446  2.06352e-06       3.8972 
         950         0.12   0.00176609  1.18445e-05       3.8972 
         950     0.213332   0.00195376  4.00993e-05       3.8972 
         950     0.333332    0.0015981  9.71068e-05       3.8972 
         950         0.48  0.000949526  0.000185483       3.8972 
         950     0.653331   0.00037639  0.000298547       3.8972 
         950     0.853332  6.78951e-05  0.000425359       3.8972 
         950         1.08 -3.29274e-05  0.000555599       3.8972 
         950      1.33333 -9.34536e-05  0.000681283       3.8972 
         950      1.61333 -0.000190488  0.000798677       3.8972 
         950         1.92 -0.000255254  0.000908049      3.89719 
         950      2.25333 -0.000269075   0.00100752      3.89719 
         950      2.61333 -0.000253243   0.00109174      3.89718 
         950            3 -0.000223814   0.00115444      3.89716 
        1000            0           -0           -0      1.51732 
        1000     0.013333 -0.000131221   8.3062e-07      1.51732 
        1000     0.053333  -0.00149655  1.22423e-05      1.51733 
        1000         0.12  -0.00388259  5.33724e-05      1.51733 
        1000     0.213332  -0.00683938   0.00013593      1.51733 
        1000     0.333332  -0.00942436  0.000251479      1.51732 
        1000         0.48   -0.0109089  0.000377129      1.51732 
        1000     0.653331   -0.0112616  0.000494233      1.51732 
        1000     0.853332   -0.0108848  0.000600362      1.51732 
        1000         1.08   -0.0100884  0.000705762      1.51732 
        1000      1.33333  -0.00899355  0.000818905      1.51732 
        1000      1.61333  -0.00775978  0.000936071      1.51732 
        1000         1.92  -0.00657508    0.0010455      1.51734 
        1000      2.25333  -0.00537218   0.00113968      1.51737 
        1000      2.61333  -0.00408663   0.00121486      1.51742 
        1000            3  -0.00272079   0.00126736      1.51749 
