Variables = x, y, u, v, p

Zone, I=800, F=POINT
          -5            0            0            0     -100.544 
          -5     0.000234 -1.73023e-05  9.69241e-10     -100.544 
          -5     0.000939 -6.52514e-05  3.81262e-09     -100.544 
          -5     0.002113 -0.000132293   8.2984e-09     -100.544 
          -5     0.003759 -0.000202997  1.40873e-08     -100.544 
          -5     0.005872 -0.000261692   2.0721e-08     -100.544 
          -5     0.008457 -0.000297449  2.77337e-08     -100.544 
          -5      0.01151 -0.000306572  3.46546e-08     -100.544 
          -5     0.015036 -0.000293748  4.11253e-08     -100.544 
          -5     0.019031 -0.000270099  4.69195e-08     -100.544 
          -5     0.023493 -0.000248905  5.20054e-08     -100.544 
          -5     0.028429 -0.000240039  5.65345e-08     -100.544 
          -5     0.033831 -0.000245377   6.0741e-08     -100.544 
          -5     0.039706 -0.000257342  6.48279e-08     -100.544 
          -5     0.046047 -0.000262827  6.87681e-08     -100.544 
          -5     0.052863 -0.000252636  7.22128e-08     -100.544 
          -5      0.06015 -0.000232656  7.46211e-08     -100.544 
          -5       0.0679 -0.000226158  7.60322e-08     -100.544 
          -5     0.076126 -0.000245459  7.90106e-08     -100.544 
          -5     0.084816 -0.000221499  9.21942e-08     -100.544 
          -5     0.093982 -0.000224913  9.66948e-08     -100.544 
          -5     0.103611  -0.00022321  9.34224e-08     -100.544 
          -5     0.113718 -0.000219079  9.98213e-08     -100.544 
          -5     0.124286 -0.000214463  1.22742e-07     -100.544 
          -5     0.135333 -0.000210446  1.59969e-07     -100.544 
          -5      0.14685 -0.000207337  2.03653e-07     -100.544 
          -5     0.158827 -0.000204859  2.45573e-07     -100.544 
          -5     0.171284 -0.000202467  2.83124e-07     -100.544 
          -5     0.184201 -0.000199755  3.23714e-07     -100.544 
          -5     0.197599 -0.000196761  3.85513e-07     -100.544 
          -5     0.211455 -0.000194084  4.89111e-07     -100.544 
          -5     0.225792 -0.000192447   6.3551e-07     -100.544 
          -5       0.2406 -0.000191431  7.60425e-07     -100.544 
          -5     0.255865 -0.000188988  7.86484e-07     -100.544 
          -5     0.271613 -0.000187645  9.02724e-07     -100.544 
          -5     0.287818 -0.000186517  1.04896e-06     -100.544 
          -5     0.304506 -0.000185567  1.22088e-06     -100.544 
          -5      0.32165 -0.000184759  1.40979e-06     -100.544 
          -5     0.339278  -0.00018408  1.61528e-06     -100.544 
          -5     0.357377 -0.000183521  1.83639e-06     -100.544 
          -5      0.37593 -0.000183074  2.07201e-06     -100.544 
          -5     0.394968 -0.000182728  2.32158e-06     -100.544 
          -5     0.414461 -0.000182478  2.58368e-06     -100.544 
          -5      0.43444 -0.000182315  2.85768e-06     -100.544 
          -5     0.454872 -0.000182238  3.14205e-06     -100.544 
          -5     0.475791 -0.000182243  3.43615e-06     -100.544 
          -5     0.497163  -0.00018233  3.73842e-06     -100.544 
          -5     0.519021 -0.000182502  4.04822e-06     -100.544 
          -5      0.54135 -0.000182763  4.36425e-06     -100.544 
          -5     0.564131 -0.000183119  4.68518e-06     -100.544 
          -5       0.5874 -0.000183577  5.01046e-06     -100.544 
          -5     0.611121 -0.000184147  5.33859e-06     -100.544 
          -5      0.63533 -0.000184839  5.66905e-06     -100.544 
          -5      0.65999 -0.000185664  6.00039e-06     -100.545 
          -5     0.685139 -0.000186632  6.33218e-06     -100.545 
          -5     0.710759 -0.000187754  6.66325e-06     -100.545 
          -5     0.736828 -0.000189037  6.99242e-06     -100.545 
          -5     0.763387 -0.000190489  7.31934e-06     -100.545 
          -5     0.790396 -0.000192112  7.64265e-06     -100.545 
          -5     0.817896 -0.000193908  7.96202e-06     -100.545 
          -5     0.845843 -0.000195873  8.27612e-06     -100.545 
          -5     0.874283 -0.000198002  8.58473e-06     -100.545 
          -5      0.90317 -0.000200281  8.88667e-06     -100.545 
          -5     0.932551 -0.000202699  9.18187e-06     -100.545 
          -5     0.962401 -0.000205237  9.46969e-06     -100.545 
          -5     0.992697 -0.000207876  9.74976e-06     -100.545 
          -5      1.02349 -0.000210602  1.00227e-05     -100.545 
          -5      1.05472 -0.000213398  1.02888e-05     -100.545 
          -5      1.08645 -0.000216264  1.05498e-05     -100.545 
          -5      1.11863 -0.000219206  1.08073e-05     -100.545 
          -5       1.1513 -0.000222247  1.10611e-05     -100.545 
          -5      1.18444 -0.000225287  1.12959e-05     -100.545 
          -5      1.21802 -0.000228285  1.15257e-05     -100.545 
          -5      1.25211 -0.000231244  1.17508e-05     -100.545 
          -5      1.28663 -0.000234157  1.19706e-05     -100.545 
          -5      1.32165 -0.000237031  1.21848e-05     -100.545 
          -5      1.35712 -0.000239864  1.23919e-05     -100.545 
          -5      1.39308 -0.000242664   1.2591e-05     -100.546 
          -5      1.42951 -0.000245435  1.27807e-05     -100.546 
          -5      1.46638 -0.000248177  1.29596e-05     -100.546 
          -5      1.50375   -0.0002509   1.3127e-05     -100.546 
          -5      1.54156   -0.0002536  1.32821e-05     -100.546 
          -5      1.57987 -0.000256281   1.3425e-05     -100.546 
          -5      1.61863 -0.000258937  1.35561e-05     -100.546 
          -5      1.65788 -0.000261565  1.36771e-05     -100.546 
          -5      1.69757 -0.000264152  1.37904e-05     -100.546 
          -5      1.73776 -0.000266689  1.38995e-05     -100.546 
          -5      1.77842 -0.000269158  1.40093e-05     -100.546 
          -5      1.81952 -0.000271554  1.40681e-05     -100.546 
          -5      1.86113 -0.000273852  1.41198e-05     -100.546 
          -5      1.90316 -0.000276028  1.41725e-05     -100.547 
          -5      1.94571 -0.000278073   1.4226e-05     -100.547 
          -5      1.98869 -0.000279982  1.42763e-05     -100.547 
          -5      2.03217 -0.000281774  1.43137e-05     -100.547 
          -5      2.07612 -0.000283493  1.43189e-05     -100.547 
          -5      2.12051 -0.000285155  1.42957e-05     -100.547 
          -5       2.1654 -0.000286768  1.42519e-05     -100.547 
          -5      2.21073 -0.000288369  1.41681e-05     -100.547 
          -5      2.25656 -0.000289959  1.40425e-05     -100.547 
          -5      2.30283 -0.000291539  1.38684e-05     -100.548 
          -5       2.3496 -0.000293113  1.36344e-05     -100.548 
          -5      2.39685 -0.000294729   1.3394e-05     -100.548 
          -5      2.44452 -0.000296385  1.31445e-05     -100.548 
          -5      2.49271 -0.000298046   1.2838e-05     -100.548 
          -5      2.54132 -0.000299707  1.24903e-05     -100.548 
          -5      2.59044 -0.000301362  1.21187e-05     -100.548 
          -5         2.64 -0.000302996  1.17427e-05     -100.548 
          -5      2.69006 -0.000304596  1.13808e-05     -100.549 
          -5      2.74056 -0.000306137  1.10517e-05     -100.549 
          -5      2.79156 -0.000307598  1.07712e-05     -100.549 
          -5      2.84304 -0.000308951  1.05535e-05     -100.549 
          -5      2.89494 -0.000310166  1.04096e-05     -100.549 
          -5      2.94735 -0.000311215  1.03471e-05     -100.549 
          -5       3.0002 -0.000312065  1.03708e-05     -100.549 
          -5      3.05355 -0.000312689  1.04834e-05      -100.55 
          -5      3.10733 -0.000313059  1.06859e-05      -100.55 
          -5      3.16163  -0.00031315  1.09804e-05      -100.55 
          -5      3.21639 -0.000312945   1.1371e-05      -100.55 
          -5      3.27158 -0.000312431  1.18675e-05      -100.55 
          -5      3.32729 -0.000311603  1.24904e-05      -100.55 
          -5      3.38342  -0.00031054  1.31443e-05      -100.55 
          -5      3.44007 -0.000309187  1.37687e-05     -100.551 
          -5      3.49714 -0.000307634  1.44952e-05     -100.551 
          -5      3.55472 -0.000306114  1.52684e-05     -100.551 
          -5      3.61273 -0.000304793  1.60416e-05     -100.551 
          -5      3.67125 -0.000303749  1.67809e-05     -100.551 
          -5      3.73025 -0.000302973  1.74612e-05     -100.551 
          -5      3.78967 -0.000302364  1.80677e-05     -100.552 
          -5      3.84961 -0.000301728  1.85969e-05     -100.552 
          -5      3.90996 -0.000300795  1.90532e-05     -100.552 
          -5      3.97084 -0.000300093  1.95986e-05     -100.552 
          -5      4.03214  -0.00029936  2.00391e-05     -100.552 
          -5      4.09395 -0.000298611  2.04006e-05     -100.552 
          -5      4.15624 -0.000297865  2.07031e-05     -100.553 
          -5      4.21895 -0.000297131  2.09599e-05     -100.553 
          -5      4.28217 -0.000296411  2.11792e-05     -100.553 
          -5      4.34582 -0.000295707  2.13647e-05     -100.553 
          -5      4.40998 -0.000295014  2.15172e-05     -100.553 
          -5      4.47457 -0.000294332  2.16358e-05     -100.553 
          -5      4.53968 -0.000293657  2.17191e-05     -100.554 
          -5      4.60525 -0.000292992  2.17657e-05     -100.554 
          -5      4.67125 -0.000292336  2.17756e-05     -100.554 
          -5      4.73777 -0.000291693  2.17504e-05     -100.554 
          -5       4.8047 -0.000291066  2.16937e-05     -100.554 
          -5      4.87216 -0.000290454   2.1611e-05     -100.554 
          -5      4.94003 -0.000289855  2.15099e-05     -100.554 
          -5      5.00843 -0.000289256  2.13985e-05     -100.555 
          -5      5.07724 -0.000288633  2.12853e-05     -100.555 
          -5      5.14658 -0.000287937  2.11768e-05     -100.555 
          -5      5.21639 -0.000287317  2.11123e-05     -100.555 
          -5      5.28661 -0.000286732  2.10738e-05     -100.555 
          -5      5.35736 -0.000286117   2.0938e-05     -100.555 
          -5      5.42852 -0.000285557  2.06932e-05     -100.555 
          -5      5.50021 -0.000285035  2.04392e-05     -100.556 
          -5      5.57231 -0.000284475  2.02116e-05     -100.556 
          -5      5.64493  -0.00028389  2.00075e-05     -100.556 
          -5      5.71803 -0.000283292  1.98231e-05     -100.556 
          -5      5.79154 -0.000282689  1.96544e-05     -100.556 
          -5      5.86558 -0.000282089  1.94961e-05     -100.556 
          -5      5.94003 -0.000281498  1.93437e-05     -100.556 
          -5      6.01501 -0.000280918   1.9192e-05     -100.556 
          -5       6.0904 -0.000280352  1.90367e-05     -100.556 
          -5      6.16632 -0.000279801  1.88736e-05     -100.556 
          -5      6.24271 -0.000279264  1.86999e-05     -100.557 
          -5       6.3195 -0.000278741  1.85136e-05     -100.557 
          -5      6.39683 -0.000278228  1.83137e-05     -100.557 
          -5      6.47457 -0.000277725  1.81011e-05     -100.557 
          -5      6.55284 -0.000277228  1.78778e-05     -100.557 
          -5      6.63152 -0.000276735  1.76481e-05     -100.557 
          -5      6.71073 -0.000276244  1.74173e-05     -100.557 
          -5      6.79034 -0.000275755  1.71932e-05     -100.557 
          -5      6.87049 -0.000275266  1.69847e-05     -100.557 
          -5      6.95111 -0.000274779  1.68032e-05     -100.557 
          -5      7.03214 -0.000274298  1.66511e-05     -100.557 
          -5       7.1137 -0.000273808  1.62652e-05     -100.557 
          -5      7.19566 -0.000273354   1.5902e-05     -100.557 
          -5      7.27816 -0.000272932  1.55595e-05     -100.557 
          -5      7.36106 -0.000272536  1.52336e-05     -100.557 
          -5      7.44451 -0.000272156  1.49167e-05     -100.557 
          -5      7.52842 -0.000271783  1.46006e-05     -100.557 
          -5      7.61273 -0.000271408  1.42772e-05     -100.557 
          -5      7.69758 -0.000271023  1.39384e-05     -100.557 
          -5      7.78283 -0.000270624  1.35788e-05     -100.557 
          -5      7.86862 -0.000270206  1.31948e-05     -100.557 
          -5      7.95481 -0.000269774  1.27868e-05     -100.557 
          -5      8.04155 -0.000269332  1.23582e-05     -100.557 
          -5      8.12868 -0.000268892  1.19179e-05     -100.557 
          -5      8.21635 -0.000268467  1.14779e-05     -100.557 
          -5      8.30449 -0.000268077  1.10561e-05     -100.556 
          -5      8.39303 -0.000267743  1.06746e-05     -100.556 
          -5      8.48211  -0.00026749  1.03592e-05     -100.556 
          -5      8.57159 -0.000267212  1.00081e-05     -100.556 
          -5      8.66161 -0.000266862  9.54567e-06     -100.556 
          -5      8.75203 -0.000266513  9.11621e-06     -100.556 
          -5      8.84299 -0.000266127  8.78837e-06     -100.556 
          -5      8.93443 -0.000265658  8.63433e-06     -100.556 
          -5      9.02626 -0.000265045  8.72524e-06     -100.555 
          -5      9.11863 -0.000264641   8.4897e-06     -100.555 
          -5      9.21139 -0.000264338  8.12345e-06     -100.555 
          -5      9.30471 -0.000263957  7.88729e-06     -100.555 
          -5      9.39841 -0.000263527  7.72855e-06     -100.555 
          -5      9.49267 -0.000263077  7.60422e-06     -100.554 
          -5      9.58739  -0.00026263  7.48061e-06     -100.554 
          -5      9.68251 -0.000262226  7.36493e-06     -100.554 
          -5      9.77817 -0.000261951   7.3751e-06     -100.554 
          -5      9.87422 -0.000261717  7.30698e-06     -100.553 
          -5      9.97083 -0.000261499  7.18608e-06     -100.553 
          -5      10.0678 -0.000261272  7.03648e-06     -100.553 
          -5      10.1654 -0.000261019  6.87797e-06     -100.552 
          -5      10.2633 -0.000260731  6.72531e-06     -100.552 
          -5      10.3618 -0.000260406   6.5861e-06     -100.552 
          -5      10.4607 -0.000260053  6.46105e-06     -100.551 
          -5      10.5601  -0.00025969  6.34368e-06     -100.551 
          -5        10.66  -0.00025934  6.22089e-06     -100.551 
          -5      10.7603 -0.000259025  6.07525e-06      -100.55 
          -5      10.8611 -0.000258766  5.88658e-06      -100.55 
          -5      10.9623 -0.000258571  5.63638e-06     -100.549 
          -5      11.0641 -0.000258428  5.31098e-06     -100.549 
          -5      11.1663  -0.00025829  4.90835e-06     -100.549 
          -5       11.269 -0.000258076  4.54389e-06     -100.548 
          -5      11.3721 -0.000257874   4.4128e-06     -100.548 
          -5      11.4757 -0.000257715  4.27354e-06     -100.547 
          -5      11.5798 -0.000257572  4.08583e-06     -100.547 
          -5      11.6844 -0.000257424   3.8308e-06     -100.546 
          -5      11.7894 -0.000257257  3.50518e-06     -100.546 
          -5       11.895 -0.000257061  3.11834e-06     -100.545 
          -5      12.0009 -0.000256829  2.68784e-06     -100.545 
          -5      12.1073 -0.000256559  2.23447e-06     -100.544 
          -5      12.2142  -0.00025625  1.78127e-06     -100.543 
          -5      12.3216 -0.000255904   1.3477e-06     -100.543 
          -5      12.4294 -0.000255526  9.49946e-07     -100.542 
          -5      12.5378 -0.000255118  5.96071e-07     -100.542 
          -5      12.6465 -0.000254687  2.87049e-07     -100.541 
          -5      12.7558 -0.000254234  1.35727e-08      -100.54 
          -5      12.8656 -0.000254229 -2.22636e-07      -100.54 
          -5      12.9757  -0.00025422 -4.59392e-07     -100.539 
          -5      13.0864 -0.000254159 -7.05174e-07     -100.538 
          -5      13.1975 -0.000254055 -9.63102e-07     -100.538 
          -5      13.3092 -0.000253922 -1.23537e-06     -100.537 
          -5      13.4212 -0.000253778 -1.52237e-06     -100.536 
          -5      13.5338 -0.000253641 -1.82555e-06     -100.535 
          -5      13.6468 -0.000253526  -2.1473e-06     -100.534 
          -5      13.7603 -0.000253441 -2.49347e-06     -100.534 
          -5      13.8743 -0.000253384 -2.87658e-06     -100.533 
          -5      13.9886 -0.000253333 -3.31658e-06     -100.532 
          -5      14.1036  -0.00025324  -3.8466e-06     -100.531 
          -5      14.2189 -0.000253171   -4.443e-06      -100.53 
          -5      14.3348 -0.000253233 -4.92967e-06     -100.529 
          -5       14.451 -0.000253234 -5.34152e-06     -100.529 
          -5      14.5678 -0.000253167 -5.68931e-06     -100.528 
          -5      14.6851 -0.000253031 -5.98479e-06     -100.527 
          -5      14.8028 -0.000252832 -6.24112e-06     -100.526 
          -5       14.921 -0.000252584 -6.47265e-06     -100.525 
          -5      15.0396 -0.000252305 -6.69286e-06     -100.524 
          -5      15.1588 -0.000252012  -6.9153e-06     -100.523 
          -5      15.2783 -0.000251726 -7.15146e-06     -100.522 
          -5      15.3984 -0.000251465 -7.41169e-06     -100.521 
          -5       15.519 -0.000251246 -7.70333e-06      -100.52 
          -5        15.64 -0.000251084 -8.03065e-06     -100.519 
          -5      15.7615 -0.000250986 -8.39525e-06     -100.518 
          -5      15.8834 -0.000250959 -8.79375e-06     -100.517 
          -5      16.0058 -0.000251002  -9.2197e-06     -100.515 
          -5      16.1286  -0.00025079 -9.55483e-06     -100.514 
          -5       16.252 -0.000250436 -9.79477e-06     -100.513 
          -5      16.3759 -0.000250142 -1.00038e-05     -100.512 
          -5      16.5002 -0.000249915 -1.01946e-05     -100.511 
          -5       16.625 -0.000249752 -1.03824e-05      -100.51 
          -5      16.7501 -0.000249646 -1.05824e-05     -100.508 
          -5      16.8759 -0.000249583 -1.08099e-05     -100.507 
          -5       17.002 -0.000249544 -1.10759e-05     -100.506 
          -5      17.1287 -0.000249506 -1.13867e-05     -100.504 
          -5      17.2557 -0.000249439 -1.17387e-05     -100.503 
          -5      17.3834 -0.000249316 -1.21167e-05     -100.502 
          -5      17.5115 -0.000249107 -1.24873e-05     -100.501 
          -5      17.6399 -0.000248786 -1.27951e-05     -100.499 
          -5       17.769 -0.000248331 -1.29574e-05     -100.498 
          -5      17.8984 -0.000248436 -1.37255e-05     -100.496 
          -5      18.0284 -0.000248555 -1.43728e-05     -100.495 
          -5      18.1587   -0.0002486 -1.48708e-05     -100.494 
          -5      18.2896 -0.000248566 -1.52701e-05     -100.492 
          -5       18.421 -0.000248455 -1.56081e-05     -100.491 
          -5      18.5528 -0.000248275 -1.59121e-05     -100.489 
          -5      18.6851 -0.000248039 -1.62035e-05     -100.488 
          -5      18.8178 -0.000247767  -1.6498e-05     -100.486 
          -5      18.9511  -0.00024748 -1.68101e-05     -100.484 
          -5      19.0847 -0.000247204 -1.71533e-05     -100.483 
          -5      19.2189 -0.000247124 -1.75045e-05     -100.481 
          -5      19.3535 -0.000247298 -1.77941e-05      -100.48 
          -5      19.4886 -0.000247395 -1.80711e-05     -100.478 
          -5      19.6242 -0.000247403 -1.83405e-05     -100.476 
          -5      19.7602 -0.000247323 -1.86094e-05     -100.475 
          -5      19.8968 -0.000247164 -1.88867e-05     -100.473 
          -5      20.0337 -0.000246946   -1.918e-05     -100.471 
          -5      20.1712 -0.000246693 -1.94967e-05      -100.47 
          -5      20.3091 -0.000246437 -1.98408e-05     -100.468 
          -5      20.4475 -0.000246208 -2.02138e-05     -100.466 
          -5      20.5864 -0.000246035 -2.06117e-05     -100.464 
          -5      20.7257  -0.00024594 -2.10256e-05     -100.462 
          -5      20.8655 -0.000245929 -2.14413e-05     -100.461 
          -5      21.0058 -0.000245989 -2.18363e-05     -100.459 
          -5      21.1465 -0.000246079 -2.21824e-05     -100.457 
          -5      21.2877 -0.000246121 -2.24423e-05     -100.455 
          -5      21.4294  -0.00024599 -2.25716e-05     -100.453 
          -5      21.5716 -0.000245502 -2.25167e-05     -100.451 
          -5      21.7142 -0.000245308 -2.32046e-05     -100.449 
          -5      21.8573 -0.000245148 -2.39252e-05     -100.447 
          -5      22.0008 -0.000244952 -2.44644e-05     -100.445 
          -5      22.1449 -0.000244789 -2.48578e-05     -100.443 
          -5      22.2893 -0.000244692 -2.51444e-05     -100.441 
          -5      22.4344 -0.000244668 -2.53664e-05     -100.439 
          -5      22.5797 -0.000244699 -2.55649e-05     -100.437 
          -5      22.7257  -0.00024475 -2.57786e-05     -100.435 
          -5      22.8721  -0.00024477 -2.60389e-05     -100.432 
          -5      23.0189 -0.000244701  -2.6367e-05      -100.43 
          -5      23.1663  -0.00024448 -2.67712e-05     -100.428 
          -5       23.314 -0.000244042 -2.72409e-05     -100.426 
          -5      23.4623  -0.00024347 -2.76876e-05     -100.424 
          -5       23.611 -0.000243389 -2.78865e-05     -100.421 
          -5      23.7602 -0.000243288 -2.80942e-05     -100.419 
          -5        23.91 -0.000243183 -2.83178e-05     -100.417 
          -5        24.06 -0.000243081 -2.85586e-05     -100.414 
          -5      24.2107 -0.000242986 -2.88139e-05     -100.412 
          -5      24.3617 -0.000242898  -2.9077e-05      -100.41 
          -5      24.5133 -0.000242813 -2.93404e-05     -100.407 
          -5      24.6653 -0.000242724 -2.95954e-05     -100.405 
          -5      24.8178 -0.000242623 -2.98355e-05     -100.402 
          -5      24.9708 -0.000242502 -3.00566e-05       -100.4 
          -5      25.1242 -0.000242355 -3.02599e-05     -100.398 
          -5      25.2781 -0.000242177 -3.04539e-05     -100.395 
          -5      25.4324 -0.000241971 -3.06554e-05     -100.393 
          -5      25.5873  -0.00024175 -3.08932e-05      -100.39 
          -5      25.7426 -0.000241534  -3.1209e-05     -100.387 
          -5      25.8984 -0.000241362 -3.16613e-05     -100.385 
          -5      26.0546 -0.000241289 -3.23262e-05     -100.382 
          -5      26.2114 -0.000241414 -3.24594e-05      -100.38 
          -5      26.3686 -0.000241491 -3.23635e-05     -100.377 
          -5      26.5262  -0.00024146 -3.24986e-05     -100.374 
          -5      26.6844 -0.000241345 -3.27831e-05     -100.371 
          -5      26.8429 -0.000241167 -3.31498e-05     -100.369 
          -5       27.002 -0.000240949 -3.35464e-05     -100.366 
          -5      27.1615 -0.000240711 -3.39325e-05     -100.363 
          -5      27.3216 -0.000240468 -3.42811e-05      -100.36 
          -5      27.4821 -0.000240235 -3.45752e-05     -100.358 
          -5       27.643 -0.000240024 -3.48076e-05     -100.355 
          -5      27.8044 -0.000239842 -3.49802e-05     -100.352 
          -5      27.9663 -0.000239695 -3.51014e-05     -100.349 
          -5      28.1287 -0.000239582 -3.51854e-05     -100.346 
          -5      28.2914 -0.000239502 -3.52499e-05     -100.343 
          -5      28.4548  -0.00023945  -3.5315e-05      -100.34 
          -5      28.6185 -0.000239417 -3.54006e-05     -100.337 
          -5      28.7828 -0.000239391  -3.5525e-05     -100.334 
          -5      28.9475  -0.00023936 -3.57024e-05     -100.331 
          -5      29.1126 -0.000239308 -3.59404e-05     -100.328 
          -5      29.2784 -0.000239218 -3.62382e-05     -100.325 
          -5      29.4444 -0.000239073 -3.65828e-05     -100.322 
          -5       29.611 -0.000238858 -3.69483e-05     -100.319 
          -5       29.778 -0.000238558 -3.72903e-05     -100.315 
          -5      29.9456  -0.00023816 -3.75454e-05     -100.312 
          -5      30.1137 -0.000237657 -3.76258e-05     -100.309 
          -5      30.2821 -0.000237048 -3.74175e-05     -100.306 
          -5      30.4511  -0.00023638  -3.6841e-05     -100.302 
          -5      30.6204 -0.000236552 -3.73411e-05     -100.299 
          -5      30.7903 -0.000236677 -3.77544e-05     -100.296 
          -5      30.9606  -0.00023675 -3.80976e-05     -100.292 
          -5      31.1315 -0.000236771 -3.83832e-05     -100.289 
          -5      31.3028 -0.000236737 -3.86179e-05     -100.286 
          -5      31.4745 -0.000236651 -3.88043e-05     -100.282 
          -5      31.6468 -0.000236516 -3.89415e-05     -100.279 
          -5      31.8194 -0.000236335 -3.90247e-05     -100.275 
          -5      31.9926 -0.000236116 -3.90473e-05     -100.272 
          -5      32.1662 -0.000235866 -3.90002e-05     -100.268 
          -5      32.3404 -0.000235595 -3.88735e-05     -100.265 
          -5      32.5149 -0.000235312 -3.86573e-05     -100.261 
          -5        32.69  -0.00023503 -3.83417e-05     -100.258 
          -5      32.8655 -0.000234929 -3.86547e-05     -100.254 
          -5      33.0414 -0.000234919 -3.93759e-05     -100.251 
          -5       33.218 -0.000234848 -3.99183e-05     -100.247 
          -5      33.3948 -0.000234719 -4.03144e-05     -100.243 
          -5      33.5723  -0.00023454 -4.05949e-05     -100.239 
          -5        33.75 -0.000234318 -4.07862e-05     -100.236 
          -5      33.9284 -0.000234061 -4.09125e-05     -100.232 
          -5      34.1073 -0.000233776 -4.09943e-05     -100.228 
          -5      34.2865 -0.000233473 -4.10497e-05     -100.224 
          -5      34.4663  -0.00023316 -4.10939e-05     -100.221 
          -5      34.6465 -0.000232845 -4.11396e-05     -100.217 
          -5      34.8272 -0.000232537 -4.11972e-05     -100.213 
          -5      35.0083 -0.000232241 -4.12746e-05     -100.209 
          -5        35.19 -0.000231965 -4.13779e-05     -100.205 
          -5      35.3721 -0.000231713 -4.15111e-05     -100.201 
          -5      35.5546  -0.00023149 -4.16761e-05     -100.197 
          -5      35.7377 -0.000231299  -4.1874e-05     -100.193 
          -5      35.9211  -0.00023114 -4.21035e-05     -100.189 
          -5      36.1052 -0.000231015 -4.23629e-05     -100.185 
          -5      36.2895 -0.000230921 -4.26485e-05     -100.181 
          -5      36.4745 -0.000230855 -4.29566e-05     -100.177 
          -5      36.6598 -0.000230814  -4.3282e-05     -100.173 
          -5      36.8457 -0.000230792 -4.36195e-05     -100.169 
          -5      37.0321  -0.00023078 -4.39633e-05     -100.164 
          -5      37.2188 -0.000230772  -4.4307e-05      -100.16 
          -5      37.4062 -0.000230758 -4.46452e-05     -100.156 
          -5      37.5938 -0.000230726 -4.49715e-05     -100.152 
          -5      37.7821 -0.000230667 -4.52813e-05     -100.147 
          -5      37.9707 -0.000230568 -4.55692e-05     -100.143 
          -5      38.1599 -0.000229843 -4.55036e-05     -100.139 
          -5      38.3496 -0.000229187 -4.54992e-05     -100.134 
          -5      38.5396 -0.000228615 -4.55509e-05      -100.13 
          -5      38.7302 -0.000228134 -4.56529e-05     -100.126 
          -5      38.9211 -0.000227752 -4.57993e-05     -100.121 
          -5      39.1127 -0.000227471 -4.59847e-05     -100.117 
          -5      39.3046 -0.000227287 -4.62032e-05     -100.112 
          -5      39.4971 -0.000227193 -4.64499e-05     -100.108 
          -5      39.6899 -0.000227171 -4.67189e-05     -100.103 
          -5      39.8833 -0.000227199 -4.70053e-05     -100.099 
          -5      40.0772 -0.000227245 -4.73038e-05     -100.094 
          -5      40.2714 -0.000227264  -4.7609e-05      -100.09 
          -5      40.4663 -0.000227203 -4.79163e-05     -100.085 
          -5      40.6615 -0.000226993 -4.82206e-05      -100.08 
          -5      40.8573  -0.00022655 -4.85175e-05     -100.076 
          -5      41.0534 -0.000226385 -4.87121e-05     -100.071 
          -5      41.2501 -0.000226274 -4.88933e-05     -100.066 
          -5      41.4473 -0.000226072 -4.90875e-05     -100.062 
          -5      41.6448 -0.000225798 -4.92764e-05     -100.057 
          -5      41.8429 -0.000225483 -4.94299e-05     -100.052 
          -5      42.0414 -0.000225162 -4.95051e-05     -100.047 
          -5      42.2405 -0.000224878 -4.94479e-05     -100.042 
          -5      42.4399 -0.000224668 -4.93329e-05     -100.038 
          -5      42.6399 -0.000224441 -4.96329e-05     -100.033 
          -5      42.8404 -0.000224195 -4.99088e-05     -100.028 
          -5      43.0412 -0.000223934 -5.01574e-05     -100.023 
          -5      43.2426 -0.000223662 -5.03781e-05     -100.018 
          -5      43.4444 -0.000223383 -5.05702e-05     -100.013 
          -5      43.6467 -0.000223101  -5.0735e-05     -100.008 
          -5      43.8494 -0.000222818 -5.08742e-05     -100.003 
          -5      44.0527 -0.000222536 -5.09904e-05     -99.9979 
          -5      44.2563 -0.000222256 -5.10865e-05     -99.9929 
          -5      44.4606  -0.00022198 -5.11662e-05     -99.9878 
          -5      44.6653 -0.000221709 -5.12328e-05     -99.9827 
          -5      44.8704 -0.000221444 -5.12903e-05     -99.9776 
          -5       45.076 -0.000221183 -5.13422e-05     -99.9724 
          -5       45.282 -0.000220928 -5.13921e-05     -99.9672 
          -5      45.4886 -0.000220678 -5.14433e-05      -99.962 
          -5      45.6955 -0.000220432 -5.14985e-05     -99.9568 
          -5       45.903 -0.000220191 -5.15605e-05     -99.9516 
          -5      46.1111 -0.000219953 -5.16312e-05     -99.9463 
          -5      46.3194 -0.000219719 -5.17119e-05      -99.941 
          -5      46.5283 -0.000219486 -5.18036e-05     -99.9357 
          -5      46.7376 -0.000219254 -5.19066e-05     -99.9304 
          -5      46.9475 -0.000219022 -5.20207e-05      -99.925 
          -5      47.1577 -0.000218789  -5.2145e-05     -99.9196 
          -5      47.3685 -0.000218553 -5.22782e-05     -99.9142 
          -5      47.5798 -0.000218314 -5.24185e-05     -99.9088 
          -5      47.7914  -0.00021807 -5.25637e-05     -99.9034 
          -5      48.0037  -0.00021782 -5.27114e-05     -99.8979 