Variables = x, y, u, v, p

Zone, I=800, F=POINT
         -70            0           -0           -0     -28.3263 
         -70     0.000234 -1.32006e-05 -2.05133e-09     -28.3263 
         -70     0.000939 -4.96493e-05 -7.96205e-09     -28.3263 
         -70     0.002113  -0.00010019 -1.69734e-08     -28.3263 
         -70     0.003759 -0.000152659 -2.80754e-08     -28.3263 
         -70     0.005872 -0.000194876 -4.01677e-08     -28.3263 
         -70     0.008457  -0.00021861  -5.2428e-08     -28.3263 
         -70      0.01151 -0.000221584 -6.43797e-08     -28.3263 
         -70     0.015036 -0.000208262  -7.6025e-08     -28.3263 
         -70     0.019031 -0.000188142 -8.76589e-08     -28.3263 
         -70     0.023493 -0.000172132 -9.96596e-08     -28.3263 
         -70     0.028429 -0.000167952 -1.12186e-07     -28.3263 
         -70     0.033831 -0.000176444 -1.24869e-07     -28.3263 
         -70     0.039706 -0.000190616 -1.36863e-07     -28.3263 
         -70     0.046047 -0.000199203 -1.47101e-07     -28.3263 
         -70     0.052863 -0.000194817 -1.55032e-07     -28.3263 
         -70      0.06015  -0.00018322 -1.61389e-07     -28.3263 
         -70       0.0679 -0.000184576 -1.68477e-07     -28.3263 
         -70     0.076126 -0.000207888 -1.78598e-07     -28.3263 
         -70     0.084816 -0.000190651 -1.88644e-07     -28.3263 
         -70     0.093982  -0.00020104 -2.02073e-07     -28.3263 
         -70     0.103611  -0.00020592 -2.21873e-07     -28.3263 
         -70     0.113718  -0.00020814 -2.46874e-07     -28.3263 
         -70     0.124286 -0.000209714 -2.77729e-07     -28.3263 
         -70     0.135333  -0.00021176 -3.16679e-07     -28.3263 
         -70      0.14685 -0.000214548 -3.66557e-07     -28.3263 
         -70     0.158827 -0.000217729 -4.29659e-07     -28.3263 
         -70     0.171284 -0.000220702 -5.06602e-07     -28.3263 
         -70     0.184201 -0.000223013 -5.94747e-07     -28.3263 
         -70     0.197599 -0.000224721 -6.88171e-07     -28.3263 
         -70     0.211455 -0.000226473 -7.78011e-07     -28.3263 
         -70     0.225792  -0.00022904  -8.5646e-07     -28.3263 
         -70       0.2406 -0.000231866 -9.23549e-07     -28.3263 
         -70     0.255865 -0.000232842 -9.73752e-07     -28.3263 
         -70     0.271613 -0.000234991 -9.66537e-07     -28.3262 
         -70     0.287818 -0.000236908 -9.08457e-07     -28.3262 
         -70     0.304506 -0.000238678 -7.90162e-07     -28.3262 
         -70      0.32165 -0.000240351  -6.1465e-07     -28.3262 
         -70     0.339278 -0.000241962 -3.95379e-07     -28.3262 
         -70     0.357377 -0.000243517 -1.55164e-07     -28.3262 
         -70      0.37593 -0.000245001  7.69624e-08     -28.3262 
         -70     0.394968 -0.000246393   2.6999e-07     -28.3261 
         -70     0.414461 -0.000247656  3.93723e-07     -28.3261 
         -70      0.43444 -0.000248759  4.24215e-07     -28.3261 
         -70     0.454872 -0.000249675  3.47211e-07     -28.3261 
         -70     0.475791 -0.000250392  1.61684e-07     -28.3261 
         -70     0.497163 -0.000250913 -1.17676e-07      -28.326 
         -70     0.519021 -0.000251257 -4.61937e-07      -28.326 
         -70      0.54135 -0.000251449 -8.30397e-07      -28.326 
         -70     0.564131 -0.000251505 -1.17968e-06     -28.3259 
         -70       0.5874 -0.000251402 -1.47974e-06     -28.3259 
         -70     0.611121 -0.000251053 -1.71785e-06     -28.3259 
         -70      0.63533 -0.000250713  -1.7393e-06     -28.3258 
         -70      0.65999 -0.000250277 -1.71706e-06     -28.3258 
         -70     0.685139 -0.000249705 -1.67154e-06     -28.3257 
         -70     0.710759 -0.000248969 -1.61879e-06     -28.3257 
         -70     0.736828 -0.000248049 -1.57046e-06     -28.3256 
         -70     0.763387 -0.000246934 -1.53391e-06     -28.3256 
         -70     0.790396 -0.000245623 -1.51266e-06     -28.3255 
         -70     0.817896 -0.000244121 -1.50669e-06     -28.3255 
         -70     0.845843 -0.000242444  -1.5131e-06     -28.3254 
         -70     0.874283 -0.000240612 -1.52678e-06     -28.3254 
         -70      0.90317 -0.000238653 -1.54117e-06     -28.3253 
         -70     0.932551 -0.000236595 -1.54914e-06     -28.3252 
         -70     0.962401 -0.000234473 -1.54389e-06     -28.3252 
         -70     0.992697 -0.000232323 -1.51989e-06     -28.3251 
         -70      1.02349 -0.000230174 -1.47366e-06      -28.325 
         -70      1.05472 -0.000228059 -1.40471e-06     -28.3249 
         -70      1.08645    -0.000226 -1.31578e-06     -28.3248 
         -70      1.11863 -0.000224018 -1.21364e-06     -28.3247 
         -70       1.1513 -0.000222119 -1.10847e-06     -28.3246 
         -70      1.18444 -0.000220308  -1.0139e-06     -28.3245 
         -70      1.21802 -0.000218576  -9.4559e-07     -28.3244 
         -70      1.25211 -0.000216901 -9.19259e-07     -28.3243 
         -70      1.28663 -0.000215259 -9.48182e-07     -28.3242 
         -70      1.32165 -0.000213615 -1.03918e-06     -28.3241 
         -70      1.35712 -0.000211932 -1.18721e-06      -28.324 
         -70      1.39308 -0.000210175 -1.36914e-06     -28.3238 
         -70      1.42951 -0.000208319  -1.5345e-06     -28.3237 
         -70      1.46638 -0.000206359 -1.59517e-06     -28.3236 
         -70      1.50375 -0.000204317 -1.41239e-06     -28.3234 
         -70      1.54156 -0.000200588 -1.16881e-06     -28.3233 
         -70      1.57987  -0.00019734 -1.00755e-06     -28.3231 
         -70      1.61863 -0.000194599 -9.05182e-07      -28.323 
         -70      1.65788 -0.000192243 -8.47046e-07     -28.3228 
         -70      1.69757 -0.000190171 -8.20474e-07     -28.3226 
         -70      1.73776 -0.000188287 -8.14406e-07     -28.3224 
         -70      1.77842 -0.000186511 -8.19627e-07     -28.3223 
         -70      1.81952 -0.000184779 -8.28642e-07     -28.3221 
         -70      1.86113 -0.000183034 -8.35712e-07     -28.3219 
         -70      1.90316 -0.000181238 -8.36749e-07     -28.3217 
         -70      1.94571 -0.000179358 -8.29271e-07     -28.3215 
         -70      1.98869 -0.000177381  -8.1231e-07     -28.3212 
         -70      2.03217 -0.000175298 -7.86243e-07      -28.321 
         -70      2.07612 -0.000173113 -7.52732e-07     -28.3208 
         -70      2.12051 -0.000170843 -7.14554e-07     -28.3205 
         -70       2.1654 -0.000168503 -6.75312e-07     -28.3203 
         -70      2.21073 -0.000166126 -6.39456e-07       -28.32 
         -70      2.25656  -0.00016374 -6.11851e-07     -28.3198 
         -70      2.30283 -0.000161387 -5.97771e-07     -28.3195 
         -70       2.3496 -0.000159102 -6.02528e-07     -28.3192 
         -70      2.39685 -0.000156926  -6.3135e-07     -28.3189 
         -70      2.44452   -0.0001549 -6.89039e-07     -28.3186 
         -70      2.49271 -0.000153058 -7.79971e-07     -28.3183 
         -70      2.54132 -0.000151433 -9.07514e-07      -28.318 
         -70      2.59044 -0.000150049 -1.07442e-06     -28.3177 
         -70         2.64  -0.00014893 -1.28184e-06     -28.3173 
         -70      2.69006 -0.000148082 -1.53024e-06      -28.317 
         -70      2.74056 -0.000147511 -1.81802e-06     -28.3166 
         -70      2.79156 -0.000147205   -2.143e-06     -28.3163 
         -70      2.84304 -0.000147147 -2.50093e-06     -28.3159 
         -70      2.89494 -0.000147308 -2.88615e-06     -28.3155 
         -70      2.94735 -0.000147649 -3.29274e-06     -28.3151 
         -70       3.0002 -0.000148121 -3.71265e-06     -28.3147 
         -70      3.05355  -0.00014867 -4.13856e-06     -28.3143 
         -70      3.10733 -0.000149236 -4.56181e-06     -28.3139 
         -70      3.16163 -0.000149759 -4.97561e-06     -28.3134 
         -70      3.21639 -0.000150182 -5.37354e-06      -28.313 
         -70      3.27158 -0.000150457 -5.75154e-06     -28.3125 
         -70      3.32729 -0.000150551 -6.10992e-06     -28.3121 
         -70      3.38342 -0.000150456 -6.45271e-06     -28.3116 
         -70      3.44007 -0.000150196 -6.79152e-06     -28.3111 
         -70      3.49714 -0.000149843 -7.14523e-06     -28.3106 
         -70      3.55472 -0.000149524 -7.54443e-06     -28.3101 
         -70      3.61273 -0.000149441 -8.03152e-06     -28.3095 
         -70      3.67125  -0.00014989  -8.6663e-06      -28.309 
         -70      3.73025 -0.000151275 -9.52669e-06     -28.3084 
         -70      3.78967  -0.00015288 -9.48326e-06     -28.3078 
         -70      3.84961 -0.000153629 -9.59695e-06     -28.3073 
         -70      3.90996 -0.000153847 -1.02301e-05     -28.3067 
         -70      3.97084 -0.000153631  -1.1045e-05      -28.306 
         -70      4.03214 -0.000153073 -1.17406e-05     -28.3054 
         -70      4.09395 -0.000152254  -1.2059e-05     -28.3048 
         -70      4.15624 -0.000152688 -1.23073e-05     -28.3041 
         -70      4.21895 -0.000153759 -1.27007e-05     -28.3035 
         -70      4.28217 -0.000154475 -1.30584e-05     -28.3028 
         -70      4.34582 -0.000154889 -1.34336e-05     -28.3021 
         -70      4.40998 -0.000155055 -1.38653e-05     -28.3014 
         -70      4.47457 -0.000155026 -1.43766e-05     -28.3006 
         -70      4.53968 -0.000154852 -1.49791e-05     -28.2999 
         -70      4.60525 -0.000154582 -1.56708e-05     -28.2991 
         -70      4.67125 -0.000154258 -1.64397e-05     -28.2983 
         -70      4.73777 -0.000153921 -1.72667e-05     -28.2975 
         -70       4.8047 -0.000153605 -1.81235e-05     -28.2967 
         -70      4.87216 -0.000153337 -1.89801e-05     -28.2959 
         -70      4.94003  -0.00015314 -1.98016e-05     -28.2951 
         -70      5.00843 -0.000153027  -2.0556e-05     -28.2942 
         -70      5.07724 -0.000153004 -2.12119e-05     -28.2933 
         -70      5.14658 -0.000153071 -2.17463e-05     -28.2924 
         -70      5.21639 -0.000153217 -2.21437e-05     -28.2915 
         -70      5.28661 -0.000153424 -2.24017e-05     -28.2906 
         -70      5.35736 -0.000153667 -2.25345e-05     -28.2896 
         -70      5.42852 -0.000153912  -2.2576e-05     -28.2887 
         -70      5.50021 -0.000154118 -2.25844e-05     -28.2877 
         -70      5.57231 -0.000154237 -2.26462e-05     -28.2867 
         -70      5.64493 -0.000154218 -2.28814e-05     -28.2857 
         -70      5.71803 -0.000154006 -2.34472e-05     -28.2846 
         -70      5.79154 -0.000153542 -2.45431e-05     -28.2836 
         -70      5.86558 -0.000153178  -2.5031e-05     -28.2825 
         -70      5.94003 -0.000153234 -2.46341e-05     -28.2814 
         -70      6.01501 -0.000153355 -2.47432e-05     -28.2803 
         -70       6.0904 -0.000153553 -2.51572e-05     -28.2791 
         -70      6.16632 -0.000153817 -2.57181e-05      -28.278 
         -70      6.24271 -0.000154118 -2.63068e-05     -28.2768 
         -70       6.3195 -0.000154422 -2.68402e-05     -28.2756 
         -70      6.39683 -0.000154691 -2.72697e-05     -28.2744 
         -70      6.47457 -0.000154889 -2.75734e-05     -28.2731 
         -70      6.55284  -0.00015499 -2.77554e-05     -28.2719 
         -70      6.63152 -0.000154975  -2.7838e-05     -28.2706 
         -70      6.71073 -0.000154844 -2.78583e-05     -28.2693 
         -70      6.79034 -0.000154609 -2.78618e-05     -28.2679 
         -70      6.87049 -0.000154297 -2.78962e-05     -28.2666 
         -70      6.95111 -0.000153952 -2.80052e-05     -28.2652 
         -70      7.03214 -0.000153623 -2.82209e-05     -28.2638 
         -70       7.1137 -0.000153366 -2.85572e-05     -28.2624 
         -70      7.19566 -0.000153232 -2.90005e-05      -28.261 
         -70      7.27816 -0.000153258 -2.95029e-05     -28.2595 
         -70      7.36106 -0.000153453 -2.99712e-05      -28.258 
         -70      7.44451 -0.000153783 -3.02603e-05     -28.2565 
         -70      7.52842  -0.00015415 -3.01599e-05      -28.255 
         -70      7.61273 -0.000152543   -3.096e-05     -28.2534 
         -70      7.69758 -0.000150902 -3.15516e-05     -28.2519 
         -70      7.78283 -0.000149505 -3.17338e-05     -28.2502 
         -70      7.86862 -0.000148438 -3.12721e-05     -28.2486 
         -70      7.95481 -0.000148428 -3.07335e-05      -28.247 
         -70      8.04155 -0.000149682 -3.13533e-05     -28.2453 
         -70      8.12868 -0.000150693 -3.15889e-05     -28.2436 
         -70      8.21635 -0.000151512 -3.15505e-05     -28.2419 
         -70      8.30449 -0.000152178  -3.1317e-05     -28.2401 
         -70      8.39303 -0.000152725 -3.09397e-05     -28.2383 
         -70      8.48211 -0.000153109 -3.04763e-05     -28.2365 
         -70      8.57159 -0.000152245 -3.05301e-05     -28.2347 
         -70      8.66161 -0.000151471  -3.0685e-05     -28.2329 
         -70      8.75203 -0.000150833 -3.09737e-05      -28.231 
         -70      8.84299  -0.00015035 -3.13932e-05     -28.2291 
         -70      8.93443 -0.000150017 -3.19164e-05     -28.2271 
         -70      9.02626 -0.000149814 -3.25043e-05     -28.2252 
         -70      9.11863 -0.000149705 -3.31168e-05     -28.2232 
         -70      9.21139 -0.000149647 -3.37174e-05     -28.2212 
         -70      9.30471 -0.000149593 -3.42822e-05     -28.2191 
         -70      9.39841 -0.000149501 -3.47983e-05     -28.2171 
         -70      9.49267 -0.000149334 -3.52678e-05      -28.215 
         -70      9.58739 -0.000149072 -3.57006e-05     -28.2129 
         -70      9.68251 -0.000148713 -3.61089e-05     -28.2107 
         -70      9.77817 -0.000148284 -3.64969e-05     -28.2085 
         -70      9.87422 -0.000147846 -3.68428e-05     -28.2063 
         -70      9.97083 -0.000147498 -3.70814e-05     -28.2041 
         -70      10.0678 -0.000147391 -3.70765e-05     -28.2019 
         -70      10.1654 -0.000147505 -3.70164e-05     -28.1996 
         -70      10.2633  -0.00014742 -3.74283e-05     -28.1973 
         -70      10.3618 -0.000147308 -3.76959e-05     -28.1949 
         -70      10.4607 -0.000147104 -3.78797e-05     -28.1925 
         -70      10.5601 -0.000146793 -3.80381e-05     -28.1901 
         -70        10.66 -0.000146406 -3.82284e-05     -28.1877 
         -70      10.7603 -0.000146013 -3.85075e-05     -28.1853 
         -70      10.8611 -0.000145711 -3.89343e-05     -28.1828 
         -70      10.9623 -0.000145624 -3.95699e-05     -28.1803 
         -70      11.0641 -0.000145887 -4.04825e-05     -28.1777 
         -70      11.1663 -0.000146156 -4.07166e-05     -28.1751 
         -70       11.269 -0.000145922 -4.04455e-05     -28.1725 
         -70      11.3721 -0.000145582 -4.07245e-05     -28.1699 
         -70      11.4757  -0.00014517 -4.13346e-05     -28.1672 
         -70      11.5798 -0.000144724 -4.21135e-05     -28.1645 
         -70      11.6844 -0.000144278 -4.29465e-05     -28.1618 
         -70      11.7894 -0.000143862 -4.37636e-05     -28.1591 
         -70       11.895 -0.000143497 -4.45287e-05     -28.1563 
         -70      12.0009 -0.000143192 -4.52346e-05     -28.1535 
         -70      12.1073 -0.000142941 -4.58972e-05     -28.1506 
         -70      12.2142 -0.000142727 -4.65446e-05     -28.1478 
         -70      12.3216  -0.00014252  -4.7214e-05     -28.1449 
         -70      12.4294 -0.000142282 -4.79394e-05     -28.1419 
         -70      12.5378 -0.000141966 -4.87494e-05      -28.139 
         -70      12.6465 -0.000141528 -4.96542e-05      -28.136 
         -70      12.7558 -0.000140932 -5.06433e-05      -28.133 
         -70      12.8656 -0.000140155 -5.16736e-05     -28.1299 
         -70      12.9757 -0.000139208  -5.2663e-05     -28.1268 
         -70      13.0864 -0.000138138 -5.34866e-05     -28.1237 
         -70      13.1975 -0.000137055 -5.39632e-05     -28.1206 
         -70      13.3092  -0.00013614 -5.38536e-05     -28.1174 
         -70      13.4212 -0.000136574 -5.49463e-05     -28.1142 
         -70      13.5338 -0.000137446 -5.67597e-05      -28.111 
         -70      13.6468 -0.000137867 -5.78127e-05     -28.1077 
         -70      13.7603 -0.000137959 -5.83347e-05     -28.1044 
         -70      13.8743 -0.000137824 -5.85138e-05     -28.1011 
         -70      13.9886 -0.000137542 -5.84984e-05     -28.0977 
         -70      14.1036 -0.000137177 -5.84033e-05     -28.0943 
         -70      14.2189 -0.000136777 -5.83129e-05     -28.0909 
         -70      14.3348 -0.000136374 -5.82852e-05     -28.0874 
         -70       14.451  -0.00013599 -5.83558e-05      -28.084 
         -70      14.5678 -0.000135636 -5.85417e-05     -28.0805 
         -70      14.6851 -0.000135313 -5.88446e-05     -28.0769 
         -70      14.8028 -0.000135017 -5.92539e-05     -28.0733 
         -70       14.921 -0.000134737 -5.97517e-05     -28.0697 
         -70      15.0396 -0.000134461 -6.03133e-05     -28.0661 
         -70      15.1588 -0.000134173 -6.09127e-05     -28.0624 
         -70      15.2783 -0.000133856  -6.1522e-05     -28.0587 
         -70      15.3984 -0.000133496 -6.21174e-05      -28.055 
         -70       15.519  -0.00013308 -6.26773e-05     -28.0512 
         -70        15.64 -0.000132599 -6.31855e-05     -28.0475 
         -70      15.7615 -0.000132048 -6.36335e-05     -28.0436 
         -70      15.8834  -0.00013143 -6.40183e-05     -28.0398 
         -70      16.0058  -0.00013075 -6.43452e-05     -28.0359 
         -70      16.1286 -0.000130024  -6.4625e-05      -28.032 
         -70       16.252 -0.000129273 -6.48753e-05     -28.0281 
         -70      16.3759 -0.000128527 -6.51167e-05     -28.0241 
         -70      16.5002 -0.000127824 -6.53718e-05     -28.0201 
         -70       16.625 -0.000127206 -6.56623e-05     -28.0161 
         -70      16.7501 -0.000126726 -6.60037e-05      -28.012 
         -70      16.8759 -0.000126441  -6.6403e-05     -28.0079 
         -70       17.002 -0.000126414 -6.68505e-05     -28.0038 
         -70      17.1287  -0.00012671  -6.7316e-05     -27.9996 
         -70      17.2557 -0.000125428 -6.63765e-05     -27.9955 
         -70      17.3834  -0.00012416 -6.54786e-05     -27.9912 
         -70      17.5115 -0.000123402 -6.48907e-05      -27.987 
         -70      17.6399 -0.000123475 -6.47909e-05     -27.9827 
         -70       17.769 -0.000122925 -6.41617e-05     -27.9784 
         -70      17.8984 -0.000122692 -6.38785e-05     -27.9741 
         -70      18.0284 -0.000122831 -6.41077e-05     -27.9697 
         -70      18.1587 -0.000123239  -6.4889e-05     -27.9654 
         -70      18.2896   -0.0001238 -6.62417e-05     -27.9609 
         -70       18.421 -0.000124152 -6.74608e-05     -27.9565 
         -70      18.5528 -0.000123641 -6.68214e-05      -27.952 
         -70      18.6851 -0.000122922 -6.62262e-05     -27.9475 
         -70      18.8178 -0.000122069 -6.57231e-05      -27.943 
         -70      18.9511 -0.000121138 -6.53436e-05     -27.9384 
         -70      19.0847 -0.000120182 -6.51075e-05     -27.9338 
         -70      19.2189 -0.000119235 -6.50227e-05     -27.9292 
         -70      19.3535  -0.00011833 -6.50882e-05     -27.9246 
         -70      19.4886 -0.000117484 -6.52953e-05     -27.9199 
         -70      19.6242 -0.000116712 -6.56292e-05     -27.9152 
         -70      19.7602 -0.000116021 -6.60703e-05     -27.9105 
         -70      19.8968 -0.000115408  -6.6597e-05     -27.9057 
         -70      20.0337 -0.000114872 -6.71848e-05     -27.9009 
         -70      20.1712 -0.000114403 -6.78105e-05     -27.8961 
         -70      20.3091 -0.000113989 -6.84496e-05     -27.8913 
         -70      20.4475 -0.000113617 -6.90817e-05     -27.8864 
         -70      20.5864 -0.000113271 -6.96874e-05     -27.8815 
         -70      20.7257 -0.000112936 -7.02508e-05     -27.8766 
         -70      20.8655 -0.000112596 -7.07611e-05     -27.8717 
         -70      21.0058 -0.000112237 -7.12102e-05     -27.8667 
         -70      21.1465 -0.000111847  -7.1596e-05     -27.8617 
         -70      21.2877 -0.000111417 -7.19191e-05     -27.8567 
         -70      21.4294 -0.000110942 -7.21855e-05     -27.8516 
         -70      21.5716  -0.00011042  -7.2404e-05     -27.8465 
         -70      21.7142 -0.000109856  -7.2586e-05     -27.8414 
         -70      21.8573 -0.000109259 -7.27451e-05     -27.8363 
         -70      22.0008 -0.000108645 -7.28945e-05     -27.8312 
         -70      22.1449 -0.000108038 -7.30464e-05      -27.826 
         -70      22.2893 -0.000107469 -7.32093e-05     -27.8208 
         -70      22.4344 -0.000106975  -7.3386e-05     -27.8156 
         -70      22.5797 -0.000106605 -7.35703e-05     -27.8103 
         -70      22.7257 -0.000106415  -7.3745e-05      -27.805 
         -70      22.8721 -0.000105989 -7.37074e-05     -27.7997 
         -70      23.0189 -0.000105192 -7.35861e-05     -27.7944 
         -70      23.1663  -0.00010449 -7.36162e-05     -27.7891 
         -70       23.314 -0.000103863  -7.3781e-05     -27.7837 
         -70      23.4623 -0.000103294 -7.40593e-05     -27.7783 
         -70       23.611 -0.000102767 -7.44258e-05     -27.7729 
         -70      23.7602 -0.000102269 -7.48544e-05     -27.7675 
         -70        23.91 -0.000101787 -7.53174e-05      -27.762 
         -70        24.06 -0.000101312  -7.5787e-05     -27.7565 
         -70      24.2107 -0.000100838 -7.62386e-05      -27.751 
         -70      24.3617 -0.000100359 -7.66486e-05     -27.7455 
         -70      24.5133 -9.98731e-05 -7.69983e-05     -27.7399 
         -70      24.6653 -9.93809e-05 -7.72728e-05     -27.7343 
         -70      24.8178 -9.88849e-05 -7.74634e-05     -27.7287 
         -70      24.9708 -9.83916e-05 -7.75672e-05     -27.7231 
         -70      25.1242 -9.79104e-05 -7.75884e-05     -27.7175 
         -70      25.2781 -9.74527e-05 -7.75388e-05     -27.7118 
         -70      25.4324 -9.70347e-05 -7.74385e-05     -27.7062 
         -70      25.5873 -9.66748e-05 -7.73156e-05     -27.7005 
         -70      25.7426 -9.63961e-05 -7.72073e-05     -27.6947 
         -70      25.8984 -9.62243e-05 -7.71593e-05      -27.689 
         -70      26.0546   -9.619e-05 -7.72261e-05     -27.6832 
         -70      26.2114 -9.63273e-05 -7.74711e-05     -27.6775 
         -70      26.3686 -9.57744e-05  -7.7176e-05     -27.6717 
         -70      26.5262 -9.51074e-05 -7.68466e-05     -27.6658 
         -70      26.6844 -9.44481e-05 -7.65882e-05       -27.66 
         -70      26.8429 -9.38046e-05 -7.64033e-05     -27.6542 
         -70       27.002  -9.3182e-05 -7.62899e-05     -27.6483 
         -70      27.1615 -9.25861e-05 -7.62426e-05     -27.6424 
         -70      27.3216 -9.20202e-05 -7.62526e-05     -27.6365 
         -70      27.4821 -9.14886e-05 -7.63088e-05     -27.6305 
         -70       27.643 -9.09949e-05  -7.6398e-05     -27.6246 
         -70      27.8044 -9.05408e-05  -7.6506e-05     -27.6186 
         -70      27.9663 -9.01292e-05 -7.66183e-05     -27.6127 
         -70      28.1287 -8.97609e-05 -7.67211e-05     -27.6067 
         -70      28.2914 -8.94368e-05 -7.68019e-05     -27.6006 
         -70      28.4548 -8.91554e-05 -7.68513e-05     -27.5946 
         -70      28.6185 -8.89147e-05 -7.68637e-05     -27.5886 
         -70      28.7828 -8.87091e-05  -7.6839e-05     -27.5825 
         -70      28.9475  -8.8531e-05 -7.67835e-05     -27.5764 
         -70      29.1126  -8.8369e-05 -7.67121e-05     -27.5703 
         -70      29.2784 -8.82066e-05 -7.66494e-05     -27.5642 
         -70      29.4444 -8.80223e-05 -7.66318e-05     -27.5581 
         -70       29.611 -8.77874e-05 -7.67096e-05     -27.5519 
         -70       29.778 -8.73511e-05 -7.66116e-05     -27.5458 
         -70      29.9456 -8.63399e-05 -7.56053e-05     -27.5396 
         -70      30.1137 -8.52456e-05 -7.49729e-05     -27.5334 
         -70      30.2821 -8.41331e-05 -7.45494e-05     -27.5272 
         -70      30.4511 -8.30518e-05 -7.42207e-05      -27.521 
         -70      30.6204  -8.2043e-05 -7.39169e-05     -27.5148 
         -70      30.7903 -8.11334e-05 -7.36005e-05     -27.5086 
         -70      30.9606 -8.03434e-05 -7.32612e-05     -27.5023 
         -70      31.1315 -7.96815e-05 -7.29058e-05      -27.496 
         -70      31.3028 -7.91505e-05 -7.25535e-05     -27.4898 
         -70      31.4745 -7.87459e-05  -7.2229e-05     -27.4835 
         -70      31.6468 -7.84566e-05 -7.19563e-05     -27.4772 
         -70      31.8194 -7.82677e-05 -7.17566e-05     -27.4709 
         -70      31.9926 -7.81604e-05 -7.16429e-05     -27.4645 
         -70      32.1662 -7.81133e-05 -7.16184e-05     -27.4582 
         -70      32.3404 -7.81038e-05 -7.16752e-05     -27.4518 
         -70      32.5149 -7.81087e-05 -7.17937e-05     -27.4455 
         -70        32.69 -7.81059e-05 -7.19438e-05     -27.4391 
         -70      32.8655 -7.80751e-05 -7.20865e-05     -27.4327 
         -70      33.0414  -7.7999e-05  -7.2178e-05     -27.4263 
         -70       33.218 -7.78646e-05 -7.21743e-05     -27.4199 
         -70      33.3948 -7.76642e-05 -7.20372e-05     -27.4135 
         -70      33.5723 -7.73966e-05 -7.17423e-05     -27.4071 
         -70        33.75 -7.70683e-05  -7.1289e-05     -27.4007 
         -70      33.9284 -7.66943e-05 -7.07098e-05     -27.3942 
         -70      34.1073 -7.62998e-05 -7.00857e-05     -27.3878 
         -70      34.2865 -7.59212e-05 -6.95594e-05     -27.3813 
         -70      34.4663 -7.56065e-05  -6.9351e-05     -27.3748 
         -70      34.6465 -7.54176e-05 -6.97788e-05     -27.3684 
         -70      34.8272 -7.54303e-05 -7.12793e-05     -27.3619 
         -70      35.0083 -7.41366e-05 -7.14062e-05     -27.3554 
         -70        35.19 -7.22547e-05  -7.0782e-05     -27.3489 
         -70      35.3721 -7.06317e-05 -6.92082e-05     -27.3424 
         -70      35.5546 -6.97133e-05 -6.83661e-05     -27.3358 
         -70      35.7377 -6.92733e-05 -6.80369e-05     -27.3293 
         -70      35.9211 -6.91326e-05 -6.80444e-05     -27.3228 
         -70      36.1052  -6.9151e-05 -6.82485e-05     -27.3163 
         -70      36.2895 -6.92235e-05 -6.85411e-05     -27.3097 
         -70      36.4745 -6.92754e-05 -6.88428e-05     -27.3032 
         -70      36.6598 -6.92575e-05 -6.90982e-05     -27.2966 
         -70      36.8457  -6.9142e-05  -6.9273e-05       -27.29 
         -70      37.0321 -6.89185e-05 -6.93494e-05     -27.2835 
         -70      37.2188 -6.85907e-05  -6.9324e-05     -27.2769 
         -70      37.4062 -6.81711e-05 -6.92034e-05     -27.2703 
         -70      37.5938 -6.76804e-05 -6.90026e-05     -27.2637 
         -70      37.7821 -6.71415e-05 -6.87409e-05     -27.2571 
         -70      37.9707 -6.65803e-05 -6.84408e-05     -27.2505 
         -70      38.1599 -6.60199e-05 -6.81246e-05     -27.2439 
         -70      38.3496 -6.54817e-05 -6.78139e-05     -27.2373 
         -70      38.5396 -6.49827e-05 -6.75275e-05     -27.2307 
         -70      38.7302 -6.45333e-05  -6.7279e-05     -27.2241 
         -70      38.9211 -6.41393e-05 -6.70785e-05     -27.2175 
         -70      39.1127  -6.3799e-05 -6.69294e-05     -27.2109 
         -70      39.3046 -6.35061e-05 -6.68307e-05     -27.2043 
         -70      39.4971 -6.32483e-05 -6.67753e-05     -27.1976 
         -70      39.6899 -6.30104e-05 -6.67523e-05      -27.191 
         -70      39.8833 -6.27754e-05 -6.67474e-05     -27.1844 
         -70      40.0772 -6.25274e-05 -6.67448e-05     -27.1777 
         -70      40.2714 -6.22552e-05 -6.67295e-05     -27.1711 
         -70      40.4663 -6.19551e-05 -6.66897e-05     -27.1645 
         -70      40.6615 -6.16369e-05 -6.66205e-05     -27.1578 
         -70      40.8573 -6.13279e-05 -6.65273e-05     -27.1512 
         -70      41.0534   -6.108e-05 -6.64307e-05     -27.1445 
         -70      41.2501 -6.09758e-05 -6.63711e-05     -27.1379 
         -70      41.4473 -6.11368e-05 -6.64148e-05     -27.1312 
         -70      41.6448 -6.17311e-05 -6.66599e-05     -27.1246 
         -70      41.8429  -6.0709e-05  -6.6991e-05     -27.1179 
         -70      42.0414 -5.92989e-05 -6.68599e-05     -27.1113 
         -70      42.2405 -5.89696e-05 -6.62224e-05     -27.1046 
         -70      42.4399 -5.85226e-05 -6.58085e-05      -27.098 
         -70      42.6399  -5.8001e-05 -6.55834e-05     -27.0913 
         -70      42.8404 -5.74423e-05 -6.55137e-05     -27.0847 
         -70      43.0412 -5.68773e-05 -6.55659e-05      -27.078 
         -70      43.2426 -5.63297e-05 -6.57077e-05     -27.0714 
         -70      43.4444 -5.58192e-05  -6.5908e-05     -27.0647 
         -70      43.6467 -5.53586e-05 -6.61379e-05     -27.0581 
         -70      43.8494 -5.49578e-05   -6.637e-05     -27.0514 
         -70      44.0527  -5.4621e-05 -6.65801e-05     -27.0448 
         -70      44.2563 -5.43499e-05 -6.67459e-05     -27.0381 
         -70      44.4606 -5.41421e-05  -6.6849e-05     -27.0315 
         -70      44.6653 -5.39927e-05 -6.68733e-05     -27.0248 
         -70      44.8704 -5.38946e-05 -6.68066e-05     -27.0182 
         -70       45.076 -5.38382e-05 -6.66401e-05     -27.0116 
         -70       45.282  -5.3813e-05 -6.63687e-05     -27.0049 
         -70      45.4886 -5.38068e-05 -6.59905e-05     -26.9983 
         -70      45.6955 -5.38071e-05 -6.55083e-05     -26.9916 
         -70       45.903 -5.38008e-05 -6.49269e-05      -26.985 
         -70      46.1111 -5.37751e-05 -6.42559e-05     -26.9784 
         -70      46.3194 -5.37047e-05 -6.35226e-05     -26.9718 
         -70      46.5283 -5.35215e-05 -6.28172e-05     -26.9651 
         -70      46.7376  -5.3275e-05  -6.2107e-05     -26.9585 
         -70      46.9475 -5.29628e-05 -6.14112e-05     -26.9519 
         -70      47.1577 -5.25859e-05  -6.0752e-05     -26.9453 
         -70      47.3685 -5.21466e-05 -6.01489e-05     -26.9387 
         -70      47.5798 -5.16504e-05 -5.96221e-05      -26.932 
         -70      47.7914 -5.11056e-05 -5.91904e-05     -26.9254 
         -70      48.0037 -5.05211e-05  -5.8869e-05     -26.9188 