Variables = x, y, u, v, p

Zone, I=800, F=POINT
         750            0            0            0      5.23285 
         750     0.000234 -4.17071e-06 -2.69106e-11      5.23285 
         750     0.000939 -1.60014e-05  -4.2582e-10      5.23285 
         750     0.002113 -3.34461e-05 -2.15019e-09      5.23285 
         750     0.003759 -5.37822e-05 -6.80169e-09      5.23285 
         750     0.005872 -7.41691e-05 -1.66025e-08      5.23285 
         750     0.008457 -9.25921e-05 -3.44602e-08      5.23285 
         750      0.01151 -0.000108199  -6.3885e-08      5.23285 
         750     0.015036 -0.000121585 -1.09121e-07      5.23285 
         750     0.019031 -0.000134385 -1.74969e-07      5.23285 
         750     0.023493 -0.000148592 -2.66854e-07      5.23285 
         750     0.028429 -0.000165636 -3.91035e-07      5.23285 
         750     0.033831 -0.000185501 -5.54016e-07      5.23285 
         750     0.039706  -0.00020659 -7.63273e-07      5.23285 
         750     0.046047 -0.000226286 -1.02634e-06      5.23285 
         750     0.052863 -0.000242667 -1.35185e-06      5.23285 
         750      0.06015 -0.000256347  -1.7483e-06      5.23285 
         750       0.0679 -0.000270962 -2.22416e-06      5.23285 
         750     0.076126   -0.0002885 -2.78934e-06      5.23285 
         750     0.084816 -0.000297186 -3.45228e-06      5.23285 
         750     0.093982 -0.000307989 -4.22312e-06      5.23285 
         750     0.103611 -0.000315791 -5.10986e-06      5.23285 
         750     0.113718 -0.000320813 -6.12269e-06      5.23285 
         750     0.124286 -0.000323188 -7.26831e-06      5.23285 
         750     0.135333 -0.000322985 -8.55655e-06      5.23285 
         750      0.14685 -0.000320196 -9.99372e-06      5.23285 
         750     0.158827 -0.000314787 -1.15849e-05      5.23285 
         750     0.171284 -0.000306713 -1.33383e-05      5.23285 
         750     0.184201 -0.000296015 -1.52558e-05      5.23285 
         750     0.197599 -0.000282809 -1.73439e-05      5.23285 
         750     0.211455 -0.000267366 -1.96017e-05      5.23285 
         750     0.225792 -0.000249958 -2.20341e-05      5.23285 
         750       0.2406 -0.000230758 -2.46398e-05      5.23285 
         750     0.255865 -0.000209758 -2.74154e-05      5.23285 
         750     0.271613  -0.00018757 -3.03635e-05      5.23285 
         750     0.287818 -0.000164343 -3.34763e-05      5.23285 
         750     0.304506 -0.000140336 -3.67546e-05      5.23285 
         750      0.32165 -0.000115884 -4.01884e-05      5.23285 
         750     0.339278 -9.12395e-05 -4.37777e-05      5.23285 
         750     0.357377 -6.67029e-05 -4.75136e-05      5.23285 
         750      0.37593 -4.25644e-05 -5.13859e-05      5.23285 
         750     0.394968 -1.90335e-05 -5.53939e-05      5.23285 
         750     0.414461  3.62337e-06 -5.95239e-05      5.23285 
         750      0.43444  2.52353e-05 -6.37749e-05      5.23285 
         750     0.454872  4.55843e-05 -6.81323e-05      5.23285 
         750     0.475791  6.45463e-05 -7.25961e-05      5.23285 
         750     0.497163  8.19573e-05 -7.71517e-05      5.23285 
         750     0.519021  9.77361e-05 -8.17995e-05      5.23285 
         750      0.54135  0.000111786 -8.65295e-05      5.23285 
         750     0.564131  0.000124038 -9.13316e-05      5.23285 
         750       0.5874  0.000134482 -9.62074e-05      5.23285 
         750     0.611121  0.000143097 -0.000101144      5.23285 
         750      0.63533   0.00014988 -0.000106144      5.23285 
         750      0.65999  0.000154875 -0.000111193      5.23285 
         750     0.685139  0.000158127 -0.000116296      5.23285 
         750     0.710759  0.000159689 -0.000121444      5.23285 
         750     0.736828  0.000159628 -0.000126631      5.23285 
         750     0.763387   0.00015803 -0.000131859      5.23285 
         750     0.790396  0.000154994 -0.000137118      5.23285 
         750     0.817896  0.000150627 -0.000142411      5.23285 
         750     0.845843  0.000145061 -0.000147724      5.23285 
         750     0.874283  0.000138421 -0.000153061      5.23285 
         750      0.90317  0.000130863 -0.000158409      5.23285 
         750     0.932551  0.000122529  -0.00016377      5.23285 
         750     0.962401  0.000113585 -0.000169135      5.23285 
         750     0.992697  0.000104204 -0.000174492      5.23285 
         750      1.02349   9.4537e-05 -0.000179845      5.23285 
         750      1.05472  8.47674e-05 -0.000185177      5.23285 
         750      1.08645  7.50429e-05 -0.000190491      5.23285 
         750      1.11863  6.55375e-05 -0.000195771      5.23285 
         750       1.1513  5.63855e-05 -0.000201019      5.23285 
         750      1.18444  4.77327e-05 -0.000206223      5.23285 
         750      1.21802  3.97083e-05 -0.000211373      5.23285 
         750      1.25211   3.2404e-05 -0.000216469      5.23285 
         750      1.28663  2.59159e-05 -0.000221497      5.23285 
         750      1.32165  2.02927e-05  -0.00022646      5.23285 
         750      1.35712  1.55769e-05 -0.000231344      5.23285 
         750      1.39308  1.17644e-05 -0.000236152      5.23285 
         750      1.42951  8.83177e-06 -0.000240878      5.23285 
         750      1.46638  6.72025e-06 -0.000245517      5.23285 
         750      1.50375  5.33247e-06 -0.000250076      5.23285 
         750      1.54156   4.8357e-06 -0.000254529      5.23285 
         750      1.57987  4.75268e-06 -0.000258906      5.23285 
         750      1.61863  4.97554e-06 -0.000263201      5.23286 
         750      1.65788  5.42831e-06 -0.000267418      5.23286 
         750      1.69757   6.0402e-06 -0.000271547      5.23286 
         750      1.73776  6.74863e-06 -0.000275595      5.23286 
         750      1.77842  7.49626e-06 -0.000279555      5.23286 
         750      1.81952  8.23243e-06 -0.000283421      5.23286 
         750      1.86113  8.91524e-06 -0.000287199      5.23286 
         750      1.90316  9.50739e-06 -0.000290879      5.23286 
         750      1.94571  9.98042e-06 -0.000294465      5.23286 
         750      1.98869  1.03108e-05 -0.000297949      5.23286 
         750      2.03217  1.04828e-05 -0.000301334      5.23286 
         750      2.07612  1.04857e-05 -0.000304614      5.23286 
         750      2.12051  1.03151e-05 -0.000307785      5.23286 
         750       2.1654  9.97126e-06 -0.000310847      5.23286 
         750      2.21073  9.46014e-06 -0.000313794      5.23286 
         750      2.25656  8.79024e-06 -0.000316627      5.23286 
         750      2.30283  7.97541e-06 -0.000319338      5.23286 
         750       2.3496  7.02995e-06 -0.000321927      5.23286 
         750      2.39685  5.97197e-06  -0.00032439      5.23286 
         750      2.44452  4.82125e-06 -0.000326721      5.23286 
         750      2.49271  3.59524e-06  -0.00032892      5.23286 
         750      2.54132  2.31478e-06  -0.00033098      5.23286 
         750      2.59044  9.95709e-07 -0.000332899      5.23286 
         750         2.64 -3.43811e-07 -0.000334671      5.23286 
         750      2.69006 -1.69226e-06 -0.000336296      5.23286 
         750      2.74056 -3.03694e-06 -0.000337766      5.23286 
         750      2.79156  -4.3729e-06 -0.000339081      5.23286 
         750      2.84304 -5.69583e-06 -0.000340235      5.23286 
         750      2.89494  -7.0055e-06 -0.000341225      5.23286 
         750      2.94735 -8.30875e-06 -0.000342049      5.23286 
         750       3.0002 -9.61194e-06 -0.000342705      5.23286 
         750      3.05355 -1.09287e-05  -0.00034319      5.23286 
         750      3.10733 -1.22708e-05 -0.000343502      5.23286 
         750      3.16163 -1.36552e-05 -0.000343643      5.23286 
         750      3.21639 -1.50947e-05 -0.000343611      5.23286 
         750      3.27158 -1.65995e-05  -0.00034341      5.23286 
         750      3.32729 -1.81771e-05  -0.00034304      5.23286 
         750      3.38342 -1.98216e-05 -0.000342508      5.23286 
         750      3.44007 -2.15189e-05 -0.000341818      5.23286 
         750      3.49714 -2.32316e-05  -0.00034098      5.23286 
         750      3.55472 -2.49043e-05 -0.000340002      5.23286 
         750      3.61273 -2.64461e-05   -0.0003389      5.23286 
         750      3.67125 -2.77333e-05 -0.000337687      5.23286 
         750      3.73025 -2.85918e-05 -0.000336383      5.23286 
         750      3.78967 -2.98968e-05 -0.000334743      5.23286 
         750      3.84961 -3.14954e-05 -0.000332866      5.23286 
         750      3.90996 -3.29506e-05  -0.00033088      5.23286 
         750      3.97084 -3.42801e-05 -0.000328787      5.23286 
         750      4.03214 -3.54961e-05  -0.00032659      5.23287 
         750      4.09395  -3.6614e-05 -0.000324289      5.23287 
         750      4.15624 -3.76452e-05  -0.00032189      5.23287 
         750      4.21895 -3.86006e-05 -0.000319396      5.23287 
         750      4.28217 -3.94921e-05 -0.000316807      5.23287 
         750      4.34582 -4.03277e-05 -0.000314132      5.23287 
         750      4.40998 -4.11175e-05  -0.00031137      5.23287 
         750      4.47457 -4.18677e-05 -0.000308529      5.23287 
         750      4.53968 -4.25861e-05 -0.000305609      5.23287 
         750      4.60525  -4.3278e-05 -0.000302617      5.23287 
         750      4.67125 -4.39475e-05  -0.00029956      5.23287 
         750      4.73777 -4.45998e-05 -0.000296437      5.23287 
         750       4.8047  -4.5237e-05 -0.000293259      5.23287 
         750      4.87216 -4.58626e-05 -0.000290025      5.23287 
         750      4.94003 -4.64772e-05 -0.000286746      5.23287 
         750      5.00843 -4.70828e-05 -0.000283421      5.23287 
         750      5.07724  -4.7679e-05 -0.000280061      5.23287 
         750      5.14658 -4.82666e-05 -0.000276665      5.23287 
         750      5.21639 -4.88445e-05 -0.000273241      5.23287 
         750      5.28661 -4.94113e-05 -0.000269796      5.23287 
         750      5.35736 -4.99666e-05 -0.000266331      5.23287 
         750      5.42852 -5.05079e-05 -0.000262854      5.23287 
         750      5.50021 -5.10345e-05 -0.000259364      5.23287 
         750      5.57231 -5.15437e-05 -0.000255872      5.23287 
         750      5.64493 -5.20345e-05 -0.000252376      5.23288 
         750      5.71803 -5.25049e-05 -0.000248882      5.23288 
         750      5.79154 -5.29529e-05 -0.000245396      5.23288 
         750      5.86558 -5.33781e-05 -0.000241916      5.23288 
         750      5.94003  -5.3779e-05  -0.00023845      5.23288 
         750      6.01501 -5.41557e-05 -0.000234994      5.23288 
         750       6.0904 -5.45077e-05 -0.000231555      5.23288 
         750      6.16632 -5.48364e-05  -0.00022813      5.23288 
         750      6.24271 -5.51429e-05 -0.000224722      5.23288 
         750       6.3195 -5.54291e-05 -0.000221333      5.23288 
         750      6.39683 -5.57618e-05 -0.000218003      5.23288 
         750      6.47457 -5.60941e-05 -0.000214707      5.23288 
         750      6.55284 -5.64051e-05  -0.00021143      5.23288 
         750      6.63152 -5.66953e-05  -0.00020818      5.23288 
         750      6.71073  -5.6966e-05 -0.000204956      5.23288 
         750      6.79034  -5.7218e-05 -0.000201766      5.23288 
         750      6.87049 -5.74528e-05 -0.000198605      5.23288 
         750      6.95111 -5.76714e-05 -0.000195477      5.23288 
         750      7.03214 -5.78747e-05 -0.000192381      5.23288 
         750       7.1137  -5.8064e-05 -0.000189311      5.23289 
         750      7.19566 -5.82394e-05 -0.000186266      5.23289 
         750      7.27816 -5.84014e-05 -0.000183233      5.23289 
         750      7.36106 -5.85489e-05 -0.000180207      5.23289 
         750      7.44451 -5.86805e-05  -0.00017717      5.23289 
         750      7.52842 -5.87935e-05 -0.000174107      5.23289 
         750      7.61273 -5.88835e-05 -0.000171001      5.23289 
         750      7.69758 -5.89639e-05 -0.000168281      5.23289 
         750      7.78283 -5.90387e-05 -0.000165608      5.23289 
         750      7.86862 -5.91054e-05 -0.000162877      5.23289 
         750      7.95481 -5.91645e-05  -0.00016012      5.23289 
         750      8.04155 -5.92163e-05 -0.000157354      5.23289 
         750      8.12868 -5.92614e-05 -0.000154602      5.23289 
         750      8.21635 -5.93006e-05 -0.000151872      5.23289 
         750      8.30449  -5.9335e-05 -0.000149178      5.23289 
         750      8.39303 -5.93662e-05  -0.00014653       5.2329 
         750      8.48211 -5.93964e-05 -0.000143929       5.2329 
         750      8.57159 -5.94283e-05 -0.000141383       5.2329 
         750      8.66161 -5.94655e-05  -0.00013889       5.2329 
         750      8.75203 -5.95123e-05 -0.000136456       5.2329 
         750      8.84299 -5.95391e-05 -0.000134035       5.2329 
         750      8.93443  -5.9476e-05 -0.000131519       5.2329 
         750      9.02626  -5.9435e-05 -0.000129033       5.2329 
         750      9.11863 -5.94122e-05  -0.00012658       5.2329 
         750      9.21139 -5.94034e-05  -0.00012417       5.2329 
         750      9.30471 -5.94047e-05 -0.000121805       5.2329 
         750      9.39841 -5.94121e-05 -0.000119489       5.2329 
         750      9.49267 -5.94223e-05 -0.000117221       5.2329 
         750      9.58739 -5.94326e-05    -0.000115      5.23291 
         750      9.68251 -5.94411e-05 -0.000112826      5.23291 
         750      9.77817 -5.94464e-05 -0.000110692      5.23291 
         750      9.87422 -5.94483e-05 -0.000108598      5.23291 
         750      9.97083 -5.94472e-05 -0.000106535      5.23291 
         750      10.0678 -5.94439e-05   -0.0001045      5.23291 
         750      10.1654   -5.944e-05 -0.000102487      5.23291 
         750      10.2633 -5.94369e-05 -0.000100492      5.23291 
         750      10.3618 -5.94361e-05 -9.85105e-05      5.23291 
         750      10.4607 -5.94382e-05 -9.65404e-05      5.23291 
         750      10.5601 -5.94426e-05 -9.45832e-05      5.23291 
         750        10.66 -5.94467e-05 -9.26379e-05      5.23292 
         750      10.7603 -5.94451e-05  -9.0713e-05      5.23292 
         750      10.8611 -5.94289e-05 -8.88145e-05      5.23292 
         750      10.9623 -5.93843e-05 -8.69591e-05      5.23292 
         750      11.0641 -5.92913e-05 -8.51628e-05      5.23292 
         750      11.1663 -5.91229e-05 -8.34524e-05      5.23292 
         750       11.269  -5.8843e-05 -8.18614e-05      5.23292 
         750      11.3721 -5.85954e-05 -8.02424e-05      5.23292 
         750      11.4757 -5.87139e-05  -7.8356e-05      5.23292 
         750      11.5798 -5.87928e-05 -7.66063e-05      5.23293 
         750      11.6844 -5.88329e-05 -7.49602e-05      5.23293 
         750      11.7894 -5.88359e-05 -7.33859e-05      5.23293 
         750       11.895  -5.8805e-05  -7.1862e-05      5.23293 
         750      12.0009  -5.8744e-05 -7.03725e-05      5.23293 
         750      12.1073 -5.86577e-05 -6.89032e-05      5.23293 
         750      12.2142 -5.85515e-05 -6.74486e-05      5.23293 
         750      12.3216 -5.84309e-05 -6.60024e-05      5.23293 
         750      12.4294 -5.83022e-05 -6.45661e-05      5.23293 
         750      12.5378 -5.81713e-05 -6.31386e-05      5.23294 
         750      12.6465 -5.80442e-05 -6.17252e-05      5.23294 
         750      12.7558 -5.79265e-05 -6.03271e-05      5.23294 
         750      12.8656 -5.78235e-05 -5.89494e-05      5.23294 
         750      12.9757 -5.77397e-05 -5.75961e-05      5.23294 
         750      13.0864 -5.76786e-05 -5.62668e-05      5.23294 
         750      13.1975  -5.7643e-05 -5.49631e-05      5.23294 
         750      13.3092 -5.76342e-05 -5.36794e-05      5.23295 
         750      13.4212 -5.76521e-05 -5.24106e-05      5.23295 
         750      13.5338 -5.76952e-05  -5.1143e-05      5.23295 
         750      13.6468   -5.776e-05 -4.98609e-05      5.23295 
         750      13.7603 -5.76196e-05 -4.88391e-05      5.23295 
         750      13.8743 -5.74514e-05 -4.78187e-05      5.23295 
         750      13.9886 -5.72878e-05 -4.67632e-05      5.23295 
         750      14.1036 -5.71286e-05 -4.56815e-05      5.23296 
         750      14.2189 -5.69753e-05 -4.45875e-05      5.23296 
         750      14.3348 -5.68307e-05 -4.34925e-05      5.23296 
         750       14.451 -5.66985e-05 -4.24109e-05      5.23296 
         750      14.5678 -5.65823e-05 -4.13532e-05      5.23296 
         750      14.6851 -5.64853e-05   -4.033e-05      5.23296 
         750      14.8028 -5.64092e-05 -3.93491e-05      5.23297 
         750       14.921 -5.63526e-05 -3.84111e-05      5.23297 
         750      15.0396 -5.63107e-05 -3.75137e-05      5.23297 
         750      15.1588 -5.62729e-05 -3.66439e-05      5.23297 
         750      15.2783 -5.62221e-05 -3.57819e-05      5.23297 
         750      15.3984 -5.61324e-05 -3.48933e-05      5.23297 
         750       15.519  -5.5967e-05 -3.39317e-05      5.23298 
         750        15.64 -5.56864e-05 -3.28499e-05      5.23298 
         750      15.7615 -5.56119e-05 -3.21255e-05      5.23298 
         750      15.8834 -5.55474e-05 -3.13867e-05      5.23298 
         750      16.0058 -5.54885e-05 -3.06374e-05      5.23298 
         750      16.1286 -5.54317e-05  -2.9883e-05      5.23299 
         750       16.252 -5.53742e-05 -2.91264e-05      5.23299 
         750      16.3759 -5.53141e-05 -2.83716e-05      5.23299 
         750      16.5002 -5.52498e-05 -2.76225e-05      5.23299 
         750       16.625 -5.51804e-05 -2.68808e-05      5.23299 
         750      16.7501 -5.51054e-05   -2.615e-05        5.233 
         750      16.8759 -5.50249e-05 -2.54312e-05        5.233 
         750       17.002 -5.49392e-05 -2.47273e-05        5.233 
         750      17.1287 -5.48489e-05 -2.40387e-05        5.233 
         750      17.2557 -5.47551e-05 -2.33677e-05        5.233 
         750      17.3834 -5.46587e-05 -2.27143e-05      5.23301 
         750      17.5115 -5.45612e-05 -2.20796e-05      5.23301 
         750      17.6399 -5.44639e-05 -2.14646e-05      5.23301 
         750       17.769 -5.43682e-05 -2.08685e-05      5.23301 
         750      17.8984 -5.42756e-05 -2.02923e-05      5.23301 
         750      18.0284 -5.41875e-05 -1.97348e-05      5.23302 
         750      18.1587 -5.41054e-05 -1.91964e-05      5.23302 
         750      18.2896 -5.40304e-05 -1.86757e-05      5.23302 
         750       18.421 -5.39639e-05 -1.81721e-05      5.23302 
         750      18.5528 -5.39069e-05 -1.76852e-05      5.23303 
         750      18.6851 -5.38603e-05 -1.72128e-05      5.23303 
         750      18.8178 -5.38249e-05 -1.67544e-05      5.23303 
         750      18.9511 -5.38014e-05 -1.63075e-05      5.23303 
         750      19.0847 -5.37468e-05 -1.58482e-05      5.23304 
         750      19.2189 -5.36143e-05 -1.53671e-05      5.23304 
         750      19.3535 -5.34818e-05 -1.49129e-05      5.23304 
         750      19.4886 -5.33496e-05  -1.4483e-05      5.23304 
         750      19.6242 -5.32185e-05 -1.40757e-05      5.23305 
         750      19.7602 -5.30894e-05 -1.36891e-05      5.23305 
         750      19.8968 -5.29633e-05 -1.33201e-05      5.23305 
         750      20.0337 -5.28415e-05 -1.29664e-05      5.23305 
         750      20.1712 -5.27252e-05 -1.26249e-05      5.23306 
         750      20.3091 -5.26162e-05 -1.22931e-05      5.23306 
         750      20.4475 -5.25157e-05 -1.19678e-05      5.23306 
         750      20.5864 -5.24251e-05 -1.16463e-05      5.23306 
         750      20.7257 -5.23457e-05 -1.13266e-05      5.23307 
         750      20.8655 -5.22782e-05  -1.1006e-05      5.23307 
         750      21.0058 -5.22231e-05 -1.06832e-05      5.23307 
         750      21.1465 -5.21801e-05 -1.03569e-05      5.23308 
         750      21.2877 -5.21481e-05 -1.00274e-05      5.23308 
         750      21.4294 -5.21249e-05 -9.69517e-06      5.23308 
         750      21.5716 -5.21073e-05 -9.36273e-06      5.23309 
         750      21.7142 -5.20902e-05 -9.03415e-06      5.23309 
         750      21.8573 -5.20668e-05  -8.7146e-06      5.23309 
         750      22.0008 -5.20282e-05  -8.4124e-06      5.23309 
         750      22.1449 -5.19628e-05 -8.13741e-06       5.2331 
         750      22.2893 -5.18564e-05 -7.90324e-06       5.2331 
         750      22.4344  -5.1691e-05 -7.72602e-06       5.2331 
         750      22.5797 -5.14859e-05 -7.59432e-06      5.23311 
         750      22.7257 -5.14861e-05   -7.304e-06      5.23311 
         750      22.8721 -5.14654e-05 -7.02611e-06      5.23311 
         750      23.0189 -5.14277e-05  -6.7616e-06      5.23312 
         750      23.1663 -5.13766e-05  -6.5104e-06      5.23312 
         750       23.314 -5.13153e-05 -6.27294e-06      5.23312 
         750      23.4623 -5.12467e-05 -6.04854e-06      5.23313 
         750       23.611 -5.11736e-05   -5.837e-06      5.23313 
         750      23.7602 -5.10982e-05 -5.63725e-06      5.23313 
         750        23.91 -5.10224e-05 -5.44853e-06      5.23314 
         750        24.06 -5.09483e-05 -5.26992e-06      5.23314 
         750      24.2107  -5.0877e-05 -5.10003e-06      5.23314 
         750      24.3617   -5.081e-05 -4.93797e-06      5.23315 
         750      24.5133 -5.07481e-05 -4.78237e-06      5.23315 
         750      24.6653  -5.0692e-05 -4.63239e-06      5.23316 
         750      24.8178  -5.0642e-05 -4.48687e-06      5.23316 
         750      24.9708 -5.05985e-05 -4.34511e-06      5.23316 
         750      25.1242 -5.05613e-05 -4.20664e-06      5.23317 
         750      25.2781 -5.05301e-05 -4.07092e-06      5.23317 
         750      25.4324 -5.05044e-05 -3.93811e-06      5.23317 
         750      25.5873 -5.04926e-05 -3.83272e-06      5.23318 
         750      25.7426 -5.04873e-05   -3.743e-06      5.23318 
         750      25.8984 -5.04751e-05 -3.64198e-06      5.23319 
         750      26.0546 -5.04543e-05 -3.53224e-06      5.23319 
         750      26.2114  -5.0424e-05 -3.41581e-06      5.23319 
         750      26.3686 -5.03834e-05 -3.29477e-06       5.2332 
         750      26.5262 -5.03323e-05 -3.17096e-06       5.2332 
         750      26.6844 -5.02708e-05 -3.04572e-06      5.23321 
         750      26.8429 -5.01996e-05 -2.92055e-06      5.23321 
         750       27.002 -5.01195e-05 -2.79632e-06      5.23322 
         750      27.1615  -5.0032e-05  -2.6741e-06      5.23322 
         750      27.3216 -4.99384e-05 -2.55435e-06      5.23322 
         750      27.4821 -4.98407e-05 -2.43761e-06      5.23323 
         750       27.643 -4.97411e-05 -2.32426e-06      5.23323 
         750      27.8044 -4.96418e-05 -2.21419e-06      5.23324 
         750      27.9663 -4.95452e-05 -2.10753e-06      5.23324 
         750      28.1287 -4.94536e-05 -2.00392e-06      5.23325 
         750      28.2914 -4.93696e-05 -1.90321e-06      5.23325 
         750      28.4548 -4.92951e-05 -1.80485e-06      5.23326 
         750      28.6185 -4.92323e-05 -1.70854e-06      5.23326 
         750      28.7828 -4.91826e-05 -1.61365e-06      5.23327 
         750      28.9475 -4.91473e-05  -1.5198e-06      5.23327 
         750      29.1126 -4.91269e-05 -1.42662e-06      5.23328 
         750      29.2784 -4.91211e-05 -1.33365e-06      5.23328 
         750      29.4444 -4.91287e-05 -1.24084e-06      5.23328 
         750       29.611 -4.91476e-05 -1.14802e-06      5.23329 
         750       29.778 -4.91741e-05 -1.05559e-06      5.23329 
         750      29.9456 -4.92034e-05 -9.63935e-07       5.2333 
         750      30.1137 -4.92287e-05 -8.74014e-07       5.2333 
         750      30.2821 -4.92415e-05 -7.87228e-07      5.23331 
         750      30.4511 -4.92311e-05 -7.05268e-07      5.23332 
         750      30.6204 -4.91845e-05 -6.30674e-07      5.23332 
         750      30.7903 -4.90857e-05 -5.66399e-07      5.23333 
         750      30.9606 -4.89162e-05 -5.16368e-07      5.23333 
         750      31.1315 -4.87835e-05 -4.87549e-07      5.23334 
         750      31.3028 -4.87152e-05 -4.64384e-07      5.23334 
         750      31.4745 -4.86614e-05  -4.4214e-07      5.23335 
         750      31.6468 -4.86201e-05 -4.20822e-07      5.23335 
         750      31.8194 -4.85894e-05   -4.005e-07      5.23336 
         750      31.9926 -4.85676e-05 -3.81162e-07      5.23336 
         750      32.1662  -4.8553e-05 -3.62851e-07      5.23337 
         750      32.3404 -4.85441e-05 -3.45535e-07      5.23338 
         750      32.5149 -4.85394e-05 -3.29229e-07      5.23338 
         750        32.69 -4.85378e-05  -3.1388e-07      5.23339 
         750      32.8655 -4.85379e-05 -2.99461e-07      5.23339 
         750      33.0414 -4.85388e-05 -2.85933e-07       5.2334 
         750       33.218 -4.85395e-05  -2.7321e-07       5.2334 
         750      33.3948 -4.85393e-05  -2.6124e-07      5.23341 
         750      33.5723 -4.85373e-05  -2.4992e-07      5.23342 
         750        33.75  -4.8533e-05  -2.3918e-07      5.23342 
         750      33.9284  -4.8526e-05 -2.28909e-07      5.23343 
         750      34.1073  -4.8516e-05 -2.19018e-07      5.23343 
         750      34.2865 -4.85026e-05 -2.09418e-07      5.23344 
         750      34.4663 -4.84858e-05 -2.00001e-07      5.23345 
         750      34.6465 -4.84656e-05 -1.90699e-07      5.23345 
         750      34.8272 -4.84421e-05 -1.81423e-07      5.23346 
         750      35.0083 -4.84155e-05 -1.72133e-07      5.23347 
         750        35.19 -4.83862e-05 -1.62781e-07      5.23347 
         750      35.3721 -4.83544e-05 -1.53368e-07      5.23348 
         750      35.5546 -4.83209e-05 -1.43933e-07      5.23349 
         750      35.7377 -4.82862e-05 -1.34531e-07      5.23349 
         750      35.9211  -4.8251e-05 -1.25298e-07       5.2335 
         750      36.1052  -4.8216e-05 -1.16397e-07      5.23351 
         750      36.2895 -4.81822e-05 -1.08087e-07      5.23351 
         750      36.4745 -4.81504e-05 -1.00675e-07      5.23352 
         750      36.6598 -4.81218e-05 -9.45811e-08      5.23353 
         750      36.8457 -4.80972e-05  -9.0299e-08      5.23353 
         750      37.0321 -4.80779e-05 -8.84491e-08      5.23354 
         750      37.2188  -4.8065e-05 -8.97656e-08      5.23355 
         750      37.4062 -4.80597e-05 -9.51217e-08      5.23355 
         750      37.5938 -4.80631e-05 -1.05529e-07      5.23356 
         750      37.7821 -4.80766e-05  -1.2219e-07      5.23357 
         750      37.9707 -4.81014e-05 -1.46442e-07      5.23358 
         750      38.1599 -4.81386e-05 -1.79888e-07      5.23358 
         750      38.3496 -4.81895e-05 -2.24293e-07      5.23359 
         750      38.5396 -4.82552e-05 -2.81621e-07       5.2336 
         750      38.7302 -4.83187e-05 -3.36873e-07      5.23361 
         750      38.9211 -4.82985e-05 -3.15476e-07      5.23361 
         750      39.1127 -4.82776e-05 -2.97137e-07      5.23362 
         750      39.3046  -4.8256e-05 -2.81444e-07      5.23363 
         750      39.4971  -4.8233e-05 -2.68391e-07      5.23364 
         750      39.6899 -4.82076e-05 -2.58553e-07      5.23364 
         750      39.8833 -4.81783e-05 -2.53091e-07      5.23365 
         750      40.0772 -4.81427e-05 -2.53896e-07      5.23366 
         750      40.2714 -4.80975e-05 -2.63633e-07      5.23367 
         750      40.4663 -4.80381e-05 -2.85879e-07      5.23368 
         750      40.6615 -4.79588e-05 -3.25142e-07      5.23368 
         750      40.8573 -4.78518e-05 -3.87117e-07      5.23369 
         750      41.0534 -4.77078e-05 -4.78524e-07       5.2337 
         750      41.2501 -4.76287e-05 -4.95418e-07      5.23371 
         750      41.4473  -4.7667e-05 -4.16097e-07      5.23372 
         750      41.6448 -4.77028e-05 -3.66874e-07      5.23373 
         750      41.8429 -4.77373e-05 -3.42391e-07      5.23373 
         750      42.0414  -4.7771e-05 -3.38048e-07      5.23374 
         750      42.2405 -4.78046e-05 -3.49805e-07      5.23375 
         750      42.4399 -4.78383e-05 -3.74196e-07      5.23376 
         750      42.6399 -4.78723e-05 -4.08362e-07      5.23377 
         750      42.8404  -4.7907e-05 -4.49914e-07      5.23378 
         750      43.0412 -4.79425e-05 -4.96935e-07      5.23379 
         750      43.2426 -4.79794e-05 -5.48088e-07       5.2338 
         750      43.4444 -4.79575e-05 -5.48073e-07       5.2338 
         750      43.6467 -4.78519e-05 -4.62946e-07      5.23381 
         750      43.8494 -4.77774e-05 -3.91922e-07      5.23382 
         750      44.0527 -4.77305e-05 -3.34115e-07      5.23383 
         750      44.2563 -4.77075e-05 -2.88724e-07      5.23384 
         750      44.4606 -4.77046e-05 -2.54696e-07      5.23385 
         750      44.6653  -4.7718e-05 -2.31026e-07      5.23386 
         750      44.8704 -4.77438e-05 -2.16636e-07      5.23387 
         750       45.076 -4.77784e-05 -2.10402e-07      5.23388 
         750       45.282 -4.78182e-05 -2.11238e-07      5.23389 
         750      45.4886 -4.78601e-05 -2.18074e-07       5.2339 
         750      45.6955 -4.79011e-05 -2.29872e-07      5.23391 
         750       45.903 -4.79387e-05  -2.4568e-07      5.23392 
         750      46.1111 -4.79706e-05 -2.64592e-07      5.23393 
         750      46.3194 -4.79953e-05 -2.85777e-07      5.23394 
         750      46.5283 -4.80114e-05 -3.08548e-07      5.23395 
         750      46.7376 -4.80182e-05 -3.32248e-07      5.23396 
         750      46.9475 -4.80155e-05 -3.56401e-07      5.23397 
         750      47.1577 -4.80035e-05 -3.80561e-07      5.23398 
         750      47.3685 -4.79828e-05 -4.04463e-07      5.23399 
         750      47.5798 -4.79546e-05 -4.27886e-07        5.234 
         750      47.7914 -4.79205e-05 -4.50705e-07      5.23401 
         750      48.0037 -4.78823e-05 -4.72934e-07      5.23402 