Variables = x, y, u, v, p

Zone, I=800, F=POINT
         650            0            0            0      47.5012 
         650     0.000234  6.16745e-06   8.6169e-12      47.5012 
         650     0.000939  2.29056e-05  1.49214e-10      47.5012 
         650     0.002113  4.51405e-05  7.59285e-10      47.5012 
         650     0.003759  6.60923e-05  2.38459e-09      47.5012 
         650     0.005872  7.89886e-05  5.73865e-09      47.5012 
         650     0.008457  7.91763e-05  1.16834e-08      47.5012 
         650      0.01151  6.53417e-05  2.11505e-08      47.5012 
         650     0.015036  3.98865e-05  3.51251e-08      47.5012 
         650     0.019031  8.12116e-06   5.4526e-08      47.5012 
         650     0.023493 -2.37627e-05  8.01631e-08      47.5012 
         650     0.028429 -5.12505e-05  1.12724e-07      47.5012 
         650     0.033831 -7.34569e-05  1.52549e-07      47.5012 
         650     0.039706 -9.38927e-05  1.99758e-07      47.5012 
         650     0.046047 -0.000118495   2.5397e-07      47.5012 
         650     0.052863 -0.000151408  3.14482e-07      47.5012 
         650      0.06015 -0.000189739  3.79971e-07      47.5012 
         650       0.0679 -0.000222547  4.48521e-07      47.5012 
         650     0.076126 -0.000243907   5.1782e-07      47.5012 
         650     0.084816 -0.000285003  5.84745e-07      47.5012 
         650     0.093982 -0.000313726   6.4574e-07      47.5012 
         650     0.103611  -0.00034439  6.96495e-07      47.5012 
         650     0.113718 -0.000375577    7.323e-07      47.5012 
         650     0.124286 -0.000406122  7.47789e-07      47.5012 
         650     0.135333 -0.000435356   7.3721e-07      47.5012 
         650      0.14685 -0.000462898   6.9437e-07      47.5012 
         650     0.158827 -0.000488652  6.12879e-07      47.5012 
         650     0.171284 -0.000512719  4.85927e-07      47.5012 
         650     0.184201 -0.000535082  3.06952e-07      47.5012 
         650     0.197599 -0.000555612  6.89016e-08      47.5012 
         650     0.211455 -0.000573893 -2.34443e-07      47.5012 
         650     0.225792 -0.000589555 -6.09994e-07      47.5012 
         650       0.2406 -0.000602763 -1.06368e-06      47.5012 
         650     0.255865 -0.000614376 -1.60064e-06      47.5012 
         650     0.271613 -0.000623173 -2.22677e-06      47.5012 
         650     0.287818 -0.000629763 -2.94561e-06      47.5012 
         650     0.304506 -0.000634205 -3.76209e-06      47.5012 
         650      0.32165 -0.000636569 -4.67796e-06      47.5012 
         650     0.339278 -0.000636969 -5.69702e-06      47.5012 
         650     0.357377 -0.000635533  -6.8201e-06      47.5012 
         650      0.37593  -0.00063242 -8.04673e-06      47.5012 
         650     0.394968 -0.000627796 -9.37879e-06      47.5012 
         650     0.414461 -0.000621852 -1.08133e-05      47.5012 
         650      0.43444 -0.000614765 -1.23507e-05      47.5012 
         650     0.454872 -0.000606735 -1.39863e-05      47.5012 
         650     0.475791 -0.000597929 -1.57195e-05      47.5012 
         650     0.497163 -0.000588532 -1.75441e-05      47.5012 
         650     0.519021 -0.000578686 -1.94587e-05      47.5012 
         650      0.54135  -0.00056854 -2.14573e-05      47.5012 
         650     0.564131 -0.000558234 -2.35331e-05      47.5012 
         650       0.5874 -0.000547882 -2.56834e-05      47.5012 
         650     0.611121 -0.000537629 -2.78988e-05      47.5012 
         650      0.63533 -0.000527464 -3.01804e-05      47.5012 
         650      0.65999 -0.000517554  -3.2516e-05      47.5012 
         650     0.685139 -0.000507904 -3.49026e-05      47.5012 
         650     0.710759 -0.000498532 -3.73323e-05      47.5012 
         650     0.736828 -0.000489443 -3.97965e-05      47.5012 
         650     0.763387 -0.000480609 -4.22928e-05      47.5012 
         650     0.790396 -0.000472018 -4.48112e-05      47.5012 
         650     0.817896 -0.000463624 -4.73497e-05      47.5012 
         650     0.845843 -0.000455397 -4.98985e-05      47.5012 
         650     0.874283 -0.000447272 -5.24562e-05      47.5012 
         650      0.90317 -0.000439209 -5.50135e-05      47.5012 
         650     0.932551 -0.000431135 -5.75699e-05      47.5012 
         650     0.962401 -0.000422997 -6.01187e-05      47.5012 
         650     0.992697 -0.000414743 -6.26539e-05      47.5012 
         650      1.02349 -0.000406305 -6.51763e-05      47.5012 
         650      1.05472 -0.000397649 -6.76784e-05      47.5012 
         650      1.08645 -0.000388721 -7.01619e-05      47.5012 
         650      1.11863 -0.000379507 -7.26205e-05      47.5012 
         650       1.1513 -0.000369977 -7.50565e-05      47.5012 
         650      1.18444 -0.000360134 -7.74667e-05      47.5012 
         650      1.21802 -0.000350002 -7.98487e-05      47.5012 
         650      1.25211  -0.00033959 -8.22059e-05      47.5012 
         650      1.28663 -0.000328955 -8.45348e-05      47.5012 
         650      1.32165 -0.000318128   -8.684e-05      47.5012 
         650      1.35712 -0.000307182 -8.91188e-05      47.5012 
         650      1.39308 -0.000296151 -9.13765e-05      47.5012 
         650      1.42951 -0.000285083 -9.36136e-05      47.5012 
         650      1.46638 -0.000274003 -9.58308e-05      47.5012 
         650      1.50375 -0.000262868 -9.80349e-05      47.5012 
         650      1.54156 -0.000251682 -0.000100218      47.5012 
         650      1.57987 -0.000240649 -0.000102383      47.5012 
         650      1.61863 -0.000229766 -0.000104528      47.5012 
         650      1.65788 -0.000218987 -0.000106653      47.5012 
         650      1.69757 -0.000208304 -0.000108755      47.5012 
         650      1.73776 -0.000197673 -0.000110833      47.5012 
         650      1.77842  -0.00018708 -0.000112886      47.5012 
         650      1.81952 -0.000176512 -0.000114909      47.5012 
         650      1.86113 -0.000165933 -0.000116904      47.5012 
         650      1.90316 -0.000155343 -0.000118865      47.5012 
         650      1.94571  -0.00014471 -0.000120793      47.5012 
         650      1.98869 -0.000134038 -0.000122684      47.5012 
         650      2.03217 -0.000123299 -0.000124537      47.5012 
         650      2.07612 -0.000112496 -0.000126349      47.5012 
         650      2.12051 -0.000101631 -0.000128116      47.5012 
         650       2.1654 -9.06835e-05 -0.000129838      47.5012 
         650      2.21073 -7.96716e-05  -0.00013151      47.5012 
         650      2.25656 -6.85797e-05 -0.000133132      47.5012 
         650      2.30283 -5.74298e-05 -0.000134699      47.5012 
         650       2.3496 -4.62117e-05 -0.000136211      47.5012 
         650      2.39685 -3.49428e-05 -0.000137666      47.5012 
         650      2.44452  -2.3644e-05 -0.000139058      47.5012 
         650      2.49271 -1.23107e-05 -0.000140389      47.5012 
         650      2.54132 -9.75848e-07 -0.000141654      47.5012 
         650      2.59044  1.03616e-05 -0.000142853      47.5012 
         650         2.64  2.16654e-05 -0.000143983      47.5012 
         650      2.69006  3.29335e-05 -0.000145044      47.5012 
         650      2.74056  4.41274e-05 -0.000146033      47.5012 
         650      2.79156  5.52433e-05  -0.00014695      47.5012 
         650      2.84304  6.62501e-05 -0.000147792      47.5012 
         650      2.89494  7.71168e-05  -0.00014856      47.5012 
         650      2.94735  8.78381e-05 -0.000149253      47.5012 
         650       3.0002  9.83745e-05 -0.000149869      47.5012 
         650      3.05355   0.00010872 -0.000150409      47.5012 
         650      3.10733  0.000118839 -0.000150871      47.5012 
         650      3.16163  0.000128724 -0.000151257      47.5012 
         650      3.21639   0.00013835 -0.000151566      47.5012 
         650      3.27158  0.000147691 -0.000151796      47.5012 
         650      3.32729  0.000156744 -0.000151948      47.5012 
         650      3.38342  0.000165481 -0.000152022      47.5012 
         650      3.44007  0.000173901 -0.000152016      47.5012 
         650      3.49714   0.00018198 -0.000151928      47.5012 
         650      3.55472  0.000189719 -0.000151758      47.5012 
         650      3.61273  0.000197097 -0.000151501      47.5013 
         650      3.67125  0.000204118 -0.000151156      47.5013 
         650      3.73025  0.000210768 -0.000150716      47.5013 
         650      3.78967  0.000217037 -0.000150268      47.5013 
         650      3.84961  0.000222858 -0.000149794      47.5013 
         650      3.90996  0.000228224 -0.000149255      47.5013 
         650      3.97084  0.000233157 -0.000148652      47.5013 
         650      4.03214  0.000237668 -0.000147987      47.5013 
         650      4.09395  0.000241777 -0.000147262      47.5013 
         650      4.15624  0.000245499 -0.000146479      47.5013 
         650      4.21895  0.000248846 -0.000145641      47.5013 
         650      4.28217  0.000251839 -0.000144748      47.5013 
         650      4.34582   0.00025449 -0.000143803      47.5013 
         650      4.40998  0.000256818 -0.000142808      47.5013 
         650      4.47457  0.000258834 -0.000141767      47.5013 
         650      4.53968  0.000260558  -0.00014068      47.5013 
         650      4.60525  0.000262001  -0.00013955      47.5013 
         650      4.67125  0.000263177  -0.00013838      47.5013 
         650      4.73777  0.000264103 -0.000137172      47.5013 
         650       4.8047  0.000264791 -0.000135928      47.5013 
         650      4.87216  0.000265255 -0.000134651      47.5013 
         650      4.94003  0.000265508 -0.000133344      47.5013 
         650      5.00843  0.000265561 -0.000132007      47.5013 
         650      5.07724  0.000265427 -0.000130646      47.5013 
         650      5.14658  0.000265118 -0.000129259      47.5013 
         650      5.21639  0.000264644 -0.000127851      47.5013 
         650      5.28661  0.000264016 -0.000126426      47.5013 
         650      5.35736  0.000263244 -0.000124982      47.5013 
         650      5.42852  0.000262337 -0.000123524      47.5013 
         650      5.50021  0.000261304 -0.000122052      47.5013 
         650      5.57231  0.000260154 -0.000120571      47.5013 
         650      5.64493  0.000258893  -0.00011908      47.5013 
         650      5.71803  0.000257529 -0.000117582      47.5013 
         650      5.79154  0.000256071 -0.000116079      47.5013 
         650      5.86558  0.000254523 -0.000114572      47.5013 
         650      5.94003  0.000252892 -0.000113063      47.5013 
         650      6.01501  0.000251181 -0.000111553      47.5013 
         650       6.0904  0.000249473 -0.000110086      47.5013 
         650      6.16632  0.000247765 -0.000108653      47.5013 
         650      6.24271  0.000246002 -0.000107225      47.5013 
         650       6.3195  0.000244189 -0.000105807      47.5013 
         650      6.39683  0.000242327 -0.000104404      47.5013 
         650      6.47457  0.000240422  -0.00010302      47.5013 
         650      6.55284  0.000238476 -0.000101659      47.5013 
         650      6.63152  0.000236497 -0.000100323      47.5013 
         650      6.71073  0.000234486 -9.90109e-05      47.5013 
         650      6.79034  0.000232452 -9.77254e-05      47.5013 
         650      6.87049  0.000230398 -9.64617e-05      47.5013 
         650      6.95111  0.000228331 -9.52168e-05      47.5013 
         650      7.03214  0.000226258 -9.39855e-05      47.5014 
         650       7.1137  0.000224184 -9.27571e-05      47.5014 
         650      7.19566  0.000222118 -9.15221e-05      47.5014 
         650      7.27816  0.000220062 -9.02641e-05      47.5014 
         650      7.36106  0.000218025 -8.89669e-05      47.5014 
         650      7.44451  0.000216008 -8.76065e-05      47.5014 
         650      7.52842  0.000214093 -8.65244e-05      47.5014 
         650      7.61273  0.000212202 -8.54871e-05      47.5014 
         650      7.69758  0.000210318 -8.44082e-05      47.5014 
         650      7.78283  0.000208452 -8.33003e-05      47.5014 
         650      7.86862  0.000206608 -8.21719e-05      47.5014 
         650      7.95481  0.000204792 -8.10345e-05      47.5014 
         650      8.04155     0.000203 -7.98951e-05      47.5014 
         650      8.12868  0.000201234 -7.87634e-05      47.5014 
         650      8.21635  0.000199486 -7.76443e-05      47.5014 
         650      8.30449  0.000197749 -7.65443e-05      47.5014 
         650      8.39303  0.000196013 -7.54682e-05      47.5014 
         650      8.48211  0.000194383 -7.44255e-05      47.5014 
         650      8.57159  0.000192794 -7.33968e-05      47.5014 
         650      8.66161  0.000191218 -7.23762e-05      47.5014 
         650      8.75203  0.000189656 -7.13655e-05      47.5014 
         650      8.84299  0.000188107 -7.03631e-05      47.5014 
         650      8.93443  0.000186573 -6.93698e-05      47.5014 
         650      9.02626  0.000185055 -6.83865e-05      47.5014 
         650      9.11863  0.000183552 -6.74117e-05      47.5014 
         650      9.21139  0.000182067 -6.64469e-05      47.5014 
         650      9.30471    0.0001806 -6.54905e-05      47.5014 
         650      9.39841  0.000179153 -6.45441e-05      47.5014 
         650      9.49267  0.000177724 -6.36059e-05      47.5014 
         650      9.58739  0.000176317 -6.26767e-05      47.5014 
         650      9.68251  0.000174933 -6.17568e-05      47.5014 
         650      9.77817   0.00017357 -6.08447e-05      47.5014 
         650      9.87422  0.000172231 -5.99414e-05      47.5014 
         650      9.97083  0.000170916 -5.90452e-05      47.5014 
         650      10.0678  0.000169625 -5.81572e-05      47.5014 
         650      10.1654  0.000168358 -5.72755e-05      47.5014 
         650      10.2633  0.000167116 -5.64012e-05      47.5014 
         650      10.3618  0.000165898 -5.55325e-05      47.5014 
         650      10.4607  0.000164703 -5.46698e-05      47.5014 
         650      10.5601  0.000163532 -5.38135e-05      47.5014 
         650        10.66  0.000162384 -5.29619e-05      47.5014 
         650      10.7603  0.000161258 -5.21164e-05      47.5014 
         650      10.8611  0.000160153 -5.12758e-05      47.5014 
         650      10.9623  0.000159069 -5.04416e-05      47.5014 
         650      11.0641  0.000158003  -4.9613e-05      47.5014 
         650      11.1663  0.000156956 -4.87915e-05      47.5014 
         650       11.269  0.000155929  -4.7979e-05      47.5015 
         650      11.3721  0.000154918 -4.71759e-05      47.5015 
         650      11.4757  0.000153925 -4.63854e-05      47.5015 
         650      11.5798  0.000152949 -4.56091e-05      47.5015 
         650      11.6844  0.000151993 -4.48515e-05      47.5015 
         650      11.7894  0.000151056 -4.41158e-05      47.5015 
         650       11.895  0.000150141 -4.34074e-05      47.5015 
         650      12.0009  0.000149253 -4.27329e-05      47.5015 
         650      12.1073  0.000148319 -4.20073e-05      47.5015 
         650      12.2142  0.000147377  -4.1255e-05      47.5015 
         650      12.3216  0.000146475 -4.05318e-05      47.5015 
         650      12.4294  0.000145607 -3.98324e-05      47.5015 
         650      12.5378  0.000144764 -3.91506e-05      47.5015 
         650      12.6465  0.000143943 -3.84832e-05      47.5015 
         650      12.7558  0.000143138 -3.78256e-05      47.5015 
         650      12.8656  0.000142347 -3.71755e-05      47.5015 
         650      12.9757  0.000141569 -3.65314e-05      47.5015 
         650      13.0864  0.000140799 -3.58906e-05      47.5015 
         650      13.1975  0.000140039 -3.52532e-05      47.5015 
         650      13.3092  0.000139288 -3.46177e-05      47.5015 
         650      13.4212  0.000138546  -3.3985e-05      47.5015 
         650      13.5338  0.000137813 -3.33542e-05      47.5015 
         650      13.6468  0.000137091 -3.27263e-05      47.5015 
         650      13.7603  0.000136381 -3.21026e-05      47.5015 
         650      13.8743  0.000135683 -3.14827e-05      47.5015 
         650      13.9886     0.000135 -3.08687e-05      47.5015 
         650      14.1036  0.000134333 -3.02604e-05      47.5015 
         650      14.2189  0.000133682 -2.96598e-05      47.5015 
         650      14.3348  0.000133049 -2.90668e-05      47.5015 
         650       14.451  0.000132435 -2.84832e-05      47.5015 
         650      14.5678   0.00013184 -2.79086e-05      47.5015 
         650      14.6851  0.000131264 -2.73443e-05      47.5015 
         650      14.8028  0.000130709 -2.67909e-05      47.5015 
         650       14.921  0.000130172 -2.62478e-05      47.5015 
         650      15.0396  0.000129654  -2.5716e-05      47.5015 
         650      15.1588  0.000129152 -2.51945e-05      47.5015 
         650      15.2783  0.000128667 -2.46839e-05      47.5015 
         650      15.3984  0.000128196 -2.41832e-05      47.5015 
         650       15.519  0.000127737 -2.36925e-05      47.5015 
         650        15.64  0.000127289 -2.32116e-05      47.5016 
         650      15.7615  0.000126849 -2.27397e-05      47.5016 
         650      15.8834  0.000126415 -2.22775e-05      47.5016 
         650      16.0058  0.000125985 -2.18242e-05      47.5016 
         650      16.1286  0.000125558 -2.13814e-05      47.5016 
         650       16.252  0.000125132 -2.09493e-05      47.5016 
         650      16.3759  0.000124708 -2.05302e-05      47.5016 
         650      16.5002  0.000124285  -2.0127e-05      47.5016 
         650       16.625  0.000123866  -1.9743e-05      47.5016 
         650      16.7501  0.000123454 -1.93836e-05      47.5016 
         650      16.8759  0.000123054  -1.9055e-05      47.5016 
         650       17.002  0.000122678 -1.86264e-05      47.5016 
         650      17.1287  0.000122257 -1.80848e-05      47.5016 
         650      17.2557  0.000121763 -1.74531e-05      47.5016 
         650      17.3834  0.000121255 -1.69874e-05      47.5016 
         650      17.5115  0.000120877 -1.68808e-05      47.5016 
         650      17.6399  0.000120538 -1.66346e-05      47.5016 
         650       17.769  0.000120208 -1.62821e-05      47.5016 
         650      17.8984  0.000119849  -1.5933e-05      47.5016 
         650      18.0284  0.000119506 -1.55849e-05      47.5016 
         650      18.1587  0.000119179 -1.52381e-05      47.5016 
         650      18.2896  0.000118863 -1.48923e-05      47.5016 
         650       18.421  0.000118559 -1.45482e-05      47.5016 
         650      18.5528  0.000118264 -1.42065e-05      47.5016 
         650      18.6851  0.000117979 -1.38673e-05      47.5016 
         650      18.8178  0.000117701 -1.35317e-05      47.5016 
         650      18.9511  0.000117429 -1.32002e-05      47.5016 
         650      19.0847  0.000117165 -1.28739e-05      47.5016 
         650      19.2189  0.000116907 -1.25531e-05      47.5016 
         650      19.3535  0.000116656 -1.22392e-05      47.5016 
         650      19.4886   0.00011641 -1.19324e-05      47.5017 
         650      19.6242   0.00011617 -1.16337e-05      47.5017 
         650      19.7602  0.000115936 -1.13437e-05      47.5017 
         650      19.8968  0.000115708 -1.10626e-05      47.5017 
         650      20.0337  0.000115486 -1.07913e-05      47.5017 
         650      20.1712   0.00011527 -1.05294e-05      47.5017 
         650      20.3091  0.000115059 -1.02776e-05      47.5017 
         650      20.4475  0.000114855 -1.00355e-05      47.5017 
         650      20.5864  0.000114656 -9.80296e-06      47.5017 
         650      20.7257  0.000114463 -9.57994e-06      47.5017 
         650      20.8655  0.000114275 -9.36559e-06      47.5017 
         650      21.0058  0.000114092 -9.15963e-06      47.5017 
         650      21.1465  0.000113914 -8.96099e-06      47.5017 
         650      21.2877  0.000113741 -8.76915e-06      47.5017 
         650      21.4294  0.000113571 -8.58284e-06      47.5017 
         650      21.5716  0.000113405 -8.40121e-06      47.5017 
         650      21.7142  0.000113243 -8.22334e-06      47.5017 
         650      21.8573  0.000113083 -8.04792e-06      47.5017 
         650      22.0008  0.000112926 -7.87419e-06      47.5017 
         650      22.1449  0.000112772 -7.70099e-06      47.5017 
         650      22.2893   0.00011262 -7.52779e-06      47.5017 
         650      22.4344  0.000112471 -7.35377e-06      47.5017 
         650      22.5797  0.000112326 -7.17891e-06      47.5017 
         650      22.7257  0.000112185 -7.00299e-06      47.5017 
         650      22.8721   0.00011205 -6.82664e-06      47.5018 
         650      23.0189  0.000111922 -6.65104e-06      47.5018 
         650      23.1663  0.000111803 -6.47755e-06      47.5018 
         650       23.314  0.000111698 -6.30886e-06      47.5018 
         650      23.4623  0.000111609 -6.14796e-06      47.5018 
         650       23.611  0.000111542 -5.99936e-06      47.5018 
         650      23.7602  0.000111501 -5.86821e-06      47.5018 
         650        23.91  0.000111495 -5.76132e-06      47.5018 
         650        24.06  0.000111455  -5.6572e-06      47.5018 
         650      24.2107  0.000111177 -5.46093e-06      47.5018 
         650      24.3617  0.000110969 -5.28454e-06      47.5018 
         650      24.5133  0.000110813 -5.12372e-06      47.5018 
         650      24.6653  0.000110697 -4.97539e-06      47.5018 
         650      24.8178  0.000110608 -4.83658e-06      47.5018 
         650      24.9708  0.000110536 -4.70522e-06      47.5018 
         650      25.1242  0.000110473 -4.57976e-06      47.5018 
         650      25.2781  0.000110415 -4.45878e-06      47.5018 
         650      25.4324  0.000110356 -4.34168e-06      47.5018 
         650      25.5873  0.000110295 -4.22783e-06      47.5018 
         650      25.7426   0.00011023 -4.11725e-06      47.5018 
         650      25.8984   0.00011016 -4.00985e-06      47.5019 
         650      26.0546  0.000110086 -3.90609e-06      47.5019 
         650      26.2114  0.000110008 -3.80618e-06      47.5019 
         650      26.3686  0.000109928 -3.71069e-06      47.5019 
         650      26.5262  0.000109848 -3.62014e-06      47.5019 
         650      26.6844  0.000109769 -3.53481e-06      47.5019 
         650      26.8429  0.000109692 -3.45512e-06      47.5019 
         650       27.002  0.000109619 -3.38106e-06      47.5019 
         650      27.1615  0.000109551 -3.31263e-06      47.5019 
         650      27.3216  0.000109487 -3.24928e-06      47.5019 
         650      27.4821  0.000109429 -3.19026e-06      47.5019 
         650       27.643  0.000109376 -3.13439e-06      47.5019 
         650      27.8044  0.000109325 -3.07983e-06      47.5019 
         650      27.9663  0.000109275 -3.02438e-06      47.5019 
         650      28.1287  0.000109223 -2.96502e-06      47.5019 
         650      28.2914  0.000109165 -2.89823e-06      47.5019 
         650      28.4548  0.000109098 -2.81953e-06       47.502 
         650      28.6185  0.000109015 -2.72386e-06       47.502 
         650      28.7828  0.000108912 -2.60497e-06       47.502 
         650      28.9475  0.000108783  -2.4559e-06       47.502 
         650      29.1126   0.00010862 -2.26877e-06       47.502 
         650      29.2784  0.000108512 -2.13479e-06       47.502 
         650      29.4444   0.00010863 -2.23378e-06       47.502 
         650       29.611  0.000108722 -2.29587e-06       47.502 
         650       29.778  0.000108787 -2.32447e-06       47.502 
         650      29.9456  0.000108822 -2.32375e-06       47.502 
         650      30.1137  0.000108826 -2.29837e-06       47.502 
         650      30.2821  0.000108799 -2.25358e-06       47.502 
         650      30.4511  0.000108744 -2.19492e-06       47.502 
         650      30.6204  0.000108662 -2.12846e-06       47.502 
         650      30.7903  0.000108558 -2.06028e-06       47.502 
         650      30.9606  0.000108438 -1.99685e-06      47.5021 
         650      31.1315   0.00010831 -1.94448e-06      47.5021 
         650      31.3028  0.000108184 -1.90956e-06      47.5021 
         650      31.4745  0.000108072 -1.89823e-06      47.5021 
         650      31.6468  0.000107988 -1.91629e-06      47.5021 
         650      31.8194  0.000108261 -1.80407e-06      47.5021 
         650      31.9926  0.000108465 -1.70567e-06      47.5021 
         650      32.1662  0.000108595 -1.62496e-06      47.5021 
         650      32.3404  0.000108663 -1.55843e-06      47.5021 
         650      32.5149   0.00010868  -1.5034e-06      47.5021 
         650        32.69  0.000108658 -1.45754e-06      47.5021 
         650      32.8655  0.000108605 -1.41909e-06      47.5021 
         650      33.0414  0.000108532 -1.38671e-06      47.5021 
         650       33.218  0.000108446 -1.35935e-06      47.5022 
         650      33.3948  0.000108355 -1.33631e-06      47.5022 
         650      33.5723  0.000108265 -1.31707e-06      47.5022 
         650        33.75  0.000108181 -1.30132e-06      47.5022 
         650      33.9284  0.000108109 -1.28881e-06      47.5022 
         650      34.1073  0.000108051 -1.27935e-06      47.5022 
         650      34.2865  0.000108013 -1.27272e-06      47.5022 
         650      34.4663  0.000107995 -1.26857e-06      47.5022 
         650      34.6465  0.000107999 -1.26643e-06      47.5022 
         650      34.8272  0.000108026 -1.26556e-06      47.5022 
         650      35.0083  0.000108075 -1.26494e-06      47.5022 
         650        35.19  0.000108145 -1.26316e-06      47.5022 
         650      35.3721  0.000108216 -1.25112e-06      47.5023 
         650      35.5546  0.000108218 -1.21141e-06      47.5023 
         650      35.7377  0.000108219 -1.17662e-06      47.5023 
         650      35.9211  0.000108217 -1.14647e-06      47.5023 
         650      36.1052  0.000108214 -1.12043e-06      47.5023 
         650      36.2895  0.000108209   -1.098e-06      47.5023 
         650      36.4745  0.000108202 -1.07856e-06      47.5023 
         650      36.6598  0.000108194 -1.06153e-06      47.5023 
         650      36.8457  0.000108185 -1.04627e-06      47.5023 
         650      37.0321  0.000108174 -1.03222e-06      47.5023 
         650      37.2188  0.000108163 -1.01883e-06      47.5023 
         650      37.4062   0.00010815 -1.00561e-06      47.5024 
         650      37.5938  0.000108137 -9.92171e-07      47.5024 
         650      37.7821  0.000108123 -9.78174e-07      47.5024 
         650      37.9707  0.000108109 -9.63415e-07      47.5024 
         650      38.1599  0.000108094 -9.47748e-07      47.5024 
         650      38.3496  0.000108079 -9.31161e-07      47.5024 
         650      38.5396  0.000108063 -9.13748e-07      47.5024 
         650      38.7302  0.000108047 -8.95656e-07      47.5024 
         650      38.9211  0.000108029 -8.77177e-07      47.5024 
         650      39.1127  0.000108011 -8.58616e-07      47.5024 
         650      39.3046  0.000107992 -8.40396e-07      47.5025 
         650      39.4971  0.000107971 -8.22913e-07      47.5025 
         650      39.6899  0.000107949  -8.0663e-07      47.5025 
         650      39.8833  0.000107926 -7.91934e-07      47.5025 
         650      40.0772    0.0001079 -7.79188e-07      47.5025 
         650      40.2714  0.000107873  -7.6865e-07      47.5025 
         650      40.4663  0.000107845 -7.60405e-07      47.5025 
         650      40.6615  0.000107816 -7.54363e-07      47.5025 
         650      40.8573  0.000107786 -7.50149e-07      47.5025 
         650      41.0534  0.000107756 -7.47081e-07      47.5026 
         650      41.2501  0.000107726 -7.44062e-07      47.5026 
         650      41.4473    0.0001077 -7.39525e-07      47.5026 
         650      41.6448  0.000107677 -7.31341e-07      47.5026 
         650      41.8429   0.00010766 -7.16708e-07      47.5026 
         650      42.0414  0.000107652 -6.92101e-07      47.5026 
         650      42.2405  0.000107656 -6.53063e-07      47.5026 
         650      42.4399  0.000107659  -7.4183e-07      47.5026 
         650      42.6399  0.000107661 -8.03026e-07      47.5026 
         650      42.8404  0.000107664  -8.4147e-07      47.5027 
         650      43.0412  0.000107669 -8.62603e-07      47.5027 
         650      43.2426  0.000107677 -8.71176e-07      47.5027 
         650      43.4444  0.000107689 -8.71202e-07      47.5027 
         650      43.6467  0.000107704 -8.66069e-07      47.5027 
         650      43.8494  0.000107723 -8.58572e-07      47.5027 
         650      44.0527  0.000107745 -8.50937e-07      47.5027 
         650      44.2563   0.00010777 -8.44905e-07      47.5027 
         650      44.4606  0.000107796 -8.41729e-07      47.5028 
         650      44.6653  0.000107822 -8.42256e-07      47.5028 
         650      44.8704  0.000107847  -8.4694e-07      47.5028 
         650       45.076  0.000107871 -8.55908e-07      47.5028 
         650       45.282  0.000107891 -8.68963e-07      47.5028 
         650      45.4886  0.000107906 -8.85684e-07      47.5028 
         650      45.6955  0.000107916 -9.05376e-07      47.5028 
         650       45.903  0.000107919 -9.27218e-07      47.5028 
         650      46.1111  0.000107914 -9.50186e-07      47.5029 
         650      46.3194  0.000107901 -9.73134e-07      47.5029 
         650      46.5283  0.000107879 -9.94886e-07      47.5029 
         650      46.7376  0.000107847 -1.01414e-06      47.5029 
         650      46.9475  0.000107807 -1.02962e-06      47.5029 
         650      47.1577  0.000107758    -1.04e-06      47.5029 
         650      47.3685  0.000107701 -1.04403e-06      47.5029 
         650      47.5798  0.000107637 -1.04044e-06      47.5029 
         650      47.7914  0.000107567 -1.02809e-06       47.503 
         650      48.0037  0.000107495 -1.00586e-06       47.503 