Variables = x, y, u, v, p

Zone, I=800, F=POINT
         -50            0            0            0      143.589 
         -50     0.000234  1.56229e-05  2.78869e-09      143.589 
         -50     0.000939  5.88162e-05  1.08817e-08      143.589 
         -50     0.002113  0.000118885  2.34045e-08      143.589 
         -50     0.003759  0.000181587  3.92009e-08      143.589 
         -50     0.005872  0.000232577  5.69967e-08      143.589 
         -50     0.008457  0.000262027  7.58758e-08      143.589 
         -50      0.01151  0.000266972  9.53632e-08      143.589 
         -50     0.015036  0.000252295  1.15681e-07      143.589 
         -50     0.019031  0.000228837  1.37587e-07      143.589 
         -50     0.023493  0.000209275   1.6224e-07      143.589 
         -50     0.028429   0.00020283  1.90938e-07      143.589 
         -50     0.033831  0.000210926  2.24678e-07      143.589 
         -50     0.039706  0.000225901  2.64175e-07      143.589 
         -50     0.046047  0.000234832  3.09757e-07      143.589 
         -50     0.052863  0.000228672  3.61902e-07      143.589 
         -50      0.06015   0.00021296  4.21394e-07      143.589 
         -50       0.0679  0.000210041  4.89174e-07      143.589 
         -50     0.076126  0.000231911   5.6458e-07      143.589 
         -50     0.084816  0.000212631  6.41921e-07      143.589 
         -50     0.093982  0.000218978  7.32504e-07      143.589 
         -50     0.103611  0.000220344  8.30596e-07      143.589 
         -50     0.113718  0.000219255  9.36437e-07      143.589 
         -50     0.124286  0.000217516  1.04994e-06      143.589 
         -50     0.135333   0.00021613  1.17135e-06      143.589 
         -50      0.14685  0.000215365  1.30054e-06      143.589 
         -50     0.158827  0.000214942   1.4372e-06      143.589 
         -50     0.171284  0.000214346  1.58119e-06      143.589 
         -50     0.184201  0.000213195  1.73169e-06      143.589 
         -50     0.197599  0.000211547  1.88824e-06      143.589 
         -50     0.211455   0.00020998  2.04992e-06      143.589 
         -50     0.225792  0.000209176  2.21685e-06      143.589 
         -50       0.2406  0.000208664  2.39001e-06      143.589 
         -50     0.255865  0.000206606  2.57214e-06      143.589 
         -50     0.271613  0.000205631  2.75757e-06      143.589 
         -50     0.287818  0.000204538  2.94802e-06      143.589 
         -50     0.304506   0.00020339  3.14979e-06      143.589 
         -50      0.32165  0.000202242  3.36801e-06      143.589 
         -50     0.339278  0.000201129  3.60758e-06      143.589 
         -50     0.357377  0.000200075  3.87176e-06      143.589 
         -50      0.37593  0.000199095  4.16228e-06      143.589 
         -50     0.394968  0.000198192  4.47992e-06      143.589 
         -50     0.414461  0.000197366  4.82264e-06      143.589 
         -50      0.43444  0.000196613   5.1874e-06      143.589 
         -50     0.454872  0.000195937  5.56794e-06      143.588 
         -50     0.475791  0.000195342  5.95725e-06      143.588 
         -50     0.497163  0.000194842  6.34524e-06      143.588 
         -50     0.519021  0.000194457  6.72168e-06      143.588 
         -50      0.54135  0.000194207  7.07469e-06      143.588 
         -50     0.564131  0.000194102  7.39259e-06      143.588 
         -50       0.5874  0.000194123   7.6659e-06      143.588 
         -50     0.611121  0.000194209  7.88549e-06      143.588 
         -50      0.63533  0.000194481  8.09429e-06      143.588 
         -50      0.65999   0.00019487  8.35659e-06      143.588 
         -50     0.685139  0.000195379  8.66512e-06      143.588 
         -50     0.710759  0.000196007  9.01255e-06      143.588 
         -50     0.736828  0.000196751  9.39201e-06      143.588 
         -50     0.763387  0.000197607  9.79819e-06      143.588 
         -50     0.790396  0.000198567  1.02252e-05      143.587 
         -50     0.817896  0.000199621  1.06691e-05      143.587 
         -50     0.845843  0.000200759  1.11251e-05      143.587 
         -50     0.874283  0.000201968  1.15904e-05      143.587 
         -50      0.90317  0.000203232  1.20615e-05      143.587 
         -50     0.932551   0.00020454  1.25364e-05      143.587 
         -50     0.962401  0.000205874  1.30127e-05      143.587 
         -50     0.992697  0.000207219  1.34879e-05      143.587 
         -50      1.02349  0.000208564  1.39611e-05      143.587 
         -50      1.05472  0.000209893  1.44297e-05      143.586 
         -50      1.08645  0.000211198  1.48929e-05      143.586 
         -50      1.11863  0.000212466  1.53483e-05      143.586 
         -50       1.1513  0.000213694   1.5795e-05      143.586 
         -50      1.18444  0.000214876  1.62309e-05      143.586 
         -50      1.21802  0.000216009  1.66545e-05      143.585 
         -50      1.25211  0.000217096  1.70657e-05      143.585 
         -50      1.28663  0.000218138  1.74638e-05      143.585 
         -50      1.32165  0.000219141   1.7851e-05      143.585 
         -50      1.35712  0.000220106  1.82303e-05      143.585 
         -50      1.39308  0.000221038  1.86088e-05      143.584 
         -50      1.42951  0.000221934   1.8997e-05      143.584 
         -50      1.46638  0.000222784  1.94111e-05      143.584 
         -50      1.50375  0.000223572  1.98756e-05      143.584 
         -50      1.54156  0.000224423  2.01445e-05      143.583 
         -50      1.57987  0.000225267  2.03738e-05      143.583 
         -50      1.61863  0.000226134  2.05908e-05      143.583 
         -50      1.65788  0.000227061  2.08055e-05      143.583 
         -50      1.69757  0.000228074   2.1025e-05      143.582 
         -50      1.73776  0.000229192  2.12558e-05      143.582 
         -50      1.77842  0.000230427  2.15015e-05      143.582 
         -50      1.81952   0.00023178  2.17642e-05      143.581 
         -50      1.86113  0.000233251  2.20445e-05      143.581 
         -50      1.90316  0.000234827  2.23408e-05       143.58 
         -50      1.94571  0.000236494  2.26504e-05       143.58 
         -50      1.98869  0.000238228  2.29681e-05       143.58 
         -50      2.03217  0.000240003  2.32883e-05      143.579 
         -50      2.07612  0.000241788  2.36033e-05      143.579 
         -50      2.12051  0.000243547   2.3904e-05      143.578 
         -50       2.1654  0.000245247  2.41814e-05      143.578 
         -50      2.21073  0.000246846  2.44245e-05      143.578 
         -50      2.25656  0.000248311  2.46227e-05      143.577 
         -50      2.30283  0.000249602  2.47642e-05      143.577 
         -50       2.3496  0.000250686  2.48377e-05      143.576 
         -50      2.39685  0.000251532  2.48318e-05      143.576 
         -50      2.44452  0.000252111  2.47357e-05      143.575 
         -50      2.49271  0.000252404  2.45391e-05      143.574 
         -50      2.54132  0.000252395  2.42332e-05      143.574 
         -50      2.59044  0.000252078  2.38097e-05      143.573 
         -50         2.64  0.000251452  2.32631e-05      143.573 
         -50      2.69006  0.000250529  2.25882e-05      143.572 
         -50      2.74056  0.000249327  2.17839e-05      143.571 
         -50      2.79156  0.000247875  2.08492e-05      143.571 
         -50      2.84304   0.00024621  1.97876e-05       143.57 
         -50      2.89494  0.000244382  1.86056e-05      143.569 
         -50      2.94735  0.000242444    1.731e-05      143.569 
         -50       3.0002  0.000240459  1.59145e-05      143.568 
         -50      3.05355  0.000238492  1.44315e-05      143.567 
         -50      3.10733  0.000236616  1.28811e-05      143.566 
         -50      3.16163  0.000234895  1.12814e-05      143.566 
         -50      3.21639  0.000233395  9.65674e-06      143.565 
         -50      3.27158  0.000232171  8.03414e-06      143.564 
         -50      3.32729   0.00023126   6.4384e-06      143.563 
         -50      3.38342  0.000230681  4.90071e-06      143.562 
         -50      3.44007   0.00023042  3.44787e-06      143.561 
         -50      3.49714  0.000230424  2.11091e-06       143.56 
         -50      3.55472  0.000230591  9.14977e-07       143.56 
         -50      3.61273  0.000230757 -1.13751e-07      143.559 
         -50      3.67125  0.000230681 -9.56991e-07      143.558 
         -50      3.73025  0.000230029 -1.60031e-06      143.557 
         -50      3.78967  0.000229287 -2.26378e-06      143.556 
         -50      3.84961  0.000229083 -3.16886e-06      143.554 
         -50      3.90996  0.000229148 -4.05808e-06      143.553 
         -50      3.97084  0.000228878 -4.28576e-06      143.552 
         -50      4.03214  0.000228664 -4.46964e-06      143.551 
         -50      4.09395  0.000228561 -4.63494e-06       143.55 
         -50      4.15624  0.000228542 -4.74296e-06      143.549 
         -50      4.21895  0.000228576 -4.77746e-06      143.548 
         -50      4.28217  0.000228631 -4.74005e-06      143.546 
         -50      4.34582  0.000228678  -4.6455e-06      143.545 
         -50      4.40998  0.000228689  -4.5172e-06      143.544 
         -50      4.47457  0.000228644 -4.38352e-06      143.542 
         -50      4.53968  0.000228527 -4.27314e-06      143.541 
         -50      4.60525  0.000228332 -4.21239e-06       143.54 
         -50      4.67125   0.00022806 -4.22176e-06      143.538 
         -50      4.73777  0.000227724 -4.31376e-06      143.537 
         -50       4.8047  0.000227342  -4.4912e-06      143.535 
         -50      4.87216   0.00022694 -4.74703e-06      143.534 
         -50      4.94003  0.000226551  -5.0637e-06      143.532 
         -50      5.00843  0.000226209 -5.41624e-06      143.531 
         -50      5.07724  0.000225948 -5.77322e-06      143.529 
         -50      5.14658  0.000225792 -6.10344e-06      143.528 
         -50      5.21639  0.000225756 -6.38007e-06      143.526 
         -50      5.28661  0.000225833 -6.58989e-06      143.524 
         -50      5.35736  0.000225986 -6.74384e-06      143.522 
         -50      5.42852  0.000226137 -6.88862e-06      143.521 
         -50      5.50021  0.000226155 -7.12313e-06      143.519 
         -50      5.57231  0.000225841 -7.61532e-06      143.517 
         -50      5.64493   0.00022491 -8.62517e-06      143.515 
         -50      5.71803  0.000225794 -7.65903e-06      143.513 
         -50      5.79154  0.000225886  -7.3211e-06      143.511 
         -50      5.86558  0.000225564  -7.2758e-06      143.509 
         -50      5.94003  0.000225091 -7.29583e-06      143.507 
         -50      6.01501  0.000224627    -7.24e-06      143.505 
         -50       6.0904  0.000224251 -7.03479e-06      143.503 
         -50      6.16632  0.000223982 -6.65749e-06      143.501 
         -50      6.24271  0.000223793 -6.12417e-06      143.499 
         -50       6.3195  0.000223641 -5.48052e-06      143.497 
         -50      6.39683  0.000223482 -4.79493e-06      143.494 
         -50      6.47457  0.000223301 -4.16248e-06      143.492 
         -50      6.55284  0.000223132 -3.70682e-06       143.49 
         -50      6.63152  0.000223085 -3.59638e-06      143.487 
         -50      6.71073  0.000223372 -4.06184e-06      143.485 
         -50      6.79034  0.000223337 -3.60292e-06      143.483 
         -50      6.87049  0.000223063  -2.6899e-06       143.48 
         -50      6.95111  0.000222853 -1.93736e-06      143.477 
         -50      7.03214  0.000222695 -1.30389e-06      143.475 
         -50       7.1137  0.000222573 -7.65389e-07      143.472 
         -50      7.19566  0.000222476 -3.13783e-07       143.47 
         -50      7.27816  0.000222391  5.17163e-08      143.467 
         -50      7.36106   0.00022231  3.27527e-07      143.464 
         -50      7.44451  0.000222226   5.1443e-07      143.461 
         -50      7.52842  0.000222136  6.22937e-07      143.458 
         -50      7.61273  0.000222041  6.81956e-07      143.456 
         -50      7.69758  0.000221945  7.47143e-07      143.453 
         -50      7.78283   0.00022186  9.09679e-07       143.45 
         -50      7.86862  0.000221803  1.30704e-06      143.447 
         -50      7.95481  0.000221796   2.1322e-06      143.443 
         -50      8.04155  0.000221873  3.64862e-06       143.44 
         -50      8.12868  0.000221475  3.88966e-06      143.437 
         -50      8.21635   0.00022099  4.00044e-06      143.434 
         -50      8.30449  0.000220545  4.38821e-06      143.431 
         -50      8.39303  0.000220119  4.90665e-06      143.427 
         -50      8.48211  0.000219714  5.44913e-06      143.424 
         -50      8.57159  0.000219348  5.94414e-06       143.42 
         -50      8.66161  0.000219043  6.35664e-06      143.417 
         -50      8.75203  0.000218822   6.6829e-06      143.413 
         -50      8.84299  0.000218696  6.95081e-06       143.41 
         -50      8.93443  0.000218649  7.21534e-06      143.406 
         -50      9.02626   0.00021863  7.55641e-06      143.402 
         -50      9.11863  0.000218529  8.07662e-06      143.399 
         -50      9.21139  0.000218167  8.89549e-06      143.395 
         -50      9.30471  0.000217267  1.01495e-05      143.391 
         -50      9.39841  0.000216959  1.07662e-05      143.387 
         -50      9.49267  0.000217616  1.06165e-05      143.383 
         -50      9.58739  0.000218023  1.07404e-05      143.379 
         -50      9.68251  0.000218224  1.10768e-05      143.375 
         -50      9.77817  0.000218255  1.15697e-05      143.371 
         -50      9.87422  0.000218152  1.21674e-05      143.367 
         -50      9.97083  0.000217945  1.28252e-05      143.362 
         -50      10.0678  0.000217661  1.35027e-05      143.358 
         -50      10.1654  0.000217323   1.4168e-05      143.354 
         -50      10.2633  0.000216951  1.47939e-05      143.349 
         -50      10.3618  0.000216562   1.5362e-05      143.345 
         -50      10.4607  0.000216169  1.58594e-05       143.34 
         -50      10.5601  0.000215783  1.62803e-05      143.336 
         -50        10.66  0.000215413  1.66264e-05      143.331 
         -50      10.7603  0.000215064  1.69045e-05      143.326 
         -50      10.8611   0.00021474  1.71281e-05      143.321 
         -50      10.9623  0.000214443  1.73148e-05      143.316 
         -50      11.0641  0.000214173   1.7487e-05      143.311 
         -50      11.1663  0.000213928  1.76694e-05      143.306 
         -50       11.269  0.000213705  1.78885e-05      143.301 
         -50      11.3721  0.000213502  1.81711e-05      143.296 
         -50      11.4757  0.000213312  1.85414e-05      143.291 
         -50      11.5798  0.000213132  1.90204e-05      143.286 
         -50      11.6844  0.000212955  1.96215e-05       143.28 
         -50      11.7894  0.000212777  2.03505e-05      143.275 
         -50       11.895  0.000212593  2.11996e-05       143.27 
         -50      12.0009  0.000212397  2.21449e-05      143.264 
         -50      12.1073  0.000212187  2.31451e-05      143.258 
         -50      12.2142  0.000211959  2.41324e-05      143.253 
         -50      12.3216  0.000211711  2.50133e-05      143.247 
         -50      12.4294  0.000211444  2.56584e-05      143.241 
         -50      12.5378  0.000211158  2.59013e-05      143.235 
         -50      12.6465  0.000210802  2.57897e-05      143.229 
         -50      12.7558  0.000210486  2.65231e-05      143.223 
         -50      12.8656  0.000210818    2.687e-05      143.217 
         -50      12.9757  0.000210528  2.80807e-05      143.211 
         -50      13.0864  0.000209676  2.84212e-05      143.205 
         -50      13.1975  0.000208968  2.84851e-05      143.199 
         -50      13.3092  0.000208405  2.83993e-05      143.192 
         -50      13.4212  0.000207985  2.82617e-05      143.186 
         -50      13.5338  0.000207692   2.8144e-05      143.179 
         -50      13.6468  0.000207511  2.80958e-05      143.173 
         -50      13.7603  0.000207418  2.81473e-05      143.166 
         -50      13.8743   0.00020739   2.8313e-05      143.159 
         -50      13.9886  0.000207401   2.8594e-05      143.153 
         -50      14.1036  0.000207428  2.89819e-05      143.146 
         -50      14.2189  0.000207448  2.94602e-05      143.139 
         -50      14.3348  0.000207443  3.00092e-05      143.132 
         -50       14.451  0.000207396  3.06049e-05      143.125 
         -50      14.5678  0.000207296  3.12252e-05      143.117 
         -50      14.6851  0.000207139  3.18483e-05       143.11 
         -50      14.8028  0.000206924  3.24555e-05      143.103 
         -50       14.921  0.000206656  3.30343e-05      143.095 
         -50      15.0396  0.000206345  3.35756e-05      143.088 
         -50      15.1588  0.000206005   3.4078e-05       143.08 
         -50      15.2783  0.000205654  3.45446e-05      143.073 
         -50      15.3984  0.000205314  3.49854e-05      143.065 
         -50       15.519  0.000205006  3.54143e-05      143.057 
         -50        15.64   0.00020475  3.58482e-05      143.049 
         -50      15.7615  0.000204562  3.63065e-05      143.041 
         -50      15.8834  0.000204452  3.68056e-05      143.033 
         -50      16.0058  0.000204421  3.73587e-05      143.025 
         -50      16.1286  0.000204455  3.79684e-05      143.017 
         -50       16.252  0.000204521  3.86259e-05      143.009 
         -50      16.3759  0.000204565  3.93012e-05          143 
         -50      16.5002  0.000204502  3.99389e-05      142.992 
         -50       16.625  0.000204213  4.04515e-05      142.983 
         -50      16.7501  0.000203563  4.08019e-05      142.975 
         -50      16.8759  0.000202877  4.13291e-05      142.966 
         -50       17.002  0.000202264  4.19878e-05      142.957 
         -50      17.1287  0.000201707  4.26976e-05      142.948 
         -50      17.2557  0.000201192  4.33982e-05       142.94 
         -50      17.3834  0.000200709  4.40503e-05      142.931 
         -50      17.5115  0.000200252   4.4629e-05      142.921 
         -50      17.6399  0.000199816  4.51235e-05      142.912 
         -50       17.769    0.0001994  4.55347e-05      142.903 
         -50      17.8984  0.000199002  4.58709e-05      142.894 
         -50      18.0284  0.000198624  4.61475e-05      142.884 
         -50      18.1587  0.000198269  4.63828e-05      142.875 
         -50      18.2896  0.000197936   4.6598e-05      142.865 
         -50       18.421   0.00019763  4.68133e-05      142.855 
         -50      18.5528   0.00019735  4.70475e-05      142.846 
         -50      18.6851  0.000197097  4.73165e-05      142.836 
         -50      18.8178  0.000196869  4.76311e-05      142.826 
         -50      18.9511  0.000196663  4.79974e-05      142.816 
         -50      19.0847  0.000196471  4.84144e-05      142.806 
         -50      19.2189  0.000196285  4.88757e-05      142.795 
         -50      19.3535  0.000196091  4.93669e-05      142.785 
         -50      19.4886  0.000195873  4.98687e-05      142.775 
         -50      19.6242  0.000195609  5.03548e-05      142.764 
         -50      19.7602  0.000195273  5.07945e-05      142.754 
         -50      19.8968  0.000194833  5.11547e-05      142.743 
         -50      20.0337  0.000194253     5.14e-05      142.732 
         -50      20.1712  0.000193488   5.1497e-05      142.722 
         -50      20.3091  0.000192685  5.14328e-05      142.711 
         -50      20.4475   0.00019245  5.16186e-05        142.7 
         -50      20.5864  0.000192225  5.22369e-05      142.689 
         -50      20.7257  0.000191983  5.32739e-05      142.678 
         -50      20.8655  0.000191691  5.47041e-05      142.666 
         -50      21.0058   0.00019131  5.64815e-05      142.655 
         -50      21.1465  0.000190792  5.85438e-05      142.644 
         -50      21.2877  0.000190578  5.89751e-05      142.632 
         -50      21.4294  0.000190879  5.74849e-05       142.62 
         -50      21.5716  0.000190913  5.67246e-05      142.609 
         -50      21.7142  0.000190572  5.68202e-05      142.597 
         -50      21.8573  0.000189854  5.78077e-05      142.585 
         -50      22.0008  0.000189035  5.92276e-05      142.573 
         -50      22.1449  0.000188631  5.98604e-05      142.561 
         -50      22.2893  0.000188313  6.02908e-05      142.549 
         -50      22.4344   0.00018806  6.05744e-05      142.537 
         -50      22.5797  0.000187848  6.07651e-05      142.525 
         -50      22.7257  0.000187655  6.09133e-05      142.512 
         -50      22.8721  0.000187464   6.1063e-05        142.5 
         -50      23.0189  0.000187256  6.12498e-05      142.487 
         -50      23.1663  0.000187018  6.15001e-05      142.475 
         -50       23.314   0.00018674  6.18286e-05      142.462 
         -50      23.4623  0.000186418  6.22399e-05      142.449 
         -50       23.611  0.000186049  6.27263e-05      142.436 
         -50      23.7602  0.000185635  6.32712e-05      142.423 
         -50        23.91  0.000185184  6.38485e-05       142.41 
         -50        24.06  0.000184704  6.44251e-05      142.397 
         -50      24.2107  0.000184207  6.49661e-05      142.384 
         -50      24.3617  0.000183705  6.54349e-05       142.37 
         -50      24.5133   0.00018321  6.58019e-05      142.357 
         -50      24.6653  0.000182731  6.60463e-05      142.343 
         -50      24.8178  0.000182274  6.61659e-05       142.33 
         -50      24.9708  0.000181839  6.61824e-05      142.316 
         -50      25.1242  0.000181414  6.61513e-05      142.302 
         -50      25.2781  0.000180977   6.6171e-05      142.288 
         -50      25.4324  0.000180488  6.63942e-05      142.274 
         -50      25.5873  0.000180334  6.58517e-05       142.26 
         -50      25.7426  0.000180002   6.5736e-05      142.246 
         -50      25.8984  0.000179582   6.5976e-05      142.232 
         -50      26.0546  0.000179167  6.64224e-05      142.218 
         -50      26.2114  0.000178798  6.69604e-05      142.203 
         -50      26.3686   0.00017847  6.75064e-05      142.189 
         -50      26.5262  0.000178143  6.80082e-05      142.174 
         -50      26.6844  0.000177758  6.84477e-05       142.16 
         -50      26.8429   0.00017726  6.88403e-05      142.145 
         -50       27.002  0.000176629  6.92415e-05       142.13 
         -50      27.1615  0.000175917  6.97497e-05      142.115 
         -50      27.3216  0.000175294  7.05153e-05        142.1 
         -50      27.4821  0.000175102  7.17472e-05      142.085 
         -50       27.643  0.000175023  7.24329e-05       142.07 
         -50      27.8044  0.000174652  7.26065e-05      142.055 
         -50      27.9663  0.000174251  7.28347e-05      142.039 
         -50      28.1287  0.000173825  7.30989e-05      142.024 
         -50      28.2914  0.000173379  7.33832e-05      142.009 
         -50      28.4548  0.000172916  7.36752e-05      141.993 
         -50      28.6185  0.000172441  7.39641e-05      141.977 
         -50      28.7828  0.000171957  7.42426e-05      141.962 
         -50      28.9475  0.000171468  7.45047e-05      141.946 
         -50      29.1126  0.000170977  7.47462e-05       141.93 
         -50      29.2784  0.000170486  7.49652e-05      141.914 
         -50      29.4444  0.000169998  7.51604e-05      141.898 
         -50       29.611  0.000169514  7.53323e-05      141.882 
         -50       29.778  0.000169038  7.54817e-05      141.865 
         -50      29.9456  0.000168568  7.56107e-05      141.849 
         -50      30.1137  0.000168108  7.57218e-05      141.833 
         -50      30.2821  0.000167657  7.58176e-05      141.816 
         -50      30.4511  0.000167216  7.59013e-05        141.8 
         -50      30.6204  0.000166784  7.59761e-05      141.783 
         -50      30.7903  0.000166362   7.6045e-05      141.766 
         -50      30.9606   0.00016595   7.6111e-05       141.75 
         -50      31.1315  0.000165545  7.61769e-05      141.733 
         -50      31.3028  0.000165146  7.62451e-05      141.716 
         -50      31.4745  0.000164754  7.63176e-05      141.699 
         -50      31.6468  0.000164364  7.63963e-05      141.682 
         -50      31.8194  0.000163976  7.64822e-05      141.665 
         -50      31.9926  0.000163587  7.65767e-05      141.647 
         -50      32.1662  0.000163194  7.66803e-05       141.63 
         -50      32.3404  0.000162794  7.67937e-05      141.613 
         -50      32.5149  0.000162386  7.69172e-05      141.595 
         -50        32.69  0.000161963  7.70515e-05      141.577 
         -50      32.8655  0.000161525  7.71973e-05       141.56 
         -50      33.0414  0.000161066  7.73558e-05      141.542 
         -50       33.218  0.000160583  7.75292e-05      141.524 
         -50      33.3948  0.000160072  7.77204e-05      141.507 
         -50      33.5723  0.000159528   7.7934e-05      141.489 
         -50        33.75  0.000158947  7.81758e-05      141.471 
         -50      33.9284  0.000158325  7.84547e-05      141.453 
         -50      34.1073  0.000157656  7.87813e-05      141.434 
         -50      34.2865  0.000156938  7.91696e-05      141.416 
         -50      34.4663  0.000156164  7.96382e-05      141.398 
         -50      34.6465   0.00015533  8.02085e-05       141.38 
         -50      34.8272  0.000154431  8.09088e-05      141.361 
         -50      35.0083  0.000154103  8.11627e-05      141.343 
         -50        35.19  0.000154167  8.10347e-05      141.324 
         -50      35.3721  0.000154129  8.08953e-05      141.305 
         -50      35.5546  0.000153998  8.07854e-05      141.287 
         -50      35.7377  0.000153873  8.11079e-05      141.268 
         -50      35.9211  0.000153683  8.13715e-05      141.249 
         -50      36.1052  0.000153434  8.15952e-05       141.23 
         -50      36.2895  0.000153134  8.17917e-05      141.211 
         -50      36.4745  0.000152787  8.19698e-05      141.192 
         -50      36.6598  0.000152396   8.2133e-05      141.173 
         -50      36.8457  0.000151947  8.22444e-05      141.154 
         -50      37.0321    0.0001512  8.17526e-05      141.135 
         -50      37.2188  0.000150473  8.13263e-05      141.115 
         -50      37.4062  0.000149772  8.09729e-05      141.096 
         -50      37.5938  0.000149102  8.06976e-05      141.077 
         -50      37.7821  0.000148467  8.05014e-05      141.057 
         -50      37.9707  0.000147867  8.03831e-05      141.038 
         -50      38.1599    0.0001473  8.03388e-05      141.018 
         -50      38.3496  0.000146764  8.03629e-05      140.998 
         -50      38.5396  0.000146257  8.04481e-05      140.979 
         -50      38.7302  0.000145773  8.05861e-05      140.959 
         -50      38.9211  0.000145309  8.07677e-05      140.939 
         -50      39.1127   0.00014486  8.09834e-05      140.919 
         -50      39.3046  0.000144422  8.12234e-05      140.899 
         -50      39.4971  0.000143991  8.14785e-05      140.879 
         -50      39.6899  0.000143564  8.17391e-05      140.859 
         -50      39.8833  0.000143139  8.19973e-05      140.839 
         -50      40.0772  0.000142712  8.22454e-05      140.819 
         -50      40.2714  0.000142283  8.24768e-05      140.798 
         -50      40.4663  0.000141852  8.26867e-05      140.778 
         -50      40.6615   0.00014142  8.28707e-05      140.758 
         -50      40.8573  0.000140986  8.30266e-05      140.737 
         -50      41.0534  0.000140553  8.31532e-05      140.717 
         -50      41.2501  0.000140123  8.32509e-05      140.696 
         -50      41.4473  0.000139696  8.33212e-05      140.676 
         -50      41.6448  0.000139277  8.33671e-05      140.655 
         -50      41.8429  0.000138865  8.33926e-05      140.634 
         -50      42.0414   0.00013846  8.34026e-05      140.614 
         -50      42.2405  0.000138062  8.34026e-05      140.593 
         -50      42.4399  0.000137667  8.33987e-05      140.572 
         -50      42.6399  0.000137268  8.33966e-05      140.551 
         -50      42.8404  0.000136856  8.34017e-05       140.53 
         -50      43.0412  0.000136419  8.34186e-05      140.509 
         -50      43.2426  0.000135937  8.34503e-05      140.488 
         -50      43.4444  0.000135385  8.34977e-05      140.467 
         -50      43.6467  0.000134732  8.35588e-05      140.446 
         -50      43.8494  0.000133938  8.36282e-05      140.425 
         -50      44.0527  0.000132954   8.3696e-05      140.404 
         -50      44.2563  0.000131748  8.37529e-05      140.383 
         -50      44.4606  0.000131541  8.40089e-05      140.361 
         -50      44.6653  0.000131275  8.41942e-05       140.34 
         -50      44.8704  0.000130958  8.43191e-05      140.319 
         -50       45.076  0.000130602  8.43912e-05      140.297 
         -50       45.282   0.00013022  8.44158e-05      140.276 
         -50      45.4886  0.000129825  8.43971e-05      140.254 
         -50      45.6955  0.000129432  8.43392e-05      140.233 
         -50       45.903  0.000129056  8.42468e-05      140.211 
         -50      46.1111  0.000128709  8.41266e-05       140.19 
         -50      46.3194  0.000128403   8.3988e-05      140.168 
         -50      46.5283  0.000128148  8.38444e-05      140.147 
         -50      46.7376   0.00012795  8.37145e-05      140.125 
         -50      46.9475  0.000127809   8.3623e-05      140.103 
         -50      47.1577  0.000127723  8.36027e-05      140.081 
         -50      47.3685  0.000127424  8.35307e-05      140.059 
         -50      47.5798  0.000126713  8.32455e-05      140.038 
         -50      47.7914  0.000126024   8.2989e-05      140.016 
         -50      48.0037  0.000125358  8.27602e-05      139.994 