Variables = x, y, u, v, p

Zone, I=800, F=POINT
          20            0           -0           -0      40.2515 
          20     0.000234  7.77011e-06   7.5454e-10      40.2515 
          20     0.000939  2.91876e-05  3.19328e-09      40.2515 
          20     0.002113  5.87452e-05  7.79655e-09      40.2515 
          20     0.003759  8.90665e-05  1.53602e-08      40.2515 
          20     0.005872  0.000112656  2.68972e-08      40.2515 
          20     0.008457  0.000124233  4.36733e-08      40.2515 
          20      0.01151  0.000121971  6.70467e-08      40.2515 
          20     0.015036  0.000108023  9.85265e-08      40.2515 
          20     0.019031  8.76728e-05  1.39574e-07      40.2515 
          20     0.023493  6.73064e-05  1.91621e-07      40.2515 
          20     0.028429  5.17706e-05  2.56115e-07      40.2515 
          20     0.033831  4.22361e-05  3.34151e-07      40.2515 
          20     0.039706  3.53863e-05  4.26788e-07      40.2515 
          20     0.046047  2.52528e-05  5.34534e-07      40.2515 
          20     0.052863  7.53082e-06  6.57709e-07      40.2515 
          20      0.06015 -1.51047e-05  7.95851e-07      40.2515 
          20       0.0679 -3.17675e-05  9.47759e-07      40.2515 
          20     0.076126 -3.62462e-05  1.11202e-06      40.2515 
          20     0.084816 -5.97028e-05  1.28643e-06      40.2515 
          20     0.093982 -7.14483e-05  1.46958e-06      40.2515 
          20     0.103611 -8.48665e-05  1.65818e-06      40.2515 
          20     0.113718 -9.87805e-05  1.84933e-06      40.2515 
          20     0.124286 -0.000112277  2.03927e-06      40.2515 
          20     0.135333 -0.000124834  2.22473e-06      40.2515 
          20      0.14685 -0.000136216  2.40186e-06      40.2515 
          20     0.158827  -0.00014644   2.5669e-06      40.2515 
          20     0.171284 -0.000155666  2.71657e-06      40.2515 
          20     0.184201 -0.000163986  2.84725e-06      40.2515 
          20     0.197599 -0.000171361  2.95603e-06      40.2515 
          20     0.211455 -0.000177525   3.0399e-06      40.2515 
          20     0.225792 -0.000182201  3.09653e-06      40.2515 
          20       0.2406 -0.000185576  3.12385e-06      40.2515 
          20     0.255865 -0.000188444  3.12134e-06      40.2515 
          20     0.271613 -0.000189821  3.08788e-06      40.2515 
          20     0.287818 -0.000190213  3.02183e-06      40.2515 
          20     0.304506 -0.000189661  2.92321e-06      40.2515 
          20      0.32165 -0.000188228  2.79176e-06      40.2515 
          20     0.339278 -0.000185995  2.62624e-06      40.2515 
          20     0.357377 -0.000183064  2.42458e-06      40.2515 
          20      0.37593 -0.000179563   2.1843e-06      40.2515 
          20     0.394968 -0.000175613  1.90359e-06      40.2515 
          20     0.414461  -0.00017136  1.57883e-06      40.2515 
          20      0.43444 -0.000166937  1.20466e-06      40.2514 
          20     0.454872 -0.000162492  7.76236e-07      40.2514 
          20     0.475791 -0.000158149   2.8693e-07      40.2514 
          20     0.497163 -0.000154032 -2.68558e-07      40.2514 
          20     0.519021 -0.000150234 -8.97051e-07      40.2514 
          20      0.54135 -0.000146834 -1.60365e-06      40.2514 
          20     0.564131 -0.000143878 -2.39223e-06      40.2514 
          20       0.5874 -0.000141373 -3.26715e-06      40.2514 
          20     0.611121 -0.000139299 -4.22826e-06      40.2513 
          20      0.63533 -0.000137589 -5.27578e-06      40.2513 
          20      0.65999 -0.000136151 -6.40384e-06      40.2513 
          20     0.685139 -0.000134857 -7.60639e-06      40.2513 
          20     0.710759 -0.000133566 -8.87081e-06      40.2513 
          20     0.736828 -0.000132137 -1.01897e-05      40.2513 
          20     0.763387 -0.000130443 -1.15512e-05      40.2512 
          20     0.790396  -0.00012837  -1.2942e-05      40.2512 
          20     0.817896 -0.000125819 -1.43541e-05      40.2512 
          20     0.845843 -0.000122724 -1.57749e-05      40.2512 
          20     0.874283 -0.000119035 -1.71969e-05      40.2511 
          20      0.90317 -0.000114734 -1.86088e-05      40.2511 
          20     0.932551 -0.000109816 -2.00056e-05      40.2511 
          20     0.962401 -0.000104304 -2.13805e-05      40.2511 
          20     0.992697 -9.82411e-05 -2.27305e-05       40.251 
          20      1.02349 -9.16668e-05 -2.40575e-05       40.251 
          20      1.05472 -8.46367e-05 -2.53542e-05       40.251 
          20      1.08645 -7.71906e-05 -2.66216e-05      40.2509 
          20      1.11863 -6.93905e-05  -2.7856e-05      40.2509 
          20       1.1513 -6.12714e-05 -2.90566e-05      40.2509 
          20      1.18444 -5.28739e-05 -3.02233e-05      40.2508 
          20      1.21802 -4.42447e-05 -3.13553e-05      40.2508 
          20      1.25211 -3.54106e-05 -3.24519e-05      40.2507 
          20      1.28663 -2.64132e-05 -3.35114e-05      40.2507 
          20      1.32165 -1.72627e-05 -3.45344e-05      40.2507 
          20      1.35712 -7.99747e-06 -3.55174e-05      40.2506 
          20      1.39308  1.37545e-06 -3.64603e-05      40.2506 
          20      1.42951  1.08285e-05 -3.73612e-05      40.2505 
          20      1.46638  2.03339e-05 -3.82185e-05      40.2505 
          20      1.50375  2.98878e-05 -3.90331e-05      40.2504 
          20      1.54156  3.94551e-05 -3.98019e-05      40.2503 
          20      1.57987  4.90297e-05 -4.05216e-05      40.2503 
          20      1.61863  5.85787e-05 -4.11894e-05      40.2502 
          20      1.65788  6.81072e-05 -4.18163e-05      40.2502 
          20      1.69757  7.75665e-05 -4.23866e-05      40.2501 
          20      1.73776  8.69486e-05 -4.29028e-05        40.25 
          20      1.77842  9.62298e-05 -4.33639e-05        40.25 
          20      1.81952  0.000105378   -4.377e-05      40.2499 
          20      1.86113  0.000114379 -4.41243e-05      40.2498 
          20      1.90316   0.00012319 -4.44269e-05      40.2497 
          20      1.94571    0.0001318  -4.4678e-05      40.2497 
          20      1.98869  0.000140172 -4.48771e-05      40.2496 
          20      2.03217  0.000148296 -4.50244e-05      40.2495 
          20      2.07612  0.000156148 -4.51173e-05      40.2494 
          20      2.12051   0.00016369 -4.51538e-05      40.2493 
          20       2.1654  0.000170889 -4.51439e-05      40.2493 
          20      2.21073  0.000177717 -4.50873e-05      40.2492 
          20      2.25656  0.000184171 -4.49848e-05      40.2491 
          20      2.30283  0.000190232 -4.48381e-05       40.249 
          20       2.3496  0.000195897  -4.4648e-05      40.2489 
          20      2.39685  0.000201146 -4.44137e-05      40.2488 
          20      2.44452  0.000205953   -4.413e-05      40.2487 
          20      2.49271  0.000210325  -4.3791e-05      40.2486 
          20      2.54132  0.000214366 -4.34097e-05      40.2485 
          20      2.59044  0.000218003  -4.2954e-05      40.2483 
          20         2.64  0.000221279 -4.24218e-05      40.2482 
          20      2.69006   0.00022424 -4.18077e-05      40.2481 
          20      2.74056  0.000226916 -4.11078e-05       40.248 
          20      2.79156  0.000229349 -4.03259e-05      40.2479 
          20      2.84304  0.000231527 -3.94435e-05      40.2478 
          20      2.89494  0.000233462 -3.84624e-05      40.2476 
          20      2.94735  0.000235166 -3.73872e-05      40.2475 
          20       3.0002  0.000236638 -3.62291e-05      40.2474 
          20      3.05355  0.000237878 -3.49979e-05      40.2472 
          20      3.10733  0.000238872 -3.37096e-05      40.2471 
          20      3.16163   0.00023961 -3.23774e-05       40.247 
          20      3.21639  0.000240079 -3.10189e-05      40.2468 
          20      3.27158  0.000240271 -2.96521e-05      40.2467 
          20      3.32729  0.000240188 -2.82919e-05      40.2465 
          20      3.38342  0.000239851 -2.69575e-05      40.2464 
          20      3.44007  0.000239253 -2.56511e-05      40.2462 
          20      3.49714  0.000238397 -2.44046e-05      40.2461 
          20      3.55472  0.000237297 -2.32072e-05      40.2459 
          20      3.61273  0.000235976 -2.20597e-05      40.2457 
          20      3.67125  0.000234461  -2.0966e-05      40.2456 
          20      3.73025  0.000232784 -1.99331e-05      40.2454 
          20      3.78967   0.00023098 -1.89645e-05      40.2453 
          20      3.84961  0.000229074 -1.80546e-05      40.2451 
          20      3.90996  0.000227094 -1.71943e-05      40.2449 
          20      3.97084  0.000225056 -1.63657e-05      40.2447 
          20      4.03214  0.000222976 -1.55533e-05      40.2445 
          20      4.09395  0.000220854 -1.47458e-05      40.2444 
          20      4.15624  0.000218692 -1.39523e-05      40.2442 
          20      4.21895  0.000216667 -1.33019e-05       40.244 
          20      4.28217  0.000214678 -1.26716e-05      40.2438 
          20      4.34582  0.000212513 -1.19293e-05      40.2436 
          20      4.40998  0.000210436  -1.1271e-05      40.2434 
          20      4.47457  0.000208414 -1.06589e-05      40.2432 
          20      4.53968  0.000206419  -1.0068e-05       40.243 
          20      4.60525  0.000204442 -9.48687e-06      40.2428 
          20      4.67125  0.000202481 -8.91202e-06      40.2426 
          20      4.73777  0.000200538 -8.34418e-06      40.2424 
          20       4.8047  0.000198621 -7.78851e-06      40.2422 
          20      4.87216  0.000196735 -7.24882e-06       40.242 
          20      4.94003  0.000194889 -6.72927e-06      40.2418 
          20      5.00843  0.000193083 -6.22987e-06      40.2416 
          20      5.07724  0.000191321 -5.74937e-06      40.2413 
          20      5.14658  0.000189598 -5.28245e-06      40.2411 
          20      5.21639  0.000187908 -4.82392e-06      40.2409 
          20      5.28661  0.000186247    -4.37e-06      40.2407 
          20      5.35736  0.000184608 -3.92103e-06      40.2404 
          20      5.42852  0.000183007 -3.50718e-06      40.2402 
          20      5.50021  0.000181431 -3.07296e-06        40.24 
          20      5.57231  0.000179914 -2.68454e-06      40.2397 
          20      5.64493  0.000178437 -2.37392e-06      40.2395 
          20      5.71803  0.000176989 -2.05816e-06      40.2393 
          20      5.79154  0.000175551 -1.73499e-06       40.239 
          20      5.86558  0.000174144  -1.4134e-06      40.2388 
          20      5.94003  0.000172782 -1.10449e-06      40.2385 
          20      6.01501  0.000171465 -8.16372e-07      40.2383 
          20       6.0904  0.000170188 -5.53897e-07       40.238 
          20      6.16632  0.000168943 -3.15553e-07      40.2378 
          20      6.24271   0.00016772 -9.48422e-08      40.2375 
          20       6.3195  0.000166514   1.1927e-07      40.2373 
          20      6.39683  0.000165319  3.40256e-07       40.237 
          20      6.47457  0.000164134   5.7858e-07      40.2368 
          20      6.55284   0.00016296  8.37184e-07      40.2365 
          20      6.63152  0.000161801  1.10195e-06      40.2362 
          20      6.71073  0.000160657  1.33305e-06       40.236 
          20      6.79034  0.000159524  1.45085e-06      40.2357 
          20      6.87049  0.000158435  1.73162e-06      40.2354 
          20      6.95111   0.00015732  1.98283e-06      40.2352 
          20      7.03214  0.000156205  2.18374e-06      40.2349 
          20       7.1137  0.000155122  2.36862e-06      40.2346 
          20      7.19566  0.000154094  2.56131e-06      40.2343 
          20      7.27816  0.000153114  2.75988e-06      40.2341 
          20      7.36106  0.000152151  2.92494e-06      40.2338 
          20      7.44451  0.000151152  3.14321e-06      40.2335 
          20      7.52842  0.000150141  3.34746e-06      40.2332 
          20      7.61273  0.000149155  3.49635e-06      40.2329 
          20      7.69758  0.000148216  3.61543e-06      40.2326 
          20      7.78283  0.000147337  3.72723e-06      40.2324 
          20      7.86862  0.000146511  3.84793e-06      40.2321 
          20      7.95481  0.000145724  3.97817e-06      40.2318 
          20      8.04155  0.000144949  4.09035e-06      40.2315 
          20      8.12868  0.000144161  4.10917e-06      40.2312 
          20      8.21635  0.000143418  4.18794e-06      40.2309 
          20      8.30449   0.00014274  4.35153e-06      40.2306 
          20      8.39303  0.000142072  4.43542e-06      40.2303 
          20      8.48211  0.000141407  4.47816e-06        40.23 
          20      8.57159  0.000140747  4.50758e-06      40.2297 
          20      8.66161  0.000140093  4.54183e-06      40.2294 
          20      8.75203  0.000139449   4.5901e-06      40.2291 
          20      8.84299  0.000138819  4.65405e-06      40.2288 
          20      8.93443  0.000138204  4.72909e-06      40.2284 
          20      9.02626  0.000137607  4.80631e-06      40.2281 
          20      9.11863  0.000137027  4.87482e-06      40.2278 
          20      9.21139  0.000136462  4.92392e-06      40.2275 
          20      9.30471  0.000135909  4.94637e-06      40.2272 
          20      9.39841  0.000135365  4.94152e-06      40.2269 
          20      9.49267  0.000134827  4.91916e-06      40.2266 
          20      9.58739  0.000134296  4.90389e-06      40.2262 
          20      9.68251  0.000133779  4.93975e-06      40.2259 
          20      9.77817   0.00013329  5.09576e-06      40.2256 
          20      9.87422   0.00013285  5.20408e-06      40.2253 
          20      9.97083  0.000132413  5.08613e-06      40.2249 
          20      10.0678  0.000131927  4.85138e-06      40.2246 
          20      10.1654  0.000131452  4.83717e-06      40.2243 
          20      10.2633  0.000131011  4.93761e-06      40.2239 
          20      10.3618   0.00013059   5.0527e-06      40.2236 
          20      10.4607  0.000130194  5.18519e-06      40.2233 
          20      10.5601   0.00012982  5.33982e-06      40.2229 
          20        10.66  0.000129467  5.52299e-06      40.2226 
          20      10.7603  0.000129054  5.50885e-06      40.2223 
          20      10.8611  0.000128624  5.45538e-06      40.2219 
          20      10.9623  0.000128208  5.45096e-06      40.2216 
          20      11.0641  0.000127805  5.48189e-06      40.2212 
          20      11.1663  0.000127416  5.53471e-06      40.2209 
          20       11.269  0.000127042  5.59701e-06      40.2205 
          20      11.3721  0.000126685  5.65837e-06      40.2202 
          20      11.4757  0.000126343  5.71052e-06      40.2198 
          20      11.5798  0.000126015  5.74803e-06      40.2195 
          20      11.6844  0.000125698    5.768e-06      40.2191 
          20      11.7894  0.000125387  5.77014e-06      40.2188 
          20       11.895  0.000125079  5.75609e-06      40.2184 
          20      12.0009   0.00012477  5.72873e-06       40.218 
          20      12.1073  0.000124455  5.69086e-06      40.2177 
          20      12.2142  0.000124137  5.64386e-06      40.2173 
          20      12.3216   0.00012382   5.5855e-06       40.217 
          20      12.4294  0.000123517  5.50789e-06      40.2166 
          20      12.5378   0.00012322  5.35228e-06      40.2162 
          20      12.6465  0.000122938  5.25015e-06      40.2158 
          20      12.7558  0.000122673  5.18841e-06      40.2155 
          20      12.8656  0.000122417  5.13774e-06      40.2151 
          20      12.9757  0.000122166  5.08407e-06      40.2147 
          20      13.0864  0.000121917  5.02482e-06      40.2143 
          20      13.1975  0.000121673  4.96599e-06       40.214 
          20      13.3092  0.000121438  4.91887e-06      40.2136 
          20      13.4212  0.000121222  4.89814e-06      40.2132 
          20      13.5338  0.000121038   4.9198e-06      40.2128 
          20      13.6468  0.000120904  5.00021e-06      40.2124 
          20      13.7603  0.000120803  5.12554e-06       40.212 
          20      13.8743  0.000120722  5.23328e-06      40.2116 
          20      13.9886  0.000120649  5.32779e-06      40.2113 
          20      14.1036  0.000120577  5.42811e-06      40.2109 
          20      14.2189  0.000120502  5.55946e-06      40.2105 
          20      14.3348  0.000120429  5.74543e-06      40.2101 
          20       14.451   0.00012036  5.99569e-06      40.2097 
          20      14.5678  0.000120298  6.29282e-06      40.2093 
          20      14.6851  0.000120232  6.57333e-06      40.2088 
          20      14.8028  0.000120136  6.70722e-06      40.2084 
          20       14.921  0.000120112  6.94573e-06       40.208 
          20      15.0396  0.000120016  7.12697e-06      40.2076 
          20      15.1588  0.000119818  7.15054e-06      40.2072 
          20      15.2783  0.000119584  7.13383e-06      40.2068 
          20      15.3984  0.000119357  7.13801e-06      40.2064 
          20       15.519  0.000119162  7.18507e-06      40.2059 
          20        15.64  0.000119013  7.27572e-06      40.2055 
          20      15.7615  0.000118899  7.36343e-06      40.2051 
          20      15.8834  0.000118829  7.36118e-06      40.2047 
          20      16.0058  0.000118787  7.31544e-06      40.2042 
          20      16.1286  0.000118754  7.26654e-06      40.2038 
          20       16.252  0.000118719  7.24146e-06      40.2034 
          20      16.3759  0.000118673  7.25318e-06      40.2029 
          20      16.5002  0.000118617  7.30088e-06      40.2025 
          20       16.625  0.000118557  7.37227e-06       40.202 
          20      16.7501  0.000118502  7.44707e-06      40.2016 
          20      16.8759  0.000118466  7.50303e-06      40.2012 
          20       17.002  0.000118457  7.52309e-06      40.2007 
          20      17.1287  0.000118478  7.50541e-06      40.2002 
          20      17.2557  0.000118513  7.47518e-06      40.1998 
          20      17.3834  0.000118523  7.49896e-06      40.1993 
          20      17.5115  0.000118433  7.70178e-06      40.1989 
          20      17.6399   0.00011828  8.03044e-06      40.1984 
          20       17.769  0.000118315  8.07575e-06      40.1979 
          20      17.8984  0.000118251  8.25385e-06      40.1975 
          20      18.0284  0.000118114  8.50314e-06       40.197 
          20      18.1587  0.000117938  8.77086e-06      40.1965 
          20      18.2896  0.000117758  9.01531e-06       40.196 
          20       18.421  0.000117606  9.20563e-06      40.1956 
          20      18.5528  0.000117512  9.32402e-06      40.1951 
          20      18.6851  0.000117489  9.36755e-06      40.1946 
          20      18.8178  0.000117537  9.34961e-06      40.1941 
          20      18.9511  0.000117625  9.30253e-06      40.1936 
          20      19.0847  0.000117691  9.28025e-06      40.1931 
          20      19.2189  0.000117626  9.36118e-06      40.1926 
          20      19.3535  0.000117542  9.36075e-06      40.1921 
          20      19.4886  0.000117487  9.30358e-06      40.1916 
          20      19.6242  0.000117452  9.21354e-06      40.1911 
          20      19.7602  0.000117427  9.11078e-06      40.1906 
          20      19.8968  0.000117395  9.01263e-06      40.1901 
          20      20.0337   0.00011734  8.93345e-06      40.1896 
          20      20.1712  0.000117247  8.88328e-06       40.189 
          20      20.3091  0.000117105  8.86733e-06      40.1885 
          20      20.4475  0.000116912  8.88451e-06       40.188 
          20      20.5864  0.000116681  8.92631e-06      40.1875 
          20      20.7257  0.000116442   8.9752e-06      40.1869 
          20      20.8655  0.000116254  9.00312e-06      40.1864 
          20      21.0058   0.00011621  8.96943e-06      40.1858 
          20      21.1465  0.000116445  8.81883e-06      40.1853 
          20      21.2877  0.000117148  8.47948e-06      40.1848 
          20      21.4294  0.000116743  8.67775e-06      40.1842 
          20      21.5716  0.000116452  8.93225e-06      40.1836 
          20      21.7142  0.000116306  9.17905e-06      40.1831 
          20      21.8573  0.000116252  9.40146e-06      40.1825 
          20      22.0008   0.00011625  9.58823e-06       40.182 
          20      22.1449  0.000116271  9.73391e-06      40.1814 
          20      22.2893  0.000116293  9.83686e-06      40.1808 
          20      22.4344  0.000116303  9.89929e-06      40.1802 
          20      22.5797  0.000116294  9.92578e-06      40.1797 
          20      22.7257  0.000116264  9.92291e-06      40.1791 
          20      22.8721  0.000116214  9.89838e-06      40.1785 
          20      23.0189   0.00011615  9.86044e-06      40.1779 
          20      23.1663  0.000116077  9.81714e-06      40.1773 
          20       23.314  0.000116003  9.77603e-06      40.1767 
          20      23.4623  0.000115934  9.74347e-06      40.1761 
          20       23.611  0.000115876  9.72446e-06      40.1755 
          20      23.7602  0.000115835  9.72219e-06      40.1749 
          20        23.91  0.000115814  9.73799e-06      40.1743 
          20        24.06  0.000115813  9.77111e-06      40.1737 
          20      24.2107  0.000115833  9.81885e-06       40.173 
          20      24.3617  0.000115869  9.87653e-06      40.1724 
          20      24.5133  0.000115917  9.93801e-06      40.1718 
          20      24.6653  0.000115971  9.99569e-06      40.1712 
          20      24.8178  0.000116021  1.00415e-05      40.1705 
          20      24.9708  0.000116061  1.00669e-05      40.1699 
          20      25.1242  0.000116083  1.00646e-05      40.1692 
          20      25.2781  0.000116082  1.00286e-05      40.1686 
          20      25.4324  0.000116057  9.95596e-06      40.1679 
          20      25.5873  0.000116011  9.84788e-06      40.1673 
          20      25.7426  0.000115956  9.71143e-06      40.1666 
          20      25.8984  0.000115912  9.56075e-06      40.1659 
          20      26.0546  0.000115912  9.41977e-06      40.1653 
          20      26.2114  0.000115986  9.48558e-06      40.1646 
          20      26.3686  0.000116038  1.01217e-05      40.1639 
          20      26.5262   0.00011601  1.08216e-05      40.1632 
          20      26.6844  0.000115816   1.1509e-05      40.1625 
          20      26.8429  0.000116056   1.1085e-05      40.1618 
          20       27.002  0.000116266  1.07446e-05      40.1611 
          20      27.1615  0.000116385  1.05478e-05      40.1604 
          20      27.3216  0.000116397  1.04916e-05      40.1597 
          20      27.4821  0.000116258  1.05585e-05       40.159 
          20       27.643  0.000115993  1.06733e-05      40.1583 
          20      27.8044  0.000115763  1.08109e-05      40.1576 
          20      27.9663  0.000115579  1.09587e-05      40.1569 
          20      28.1287  0.000115445  1.11074e-05      40.1561 
          20      28.2914   0.00011536  1.12502e-05      40.1554 
          20      28.4548  0.000115318  1.13828e-05      40.1547 
          20      28.6185  0.000115309  1.15023e-05      40.1539 
          20      28.7828  0.000115321  1.16079e-05      40.1532 
          20      28.9475  0.000115344  1.16994e-05      40.1524 
          20      29.1126  0.000115366  1.17776e-05      40.1517 
          20      29.2784  0.000115378  1.18441e-05      40.1509 
          20      29.4444  0.000115371  1.19003e-05      40.1501 
          20       29.611  0.000115341  1.19482e-05      40.1494 
          20       29.778  0.000115286  1.19893e-05      40.1486 
          20      29.9456  0.000115207  1.20251e-05      40.1478 
          20      30.1137   0.00011511  1.20567e-05       40.147 
          20      30.2821  0.000115001  1.20848e-05      40.1462 
          20      30.4511   0.00011489  1.21097e-05      40.1454 
          20      30.6204  0.000114789  1.21315e-05      40.1446 
          20      30.7903   0.00011471  1.21498e-05      40.1438 
          20      30.9606  0.000114663  1.21643e-05       40.143 
          20      31.1315  0.000114657  1.21748e-05      40.1422 
          20      31.3028  0.000114697  1.21815e-05      40.1414 
          20      31.4745  0.000114781  1.21854e-05      40.1405 
          20      31.6468  0.000114896  1.21887e-05      40.1397 
          20      31.8194  0.000115019  1.21952e-05      40.1389 
          20      31.9926   0.00011511  1.22111e-05       40.138 
          20      32.1662  0.000115111  1.22454e-05      40.1372 
          20      32.3404  0.000114939  1.23106e-05      40.1363 
          20      32.5149  0.000114609  1.23366e-05      40.1355 
          20        32.69   0.00011444  1.23309e-05      40.1346 
          20      32.8655  0.000114374   1.2318e-05      40.1338 
          20      33.0414  0.000114357  1.23131e-05      40.1329 
          20       33.218  0.000114351  1.23261e-05       40.132 
          20      33.3948  0.000114332   1.2363e-05      40.1311 
          20      33.5723   0.00011429  1.24253e-05      40.1302 
          20        33.75  0.000114225   1.2511e-05      40.1294 
          20      33.9284  0.000114143  1.26147e-05      40.1285 
          20      34.1073  0.000114061   1.2728e-05      40.1276 
          20      34.2865  0.000113997    1.284e-05      40.1266 
          20      34.4663  0.000113976  1.29377e-05      40.1257 
          20      34.6465  0.000114021  1.30065e-05      40.1248 
          20      34.8272  0.000114156  1.30305e-05      40.1239 
          20      35.0083  0.000114403  1.29935e-05       40.123 
          20        35.19  0.000114782  1.28787e-05       40.122 
          20      35.3721  0.000115305  1.26703e-05      40.1211 
          20      35.5546  0.000115216  1.28287e-05      40.1201 
          20      35.7377  0.000114795  1.31412e-05      40.1192 
          20      35.9211  0.000114428  1.33689e-05      40.1182 
          20      36.1052  0.000114121  1.35209e-05      40.1173 
          20      36.2895  0.000113877  1.36074e-05      40.1163 
          20      36.4745  0.000113697  1.36406e-05      40.1153 
          20      36.6598   0.00011358  1.36333e-05      40.1144 
          20      36.8457  0.000113522  1.35988e-05      40.1134 
          20      37.0321  0.000113516  1.35507e-05      40.1124 
          20      37.2188  0.000113553  1.35016e-05      40.1114 
          20      37.4062  0.000113622  1.34631e-05      40.1104 
          20      37.5938   0.00011371  1.34449e-05      40.1094 
          20      37.7821  0.000113799  1.34541e-05      40.1084 
          20      37.9707   0.00011387  1.34946e-05      40.1074 
          20      38.1599  0.000113901  1.35666e-05      40.1064 
          20      38.3496  0.000113869  1.36651e-05      40.1053 
          20      38.5396  0.000113747  1.37798e-05      40.1043 
          20      38.7302  0.000113505  1.38941e-05      40.1033 
          20      38.9211  0.000113111  1.39838e-05      40.1022 
          20      39.1127  0.000112679  1.40806e-05      40.1012 
          20      39.3046  0.000112633  1.42641e-05      40.1001 
          20      39.4971  0.000112625   1.4354e-05      40.0991 
          20      39.6899  0.000112634  1.43718e-05       40.098 
          20      39.8833  0.000112646  1.43371e-05      40.0969 
          20      40.0772  0.000112648  1.42667e-05      40.0959 
          20      40.2714  0.000112632  1.41749e-05      40.0948 
          20      40.4663  0.000112593  1.40725e-05      40.0937 
          20      40.6615  0.000112531  1.39681e-05      40.0926 
          20      40.8573  0.000112449   1.3867e-05      40.0915 
          20      41.0534  0.000112352  1.37729e-05      40.0904 
          20      41.2501  0.000112248  1.36876e-05      40.0893 
          20      41.4473  0.000112146  1.36126e-05      40.0882 
          20      41.6448  0.000112059    1.355e-05      40.0871 
          20      41.8429  0.000111995  1.35038e-05      40.0859 
          20      42.0414  0.000111964  1.34816e-05      40.0848 
          20      42.2405  0.000111971  1.34967e-05      40.0837 
          20      42.4399  0.000112016  1.35701e-05      40.0825 
          20      42.6399  0.000112094   1.3733e-05      40.0814 
          20      42.8404  0.000112188  1.40298e-05      40.0802 
          20      43.0412  0.000112274  1.45206e-05      40.0791 
          20      43.2426  0.000112214  1.46822e-05      40.0779 
          20      43.4444  0.000112013  1.42396e-05      40.0767 
          20      43.6467  0.000111826  1.39096e-05      40.0756 
          20      43.8494  0.000111658  1.36738e-05      40.0744 
          20      44.0527   0.00011151  1.35153e-05      40.0732 
          20      44.2563  0.000111385  1.34194e-05       40.072 
          20      44.4606  0.000111282   1.3373e-05      40.0708 
          20      44.6653    0.0001112  1.33646e-05      40.0696 
          20      44.8704  0.000111136  1.33845e-05      40.0684 
          20       45.076   0.00011109  1.34242e-05      40.0672 
          20       45.282  0.000111057  1.34765e-05       40.066 
          20      45.4886  0.000111034  1.35358e-05      40.0647 
          20      45.6955  0.000111018  1.35971e-05      40.0635 
          20       45.903  0.000111006  1.36568e-05      40.0623 
          20      46.1111  0.000110994  1.37121e-05       40.061 
          20      46.3194  0.000110978  1.37609e-05      40.0598 
          20      46.5283  0.000110957   1.3802e-05      40.0585 
          20      46.7376  0.000110926  1.38347e-05      40.0573 
          20      46.9475  0.000110885  1.38589e-05       40.056 
          20      47.1577  0.000110832  1.38749e-05      40.0548 
          20      47.3685  0.000110765  1.38833e-05      40.0535 
          20      47.5798  0.000110685  1.38851e-05      40.0522 
          20      47.7914  0.000110591  1.38815e-05      40.0509 
          20      48.0037  0.000110485  1.38735e-05      40.0496 