Variables = x, y, u, v, p

Zone, I=800, F=POINT
         500            0           -0           -0      40.2621 
         500     0.000234  6.65047e-06   1.2084e-11      40.2621 
         500     0.000939  2.50825e-05  1.95437e-10      40.2621 
         500     0.002113  5.08616e-05  9.89175e-10      40.2621 
         500     0.003759  7.80715e-05  3.12532e-09      40.2621 
         500     0.005872  0.000100712  7.60791e-09      40.2621 
         500     0.008457  0.000114612  1.57317e-08      40.2621 
         500      0.01151  0.000118378  2.90308e-08      40.2621 
         500     0.015036  0.000113816  4.93234e-08      40.2621 
         500     0.019031  0.000105165  7.86145e-08      40.2621 
         500     0.023493    9.743e-05  1.19111e-07      40.2621 
         500     0.028429    9.424e-05  1.73294e-07      40.2621 
         500     0.033831  9.60962e-05  2.43647e-07      40.2621 
         500     0.039706  9.98663e-05  3.32955e-07      40.2621 
         500     0.046047  0.000100374  4.43899e-07      40.2621 
         500     0.052863  9.41075e-05  5.79484e-07      40.2621 
         500      0.06015  8.35407e-05  7.42518e-07      40.2621 
         500       0.0679  7.78439e-05  9.35638e-07      40.2621 
         500     0.076126  8.13753e-05  1.16194e-06      40.2621 
         500     0.084816  6.60695e-05  1.42375e-06      40.2621 
         500     0.093982  6.20198e-05  1.72396e-06      40.2621 
         500     0.103611  5.47523e-05  2.06447e-06      40.2621 
         500     0.113718  4.55267e-05  2.44789e-06      40.2621 
         500     0.124286  3.52813e-05  2.87541e-06      40.2621 
         500     0.135333  2.45349e-05  3.34927e-06      40.2621 
         500      0.14685  1.34737e-05  3.87033e-06      40.2621 
         500     0.158827  2.02385e-06  4.43897e-06      40.2621 
         500     0.171284 -1.00225e-05   5.0566e-06      40.2621 
         500     0.184201 -2.27583e-05  5.72235e-06      40.2621 
         500     0.197599 -3.60874e-05  6.43702e-06      40.2621 
         500     0.211455 -4.96062e-05  7.19873e-06      40.2621 
         500     0.225792 -6.29026e-05  8.00772e-06      40.2621 
         500       0.2406 -7.61166e-05  8.86214e-06      40.2621 
         500     0.255865 -9.00703e-05  9.75956e-06      40.2621 
         500     0.271613 -0.000103353  1.06993e-05      40.2621 
         500     0.287818 -0.000116474  1.16777e-05      40.2621 
         500     0.304506 -0.000129335   1.2694e-05      40.2621 
         500      0.32165 -0.000141811  1.37439e-05      40.2621 
         500     0.339278 -0.000153832  1.48265e-05      40.2621 
         500     0.357377 -0.000165313  1.59382e-05      40.2621 
         500      0.37593 -0.000176183   1.7075e-05      40.2621 
         500     0.394968 -0.000186415   1.8236e-05      40.2621 
         500     0.414461 -0.000195958  1.94165e-05      40.2621 
         500      0.43444 -0.000204806  2.06159e-05      40.2621 
         500     0.454872 -0.000212929  2.18294e-05      40.2621 
         500     0.475791  -0.00022033  2.30569e-05      40.2621 
         500     0.497163 -0.000226994  2.42942e-05      40.2621 
         500     0.519021 -0.000232929  2.55411e-05      40.2621 
         500      0.54135 -0.000238135  2.67952e-05      40.2621 
         500     0.564131 -0.000242621  2.80535e-05      40.2621 
         500       0.5874 -0.000246429  2.93162e-05      40.2621 
         500     0.611121 -0.000249609  3.05795e-05      40.2621 
         500      0.63533 -0.000252132  3.18465e-05      40.2621 
         500      0.65999 -0.000254059  3.31133e-05      40.2621 
         500     0.685139  -0.00025542  3.43814e-05      40.2621 
         500     0.710759 -0.000256241  3.56492e-05      40.2621 
         500     0.736828 -0.000256551  3.69151e-05      40.2621 
         500     0.763387 -0.000256379  3.81809e-05      40.2621 
         500     0.790396  -0.00025575  3.94442e-05      40.2621 
         500     0.817896 -0.000254692  4.07069e-05      40.2621 
         500     0.845843 -0.000253231  4.19667e-05      40.2621 
         500     0.874283 -0.000251389  4.32256e-05      40.2621 
         500      0.90317 -0.000249192  4.44814e-05      40.2621 
         500     0.932551 -0.000246657  4.57362e-05      40.2621 
         500     0.962401 -0.000243807  4.69885e-05      40.2621 
         500     0.992697 -0.000240663  4.82374e-05      40.2621 
         500      1.02349 -0.000237235  4.94845e-05      40.2621 
         500      1.05472 -0.000233546  5.07275e-05      40.2621 
         500      1.08645 -0.000229603   5.1968e-05      40.2621 
         500      1.11863 -0.000225427  5.32034e-05      40.2621 
         500       1.1513 -0.000221022   5.4435e-05      40.2621 
         500      1.18444 -0.000216403  5.56611e-05      40.2621 
         500      1.21802 -0.000211585  5.68797e-05      40.2621 
         500      1.25211 -0.000206571  5.80921e-05      40.2621 
         500      1.28663 -0.000201378   5.9295e-05      40.2621 
         500      1.32165 -0.000196008  6.04899e-05      40.2621 
         500      1.35712 -0.000190479  6.16738e-05      40.2621 
         500      1.39308  -0.00018479  6.28482e-05      40.2621 
         500      1.42951 -0.000178955  6.40122e-05      40.2621 
         500      1.46638 -0.000172984  6.51655e-05      40.2621 
         500      1.50375 -0.000166871  6.63113e-05      40.2621 
         500      1.54156 -0.000160591  6.74552e-05      40.2621 
         500      1.57987   -0.0001542  6.85747e-05      40.2621 
         500      1.61863 -0.000147711  6.96683e-05      40.2621 
         500      1.65788 -0.000141113  7.07387e-05      40.2621 
         500      1.69757 -0.000134416  7.17847e-05      40.2621 
         500      1.73776 -0.000127609  7.28084e-05      40.2621 
         500      1.77842 -0.000120698   7.3809e-05      40.2621 
         500      1.81952 -0.000113689  7.47854e-05      40.2621 
         500      1.86113 -0.000106573  7.57388e-05      40.2621 
         500      1.90316 -9.93619e-05  7.66667e-05      40.2621 
         500      1.94571 -9.20475e-05  7.75696e-05      40.2621 
         500      1.98869 -8.46446e-05  7.84447e-05      40.2621 
         500      2.03217 -7.71451e-05  7.92921e-05      40.2621 
         500      2.07612 -6.95596e-05  8.01093e-05      40.2621 
         500      2.12051 -6.18997e-05  8.08939e-05      40.2621 
         500       2.1654 -5.41595e-05  8.16452e-05      40.2621 
         500      2.21073 -4.63583e-05  8.23602e-05      40.2621 
         500      2.25656 -3.84919e-05  8.30381e-05      40.2621 
         500      2.30283 -3.05815e-05  8.36757e-05      40.2621 
         500       2.3496 -2.26247e-05  8.42722e-05      40.2621 
         500      2.39685 -1.46383e-05  8.48253e-05      40.2621 
         500      2.44452 -6.64065e-06  8.53331e-05      40.2621 
         500      2.49271  1.36809e-06  8.57949e-05      40.2621 
         500      2.54132  9.36182e-06  8.62087e-05      40.2621 
         500      2.59044  1.73386e-05  8.65744e-05      40.2621 
         500         2.64  2.52705e-05  8.68907e-05      40.2621 
         500      2.69006  3.31536e-05  8.71578e-05      40.2621 
         500      2.74056  4.09587e-05  8.73753e-05      40.2621 
         500      2.79156  4.86806e-05   8.7544e-05      40.2621 
         500      2.84304  5.62949e-05  8.76643e-05      40.2621 
         500      2.89494  6.37774e-05  8.77372e-05      40.2621 
         500      2.94735  7.11215e-05  8.77642e-05      40.2621 
         500       3.0002  7.82966e-05  8.77468e-05      40.2621 
         500      3.05355  8.52958e-05  8.76865e-05      40.2621 
         500      3.10733  9.20901e-05  8.75851e-05      40.2621 
         500      3.16163  9.86731e-05  8.74441e-05      40.2621 
         500      3.21639  0.000105023  8.72649e-05      40.2621 
         500      3.27158  0.000111121  8.70486e-05      40.2621 
         500      3.32729  0.000116963  8.67952e-05      40.2621 
         500      3.38342   0.00012253  8.65041e-05      40.2621 
         500      3.44007  0.000127824   8.6173e-05      40.2621 
         500      3.49714  0.000132831  8.57987e-05      40.2621 
         500      3.55472  0.000137559  8.53749e-05      40.2621 
         500      3.61273  0.000142007  8.48939e-05      40.2621 
         500      3.67125  0.000146191  8.43434e-05      40.2621 
         500      3.73025  0.000150124  8.37084e-05      40.2621 
         500      3.78967  0.000153899  8.31624e-05      40.2621 
         500      3.84961  0.000157429   8.2642e-05      40.2621 
         500      3.90996  0.000160678  8.20708e-05      40.2621 
         500      3.97084  0.000163675  8.14583e-05      40.2621 
         500      4.03214  0.000166434  8.08144e-05      40.2621 
         500      4.09395  0.000168979  8.01461e-05      40.2621 
         500      4.15624  0.000171322  7.94604e-05      40.2621 
         500      4.21895  0.000173478  7.87633e-05      40.2621 
         500      4.28217  0.000175464  7.80583e-05      40.2621 
         500      4.34582  0.000177286    7.735e-05      40.2621 
         500      4.40998  0.000178922  7.66268e-05      40.2621 
         500      4.47457  0.000180412  7.58903e-05      40.2621 
         500      4.53968  0.000181773  7.51433e-05      40.2621 
         500      4.60525  0.000183008  7.43882e-05      40.2621 
         500      4.67125   0.00018412  7.36269e-05      40.2621 
         500      4.73777  0.000185113  7.28594e-05      40.2621 
         500       4.8047  0.000185986  7.20876e-05      40.2621 
         500      4.87216  0.000186743  7.13112e-05      40.2621 
         500      4.94003  0.000187384   7.0532e-05      40.2621 
         500      5.00843  0.000187912   6.9749e-05      40.2621 
         500      5.07724  0.000188326  6.89641e-05      40.2621 
         500      5.14658   0.00018863  6.81761e-05      40.2621 
         500      5.21639  0.000188825  6.73861e-05      40.2621 
         500      5.28661  0.000188914  6.65949e-05      40.2621 
         500      5.35736    0.0001889  6.58015e-05      40.2621 
         500      5.42852  0.000188788  6.50077e-05      40.2621 
         500      5.50021  0.000188582  6.42124e-05      40.2621 
         500      5.57231  0.000188287  6.34174e-05      40.2621 
         500      5.64493  0.000187911   6.2622e-05      40.2621 
         500      5.71803   0.00018746  6.18274e-05      40.2621 
         500      5.79154  0.000186942   6.1035e-05      40.2621 
         500      5.86558  0.000186367  6.02442e-05      40.2621 
         500      5.94003  0.000185744  5.94569e-05      40.2621 
         500      6.01501  0.000185081  5.86727e-05      40.2621 
         500       6.0904  0.000184389  5.78934e-05      40.2621 
         500      6.16632  0.000183676  5.71183e-05      40.2621 
         500      6.24271  0.000182952  5.63482e-05      40.2621 
         500       6.3195  0.000182225  5.55838e-05      40.2621 
         500      6.39683  0.000181499  5.48234e-05      40.2621 
         500      6.47457   0.00018078  5.40671e-05      40.2621 
         500      6.55284  0.000180066  5.33122e-05      40.2621 
         500      6.63152  0.000179356   5.2557e-05      40.2621 
         500      6.71073   0.00017856  5.18063e-05      40.2621 
         500      6.79034  0.000177747  5.10598e-05      40.2621 
         500      6.87049  0.000176943  5.03151e-05      40.2621 
         500      6.95111  0.000176147  4.95739e-05      40.2621 
         500      7.03214  0.000175357  4.88381e-05      40.2621 
         500       7.1137  0.000174571  4.81076e-05      40.2621 
         500      7.19566  0.000173788  4.73847e-05      40.2621 
         500      7.27816  0.000173008   4.6669e-05      40.2621 
         500      7.36106  0.000172231  4.59626e-05      40.2621 
         500      7.44451  0.000171457  4.52646e-05      40.2621 
         500      7.52842  0.000170686  4.45761e-05      40.2621 
         500      7.61273  0.000169919  4.38975e-05      40.2621 
         500      7.69758  0.000169155  4.32276e-05      40.2621 
         500      7.78283  0.000168397   4.2567e-05      40.2621 
         500      7.86862  0.000167644  4.19137e-05      40.2621 
         500      7.95481  0.000166897  4.12678e-05      40.2621 
         500      8.04155  0.000166155  4.06272e-05      40.2621 
         500      8.12868   0.00016542  3.99915e-05      40.2621 
         500      8.21635  0.000164691  3.93581e-05      40.2621 
         500      8.30449  0.000163968  3.87262e-05      40.2621 
         500      8.39303  0.000163251  3.80948e-05      40.2621 
         500      8.48211  0.000162541  3.74618e-05      40.2621 
         500      8.57159  0.000161837  3.68274e-05      40.2621 
         500      8.66161  0.000161139  3.61903e-05      40.2621 
         500      8.75203  0.000160448  3.55518e-05      40.2621 
         500      8.84299  0.000159764  3.49123e-05      40.2621 
         500      8.93443  0.000159087  3.42747e-05      40.2622 
         500      9.02626  0.000158421  3.36435e-05      40.2622 
         500      9.11863  0.000157764  3.30506e-05      40.2622 
         500      9.21139  0.000157099  3.26418e-05      40.2622 
         500      9.30471  0.000156442  3.22084e-05      40.2622 
         500      9.39841  0.000155795  3.17486e-05      40.2622 
         500      9.49267  0.000155153  3.12584e-05      40.2622 
         500      9.58739  0.000154508  3.07336e-05      40.2622 
         500      9.68251  0.000153848    3.017e-05      40.2622 
         500      9.77817   0.00015315  2.95615e-05      40.2622 
         500      9.87422  0.000152409  2.89223e-05      40.2622 
         500      9.97083  0.000151904  2.84826e-05      40.2622 
         500      10.0678  0.000151401  2.80529e-05      40.2622 
         500      10.1654  0.000150893  2.76272e-05      40.2622 
         500      10.2633  0.000150375  2.72026e-05      40.2622 
         500      10.3618  0.000149844  2.67756e-05      40.2622 
         500      10.4607  0.000149298  2.63452e-05      40.2622 
         500      10.5601  0.000148741  2.59109e-05      40.2622 
         500        10.66  0.000148171  2.54723e-05      40.2622 
         500      10.7603  0.000147595  2.50307e-05      40.2622 
         500      10.8611  0.000147013  2.45867e-05      40.2622 
         500      10.9623  0.000146431  2.41427e-05      40.2622 
         500      11.0641  0.000145852  2.36998e-05      40.2622 
         500      11.1663   0.00014528  2.32604e-05      40.2622 
         500       11.269  0.000144719  2.28268e-05      40.2622 
         500      11.3721  0.000144172  2.24002e-05      40.2622 
         500      11.4757   0.00014364  2.19832e-05      40.2622 
         500      11.5798  0.000143126  2.15767e-05      40.2622 
         500      11.6844  0.000142629  2.11825e-05      40.2622 
         500      11.7894  0.000142148  2.08012e-05      40.2622 
         500       11.895  0.000141682   2.0423e-05      40.2622 
         500      12.0009  0.000141214  2.00528e-05      40.2622 
         500      12.1073  0.000140743  1.96991e-05      40.2622 
         500      12.2142  0.000140271  1.93604e-05      40.2622 
         500      12.3216  0.000139802  1.90328e-05      40.2622 
         500      12.4294   0.00013934  1.87132e-05      40.2622 
         500      12.5378  0.000138887  1.83972e-05      40.2622 
         500      12.6465  0.000138443  1.80823e-05      40.2622 
         500      12.7558  0.000138006  1.77664e-05      40.2622 
         500      12.8656  0.000137568  1.74512e-05      40.2622 
         500      12.9757  0.000137121   1.7142e-05      40.2622 
         500      13.0864  0.000136642  1.68486e-05      40.2622 
         500      13.1975  0.000136108  1.65891e-05      40.2622 
         500      13.3092  0.000135599   1.6313e-05      40.2622 
         500      13.4212  0.000135386  1.58409e-05      40.2622 
         500      13.5338  0.000135114  1.53596e-05      40.2622 
         500      13.6468    0.0001347  1.49671e-05      40.2622 
         500      13.7603  0.000134109  1.48884e-05      40.2622 
         500      13.8743  0.000133591   1.4725e-05      40.2622 
         500      13.9886  0.000133133  1.45015e-05      40.2622 
         500      14.1036  0.000132719  1.42381e-05      40.2622 
         500      14.2189  0.000132339  1.39523e-05      40.2622 
         500      14.3348  0.000131982  1.36577e-05      40.2622 
         500       14.451  0.000131642  1.33658e-05      40.2622 
         500      14.5678   0.00013131  1.30844e-05      40.2622 
         500      14.6851  0.000130981  1.28198e-05      40.2622 
         500      14.8028  0.000130652  1.25757e-05      40.2622 
         500       14.921   0.00013032  1.23538e-05      40.2622 
         500      15.0396  0.000129982  1.21545e-05      40.2622 
         500      15.1588  0.000129638  1.19763e-05      40.2622 
         500      15.2783  0.000129286  1.18172e-05      40.2622 
         500      15.3984  0.000128928  1.16736e-05      40.2622 
         500       15.519  0.000128563  1.15418e-05      40.2622 
         500        15.64  0.000128194  1.14174e-05      40.2622 
         500      15.7615   0.00012782  1.12956e-05      40.2622 
         500      15.8834  0.000127445   1.1172e-05      40.2622 
         500      16.0058   0.00012707  1.10326e-05      40.2622 
         500      16.1286  0.000126705  1.08558e-05      40.2622 
         500       16.252  0.000126353  1.06674e-05      40.2622 
         500      16.3759  0.000126018  1.04674e-05      40.2622 
         500      16.5002    0.0001257  1.02569e-05      40.2622 
         500       16.625  0.000125399  1.00374e-05      40.2622 
         500      16.7501  0.000125117  9.81205e-06      40.2622 
         500      16.8759  0.000124851  9.58429e-06      40.2622 
         500       17.002  0.000124601  9.35888e-06      40.2622 
         500      17.1287  0.000124364  9.14043e-06      40.2622 
         500      17.2557  0.000124139  8.93442e-06      40.2622 
         500      17.3834  0.000123921  8.74557e-06      40.2622 
         500      17.5115  0.000123706   8.5785e-06      40.2622 
         500      17.6399  0.000123491   8.4367e-06      40.2622 
         500       17.769  0.000123272  8.32165e-06      40.2622 
         500      17.8984  0.000123044  8.23284e-06      40.2622 
         500      18.0284  0.000122804  8.16629e-06      40.2622 
         500      18.1587  0.000122547  8.11421e-06      40.2622 
         500      18.2896  0.000122271  8.06355e-06      40.2622 
         500       18.421  0.000121975  7.99519e-06      40.2622 
         500      18.5528  0.000121657  7.88264e-06      40.2622 
         500      18.6851  0.000121321  7.69036e-06      40.2622 
         500      18.8178  0.000120968  7.37302e-06      40.2622 
         500      18.9511  0.000120607  6.87252e-06      40.2622 
         500      19.0847  0.000120309  6.88634e-06      40.2622 
         500      19.2189  0.000120089  6.95223e-06      40.2622 
         500      19.3535  0.000119947  6.90517e-06      40.2622 
         500      19.4886  0.000119884  6.76805e-06      40.2622 
         500      19.6242  0.000119805  6.65656e-06      40.2622 
         500      19.7602  0.000119671  6.55147e-06      40.2622 
         500      19.8968  0.000119498  6.45052e-06      40.2622 
         500      20.0337  0.000119302  6.35239e-06      40.2622 
         500      20.1712  0.000119093  6.25593e-06      40.2622 
         500      20.3091   0.00011888  6.16077e-06      40.2622 
         500      20.4475  0.000118668  6.06659e-06      40.2622 
         500      20.5864  0.000118464  5.97357e-06      40.2622 
         500      20.7257  0.000118268  5.88215e-06      40.2622 
         500      20.8655  0.000118084  5.79267e-06      40.2622 
         500      21.0058  0.000117911  5.70588e-06      40.2622 
         500      21.1465  0.000117748  5.62226e-06      40.2622 
         500      21.2877  0.000117594  5.54257e-06      40.2622 
         500      21.4294  0.000117448  5.46722e-06      40.2622 
         500      21.5716  0.000117305  5.39672e-06      40.2622 
         500      21.7142  0.000117166  5.33139e-06      40.2622 
         500      21.8573  0.000117026  5.27127e-06      40.2622 
         500      22.0008  0.000116884  5.21634e-06      40.2622 
         500      22.1449  0.000116738  5.16624e-06      40.2622 
         500      22.2893  0.000116586  5.12052e-06      40.2622 
         500      22.4344  0.000116428  5.07836e-06      40.2622 
         500      22.5797  0.000116264  5.03891e-06      40.2622 
         500      22.7257  0.000116093  5.00096e-06      40.2622 
         500      22.8721  0.000115918  4.96327e-06      40.2622 
         500      23.0189   0.00011574   4.9245e-06      40.2622 
         500      23.1663  0.000115561  4.88317e-06      40.2622 
         500       23.314  0.000115384  4.83792e-06      40.2622 
         500      23.4623  0.000115214   4.7874e-06      40.2622 
         500       23.611  0.000115053   4.7306e-06      40.2622 
         500      23.7602  0.000114907  4.66666e-06      40.2622 
         500        23.91  0.000114778   4.5953e-06      40.2622 
         500        24.06  0.000114672  4.51688e-06      40.2622 
         500      24.2107   0.00011459  4.43232e-06      40.2622 
         500      24.3617  0.000114535  4.34375e-06      40.2622 
         500      24.5133  0.000114509  4.25416e-06      40.2622 
         500      24.6653  0.000114508  4.16823e-06      40.2622 
         500      24.8178  0.000114532  4.09198e-06      40.2622 
         500      24.9708  0.000114572  4.03351e-06      40.2622 
         500      25.1242  0.000114618  4.00308e-06      40.2622 
         500      25.2781  0.000114601  4.01473e-06      40.2622 
         500      25.4324  0.000114303  4.01652e-06      40.2622 
         500      25.5873  0.000114016  3.96951e-06      40.2622 
         500      25.7426  0.000113762  3.89639e-06      40.2622 
         500      25.8984  0.000113565   3.8243e-06      40.2622 
         500      26.0546  0.000113455  3.78551e-06      40.2622 
         500      26.2114  0.000113463  3.81754e-06      40.2622 
         500      26.3686  0.000113475   3.8115e-06      40.2622 
         500      26.5262  0.000113363  3.68416e-06      40.2622 
         500      26.6844  0.000113255  3.57812e-06      40.2622 
         500      26.8429  0.000113147  3.48614e-06      40.2622 
         500       27.002  0.000113034  3.40157e-06      40.2622 
         500      27.1615  0.000112912  3.31892e-06      40.2622 
         500      27.3216  0.000112776  3.23329e-06      40.2622 
         500      27.4821  0.000112622  3.14069e-06      40.2622 
         500       27.643  0.000112447  3.03791e-06      40.2622 
         500      27.8044   0.00011237  2.98369e-06      40.2622 
         500      27.9663  0.000112439   3.0066e-06      40.2622 
         500      28.1287  0.000112477   3.0181e-06      40.2622 
         500      28.2914  0.000112488  3.01916e-06      40.2622 
         500      28.4548  0.000112475  3.01083e-06      40.2622 
         500      28.6185  0.000112443  2.99423e-06      40.2622 
         500      28.7828  0.000112394  2.97043e-06      40.2622 
         500      28.9475  0.000112332  2.94058e-06      40.2622 
         500      29.1126  0.000112261  2.90582e-06      40.2622 
         500      29.2784  0.000112182  2.86715e-06      40.2622 
         500      29.4444  0.000112099  2.82569e-06      40.2622 
         500       29.611  0.000112014  2.78233e-06      40.2622 
         500       29.778   0.00011193  2.73804e-06      40.2622 
         500      29.9456  0.000111848  2.69356e-06      40.2622 
         500      30.1137   0.00011177  2.64964e-06      40.2622 
         500      30.2821  0.000111697  2.60695e-06      40.2622 
         500      30.4511   0.00011163   2.5659e-06      40.2622 
         500      30.6204   0.00011157  2.52696e-06      40.2622 
         500      30.7903  0.000111518  2.49034e-06      40.2622 
         500      30.9606  0.000111473  2.45623e-06      40.2622 
         500      31.1315  0.000111436  2.42462e-06      40.2622 
         500      31.3028  0.000111405  2.39545e-06      40.2622 
         500      31.4745  0.000111381  2.36854e-06      40.2622 
         500      31.6468  0.000111362  2.34354e-06      40.2622 
         500      31.8194  0.000111348  2.32011e-06      40.2622 
         500      31.9926  0.000111336  2.29772e-06      40.2622 
         500      32.1662  0.000111326  2.27587e-06      40.2622 
         500      32.3404  0.000111316  2.25396e-06      40.2622 
         500      32.5149  0.000111304  2.23141e-06      40.2622 
         500        32.69  0.000111288  2.20759e-06      40.2622 
         500      32.8655  0.000111268  2.18194e-06      40.2622 
         500      33.0414  0.000111242    2.154e-06      40.2622 
         500       33.218  0.000111209  2.12332e-06      40.2622 
         500      33.3948  0.000111167  2.08969e-06      40.2622 
         500      33.5723  0.000111116  2.05301e-06      40.2622 
         500        33.75  0.000111056   2.0135e-06      40.2622 
         500      33.9284  0.000110988  1.97157e-06      40.2622 
         500      34.1073  0.000110912  1.92805e-06      40.2622 
         500      34.2865  0.000110831  1.88423e-06      40.2622 
         500      34.4663  0.000110747  1.84174e-06      40.2622 
         500      34.6465  0.000110665  1.80291e-06      40.2622 
         500      34.8272  0.000110589  1.77059e-06      40.2622 
         500      35.0083  0.000110526  1.74844e-06      40.2622 
         500        35.19  0.000110483  1.74085e-06      40.2622 
         500      35.3721  0.000110471  1.75321e-06      40.2622 
         500      35.5546  0.000110501  1.79181e-06      40.2622 
         500      35.7377  0.000110586  1.86419e-06      40.2622 
         500      35.9211  0.000110645  1.89056e-06      40.2622 
         500      36.1052   0.00011047  1.70279e-06      40.2622 
         500      36.2895  0.000110335  1.56035e-06      40.2622 
         500      36.4745  0.000110234   1.4554e-06      40.2622 
         500      36.6598  0.000110162  1.38117e-06      40.2622 
         500      36.8457  0.000110115  1.33131e-06      40.2622 
         500      37.0321  0.000110089  1.30026e-06      40.2622 
         500      37.2188  0.000110079   1.2831e-06      40.2622 
         500      37.4062  0.000110081  1.27546e-06      40.2622 
         500      37.5938  0.000110091  1.27367e-06      40.2622 
         500      37.7821  0.000110105  1.27463e-06      40.2622 
         500      37.9707   0.00011012   1.2758e-06      40.2623 
         500      38.1599  0.000110134  1.27523e-06      40.2623 
         500      38.3496  0.000110145  1.27149e-06      40.2623 
         500      38.5396   0.00011015  1.26368e-06      40.2623 
         500      38.7302  0.000110148  1.25136e-06      40.2623 
         500      38.9211  0.000110139  1.23456e-06      40.2623 
         500      39.1127  0.000110123  1.21373e-06      40.2623 
         500      39.3046  0.000110099  1.18973e-06      40.2623 
         500      39.4971   0.00011007  1.16372e-06      40.2623 
         500      39.6899  0.000110036  1.13729e-06      40.2623 
         500      39.8833      0.00011  1.11216e-06      40.2623 
         500      40.0772  0.000109964  1.09042e-06      40.2623 
         500      40.2714  0.000109932   1.0743e-06      40.2623 
         500      40.4663  0.000109906  1.06614e-06      40.2623 
         500      40.6615  0.000109891  1.06843e-06      40.2623 
         500      40.8573   0.00010989  1.08367e-06      40.2623 
         500      41.0534  0.000109909  1.11433e-06      40.2623 
         500      41.2501   0.00010995  1.16287e-06      40.2623 
         500      41.4473   0.00010995  1.14928e-06      40.2623 
         500      41.6448  0.000109925  1.09648e-06      40.2623 
         500      41.8429  0.000109904  1.04089e-06      40.2623 
         500      42.0414  0.000109888  9.84268e-07      40.2623 
         500      42.2405  0.000109877  9.28143e-07      40.2623 
         500      42.4399  0.000109869  8.74129e-07      40.2623 
         500      42.6399  0.000109866  8.23544e-07      40.2623 
         500      42.8404  0.000109865  7.77677e-07      40.2623 
         500      43.0412  0.000109866  7.37609e-07      40.2623 
         500      43.2426  0.000109868  7.04094e-07      40.2623 
         500      43.4444  0.000109869  6.77733e-07      40.2623 
         500      43.6467  0.000109868  6.58727e-07      40.2623 
         500      43.8494  0.000109865     6.47e-07      40.2623 
         500      44.0527  0.000109856  6.42045e-07      40.2623 
         500      44.2563  0.000109842  6.42954e-07      40.2623 
         500      44.4606   0.00010982  6.48346e-07      40.2623 
         500      44.6653  0.000109792   6.5633e-07      40.2623 
         500      44.8704  0.000109756  6.64456e-07      40.2623 
         500       45.076  0.000109713  6.69702e-07      40.2623 
         500       45.282  0.000109664   6.6839e-07      40.2623 
         500      45.4886  0.000109611  6.56162e-07      40.2623 
         500      45.6955  0.000109558  6.27965e-07      40.2623 
         500       45.903  0.000109508  5.77899e-07      40.2623 
         500      46.1111  0.000109469  4.99304e-07      40.2623 
         500      46.3194  0.000109459  3.94302e-07      40.2623 
         500      46.5283  0.000109709   5.0858e-07      40.2623 
         500      46.7376  0.000109857  5.87599e-07      40.2623 
         500      46.9475  0.000109927  6.36829e-07      40.2623 
         500      47.1577  0.000109939  6.61205e-07      40.2623 
         500      47.3685  0.000109913  6.65453e-07      40.2623 
         500      47.5798  0.000109861   6.5389e-07      40.2623 
         500      47.7914  0.000109797  6.30534e-07      40.2623 
         500      48.0037   0.00010973  5.98987e-07      40.2623 