Variables = x, y, u, v, p

Zone, I=800, F=POINT
         700            0           -0           -0       13.656 
         700     0.000234  6.53474e-06  1.74443e-12       13.656 
         700     0.000939  2.39614e-05  2.75832e-11       13.656 
         700     0.002113   4.6052e-05  1.28566e-10       13.656 
         700     0.003759  6.44182e-05  3.55163e-10       13.656 
         700     0.005872  7.06362e-05  7.04491e-10       13.656 
         700     0.008457  5.87339e-05  1.05371e-09       13.656 
         700      0.01151  2.67898e-05  1.07311e-09       13.656 
         700     0.015036 -2.26286e-05  1.30491e-10       13.656 
         700     0.019031 -8.32575e-05 -2.81338e-09       13.656 
         700     0.023493 -0.000147545 -9.30917e-09       13.656 
         700     0.028429  -0.00020972 -2.15506e-08       13.656 
         700     0.033831 -0.000268013 -4.24302e-08       13.656 
         700     0.039706  -0.00032586 -7.57155e-08       13.656 
         700     0.046047 -0.000389578 -1.26016e-07       13.656 
         700     0.052863 -0.000463727 -1.99041e-07       13.656 
         700      0.06015 -0.000544828 -3.01435e-07       13.656 
         700       0.0679 -0.000620035 -4.40756e-07       13.656 
         700     0.076126 -0.000681899  -6.2597e-07       13.656 
         700     0.084816 -0.000765091 -8.66531e-07       13.656 
         700     0.093982 -0.000834298 -1.17352e-06       13.656 
         700     0.103611 -0.000904406 -1.55805e-06       13.656 
         700     0.113718 -0.000973717 -2.03298e-06       13.656 
         700     0.124286  -0.00104069  -2.6104e-06       13.656 
         700     0.135333  -0.00110446 -3.30466e-06       13.656 
         700      0.14685  -0.00116437 -4.12895e-06       13.656 
         700     0.158827  -0.00122012 -5.09616e-06       13.656 
         700     0.171284  -0.00127171 -6.22147e-06       13.656 
         700     0.184201  -0.00131897 -7.51635e-06       13.656 
         700     0.197599  -0.00136174 -8.99561e-06       13.656 
         700     0.211455  -0.00139951 -1.06687e-05       13.656 
         700     0.225792  -0.00143194 -1.25496e-05       13.656 
         700       0.2406  -0.00145921 -1.46474e-05       13.656 
         700     0.255865  -0.00148226 -1.69691e-05       13.656 
         700     0.271613  -0.00149998 -1.95256e-05       13.656 
         700     0.287818  -0.00151309 -2.23192e-05       13.656 
         700     0.304506  -0.00152181 -2.53595e-05       13.656 
         700      0.32165  -0.00152638 -2.86453e-05       13.656 
         700     0.339278  -0.00152709 -3.21838e-05       13.656 
         700     0.357377  -0.00152428 -3.59734e-05       13.656 
         700      0.37593  -0.00151832 -4.00093e-05       13.656 
         700     0.394968  -0.00150957 -4.42961e-05       13.656 
         700     0.414461  -0.00149846 -4.88237e-05       13.656 
         700      0.43444  -0.00148536 -5.35947e-05       13.656 
         700     0.454872   -0.0014707 -5.85962e-05       13.656 
         700     0.475791  -0.00145483 -6.38305e-05       13.656 
         700     0.497163  -0.00143814 -6.92825e-05       13.656 
         700     0.519021  -0.00142094 -7.49534e-05       13.656 
         700      0.54135  -0.00140355 -8.08316e-05       13.656 
         700     0.564131  -0.00138629 -8.69028e-05       13.656 
         700       0.5874  -0.00136938 -9.31661e-05       13.656 
         700     0.611121  -0.00135312  -9.9599e-05       13.656 
         700      0.63533   -0.0013376 -0.000106211       13.656 
         700      0.65999  -0.00132304  -0.00011298       13.656 
         700     0.685139  -0.00130952 -0.000119906       13.656 
         700     0.710759  -0.00129713 -0.000126972       13.656 
         700     0.736828  -0.00128591  -0.00013416       13.656 
         700     0.763387  -0.00127584  -0.00014147       13.656 
         700     0.790396  -0.00126689  -0.00014888       13.656 
         700     0.817896  -0.00125897 -0.000156388       13.656 
         700     0.845843  -0.00125199 -0.000163969       13.656 
         700     0.874283  -0.00124579 -0.000171625       13.656 
         700      0.90317   -0.0012402  -0.00017933       13.656 
         700     0.932551  -0.00123502 -0.000187083       13.656 
         700     0.962401  -0.00123002 -0.000194865       13.656 
         700     0.992697  -0.00122498 -0.000202655       13.656 
         700      1.02349  -0.00121964 -0.000210455       13.656 
         700      1.05472  -0.00121376 -0.000218235       13.656 
         700      1.08645  -0.00120708 -0.000225996       13.656 
         700      1.11863  -0.00119939 -0.000233711       13.656 
         700       1.1513  -0.00119046 -0.000241377       13.656 
         700      1.18444   -0.0011801 -0.000248977       13.656 
         700      1.21802  -0.00116818  -0.00025649       13.656 
         700      1.25211  -0.00115456 -0.000263918       13.656 
         700      1.28663  -0.00113919 -0.000271239       13.656 
         700      1.32165  -0.00112203 -0.000278457       13.656 
         700      1.35712  -0.00110311 -0.000285556       13.656 
         700      1.39308  -0.00108248 -0.000292549       13.656 
         700      1.42951  -0.00106024 -0.000299435       13.656 
         700      1.46638  -0.00103655 -0.000306223       13.656 
         700      1.50375  -0.00101148 -0.000312946       13.656 
         700      1.54156 -0.000984701 -0.000319417       13.656 
         700      1.57987 -0.000957382 -0.000325801       13.656 
         700      1.61863 -0.000929685 -0.000332095       13.656 
         700      1.65788 -0.000901619 -0.000338303       13.656 
         700      1.69757 -0.000873279 -0.000344411       13.656 
         700      1.73776  -0.00084466 -0.000350422       13.656 
         700      1.77842  -0.00081582 -0.000356327       13.656 
         700      1.81952 -0.000786814 -0.000362115       13.656 
         700      1.86113 -0.000757619 -0.000367792       13.656 
         700      1.90316 -0.000728301 -0.000373344       13.656 
         700      1.94571 -0.000698829 -0.000378774       13.656 
         700      1.98869 -0.000669258 -0.000384068       13.656 
         700      2.03217 -0.000639548 -0.000389232       13.656 
         700      2.07612 -0.000609726 -0.000394256       13.656 
         700      2.12051 -0.000579813 -0.000399131       13.656 
         700       2.1654  -0.00054976 -0.000403861       13.656 
         700      2.21073 -0.000519611 -0.000408434       13.656 
         700      2.25656 -0.000489313 -0.000412851       13.656 
         700      2.30283  -0.00045891 -0.000417101       13.656 
         700       2.3496  -0.00042835 -0.000421185       13.656 
         700      2.39685 -0.000397656 -0.000425096       13.656 
         700      2.44452 -0.000366854 -0.000428825       13.656 
         700      2.49271 -0.000335902 -0.000432372       13.656 
         700      2.54132 -0.000304856 -0.000435727       13.656 
         700      2.59044 -0.000273684 -0.000438888       13.656 
         700         2.64 -0.000242455 -0.000441846       13.656 
         700      2.69006 -0.000211148 -0.000444599       13.656 
         700      2.74056 -0.000179849 -0.000447137       13.656 
         700      2.79156 -0.000148549 -0.000449458       13.656 
         700      2.84304 -0.000117323 -0.000451556       13.656 
         700      2.89494  -8.6252e-05 -0.000453422       13.656 
         700      2.94735 -5.53511e-05 -0.000455057       13.656 
         700       3.0002  -2.4739e-05 -0.000456452       13.656 
         700      3.05355  5.55748e-06 -0.000457606       13.656 
         700      3.10733  3.54135e-05 -0.000458515       13.656 
         700      3.16163   6.4797e-05  -0.00045918       13.656 
         700      3.21639  9.36062e-05 -0.000459599      13.6561 
         700      3.27158  0.000121746 -0.000459776      13.6561 
         700      3.32729  0.000149198 -0.000459714      13.6561 
         700      3.38342  0.000175867  -0.00045942      13.6561 
         700      3.44007  0.000201765 -0.000458905      13.6561 
         700      3.49714  0.000226844 -0.000458184      13.6561 
         700      3.55472  0.000251172 -0.000457274      13.6561 
         700      3.61273  0.000274781 -0.000456199      13.6561 
         700      3.67125  0.000297829 -0.000454988      13.6561 
         700      3.73025  0.000320484 -0.000453677      13.6561 
         700      3.78967   0.00034206 -0.000451913      13.6561 
         700      3.84961  0.000362283 -0.000449819      13.6561 
         700      3.90996  0.000381392 -0.000447579      13.6561 
         700      3.97084  0.000399414 -0.000445194      13.6561 
         700      4.03214  0.000416321 -0.000442673      13.6561 
         700      4.09395   0.00043214 -0.000440014      13.6561 
         700      4.15624  0.000446866 -0.000437225      13.6561 
         700      4.21895  0.000460498 -0.000434312      13.6561 
         700      4.28217   0.00047307 -0.000431276      13.6561 
         700      4.34582   0.00048458 -0.000428127      13.6561 
         700      4.40998  0.000495066 -0.000424866      13.6561 
         700      4.47457  0.000504534 -0.000421504      13.6561 
         700      4.53968  0.000513025  -0.00041804      13.6561 
         700      4.60525   0.00052056 -0.000414484      13.6561 
         700      4.67125  0.000527242  -0.00041074      13.6561 
         700      4.73777  0.000533044  -0.00040691      13.6561 
         700       4.8047  0.000537978 -0.000403021      13.6561 
         700      4.87216  0.000542091 -0.000399075      13.6561 
         700      4.94003  0.000545413 -0.000395082      13.6561 
         700      5.00843  0.000547992 -0.000391042      13.6561 
         700      5.07724  0.000549864 -0.000386966      13.6562 
         700      5.14658  0.000551074 -0.000382853      13.6562 
         700      5.21639  0.000551664 -0.000378708      13.6562 
         700      5.28661  0.000551678 -0.000374541      13.6562 
         700      5.35736  0.000551159 -0.000370347      13.6562 
         700      5.42852  0.000550151 -0.000366137      13.6562 
         700      5.50021  0.000548696 -0.000361908      13.6562 
         700      5.57231  0.000546839 -0.000357668      13.6562 
         700      5.64493  0.000544618 -0.000353415      13.6562 
         700      5.71803  0.000542075 -0.000349153      13.6562 
         700      5.79154  0.000539252  -0.00034489      13.6562 
         700      5.86558   0.00053618 -0.000340619      13.6562 
         700      5.94003  0.000532902 -0.000336352      13.6562 
         700      6.01501  0.000529444 -0.000332083      13.6562 
         700       6.0904  0.000525843  -0.00032782      13.6562 
         700      6.16632  0.000522123 -0.000323561      13.6562 
         700      6.24271  0.000518311 -0.000319309      13.6562 
         700       6.3195  0.000514434  -0.00031507      13.6562 
         700      6.39683  0.000510506  -0.00031084      13.6562 
         700      6.47457  0.000506549 -0.000306627      13.6562 
         700      6.55284  0.000502573 -0.000302427      13.6562 
         700      6.63152  0.000498594 -0.000298248      13.6562 
         700      6.71073  0.000494614 -0.000294085      13.6562 
         700      6.79034  0.000490644 -0.000289947      13.6562 
         700      6.87049  0.000486681 -0.000285828      13.6562 
         700      6.95111  0.000482727 -0.000281732      13.6562 
         700      7.03214  0.000478784 -0.000277664      13.6562 
         700       7.1137  0.000474841 -0.000273617      13.6562 
         700      7.19566  0.000470898 -0.000269598      13.6562 
         700      7.27816  0.000466943 -0.000265599      13.6562 
         700      7.36106  0.000462976 -0.000261626      13.6562 
         700      7.44451  0.000458984 -0.000257669      13.6563 
         700      7.52842   0.00045505 -0.000253754      13.6563 
         700      7.61273  0.000451276 -0.000249932      13.6563 
         700      7.69758   0.00044747 -0.000246144      13.6563 
         700      7.78283  0.000443654 -0.000242395      13.6563 
         700      7.86862  0.000439836 -0.000238675      13.6563 
         700      7.95481  0.000436032 -0.000234991      13.6563 
         700      8.04155  0.000432245 -0.000231334      13.6563 
         700      8.12868  0.000428486 -0.000227712      13.6563 
         700      8.21635  0.000424754 -0.000224118      13.6563 
         700      8.30449  0.000421055 -0.000220556      13.6563 
         700      8.39303  0.000417391 -0.000217029      13.6563 
         700      8.48211  0.000413758 -0.000213533      13.6563 
         700      8.57159   0.00041016 -0.000210073      13.6563 
         700      8.66161  0.000406591 -0.000206646      13.6563 
         700      8.75203  0.000403054 -0.000203257      13.6563 
         700      8.84299  0.000399543 -0.000199903      13.6563 
         700      8.93443  0.000396058 -0.000196585      13.6563 
         700      9.02626  0.000392601 -0.000193308      13.6563 
         700      9.11863  0.000389167 -0.000190067      13.6563 
         700      9.21139  0.000385761 -0.000186867      13.6563 
         700      9.30471  0.000382378 -0.000183703      13.6563 
         700      9.39841  0.000379026  -0.00018058      13.6563 
         700      9.49267  0.000375703 -0.000177495      13.6563 
         700      9.58739  0.000372414 -0.000174449      13.6563 
         700      9.68251  0.000369167 -0.000171446      13.6563 
         700      9.77817  0.000365962 -0.000168483      13.6563 
         700      9.87422  0.000362809 -0.000165567      13.6563 
         700      9.97083   0.00035971 -0.000162695      13.6563 
         700      10.0678  0.000356677 -0.000159878      13.6563 
         700      10.1654  0.000353708 -0.000157115      13.6563 
         700      10.2633  0.000350679 -0.000154229      13.6563 
         700      10.3618  0.000347649 -0.000151325      13.6563 
         700      10.4607  0.000344667 -0.000148492      13.6563 
         700      10.5601  0.000341728  -0.00014574      13.6563 
         700        10.66   0.00033882 -0.000143081      13.6563 
         700      10.7603  0.000335935 -0.000140536      13.6563 
         700      10.8611  0.000333053 -0.000138126      13.6563 
         700      10.9623  0.000330158 -0.000135884      13.6563 
         700      11.0641  0.000327421 -0.000133484      13.6563 
         700      11.1663  0.000324854 -0.000130818      13.6563 
         700       11.269  0.000322237 -0.000128272      13.6563 
         700      11.3721  0.000319591 -0.000125819      13.6563 
         700      11.4757  0.000316938 -0.000123446      13.6563 
         700      11.5798  0.000314292 -0.000121135      13.6564 
         700      11.6844  0.000311668 -0.000118877      13.6564 
         700      11.7894  0.000309075 -0.000116658      13.6564 
         700       11.895  0.000306519 -0.000114474      13.6564 
         700      12.0009  0.000304009  -0.00011232      13.6564 
         700      12.1073  0.000301542 -0.000110191      13.6564 
         700      12.2142  0.000299125 -0.000108086      13.6564 
         700      12.3216  0.000296751 -0.000106003      13.6564 
         700      12.4294  0.000294424 -0.000103944      13.6564 
         700      12.5378  0.000292137 -0.000101907      13.6564 
         700      12.6465   0.00028989 -9.98969e-05      13.6564 
         700      12.7558  0.000287676 -9.79117e-05      13.6564 
         700      12.8656  0.000285494 -9.59551e-05      13.6564 
         700      12.9757  0.000283342 -9.40304e-05      13.6564 
         700      13.0864  0.000281213 -9.21359e-05      13.6564 
         700      13.1975  0.000279108  -9.0276e-05      13.6564 
         700      13.3092  0.000277022 -8.84484e-05      13.6564 
         700      13.4212  0.000274957 -8.66562e-05      13.6564 
         700      13.5338   0.00027291 -8.48963e-05      13.6564 
         700      13.6468  0.000270882 -8.31692e-05      13.6564 
         700      13.7603  0.000268888 -8.14373e-05      13.6564 
         700      13.8743  0.000266929 -7.97277e-05      13.6564 
         700      13.9886  0.000265007 -7.80631e-05      13.6564 
         700      14.1036  0.000263118 -7.64367e-05      13.6564 
         700      14.2189  0.000261266 -7.48457e-05      13.6564 
         700      14.3348  0.000259449 -7.32814e-05      13.6564 
         700       14.451  0.000257669 -7.17403e-05      13.6564 
         700      14.5678   0.00025592 -7.02144e-05      13.6564 
         700      14.6851  0.000254202 -6.87013e-05      13.6564 
         700      14.8028  0.000252511 -6.72012e-05      13.6564 
         700       14.921   0.00025084 -6.57151e-05      13.6564 
         700      15.0396  0.000249182 -6.42543e-05      13.6564 
         700      15.1588  0.000247527 -6.28329e-05      13.6564 
         700      15.2783  0.000245864 -6.14791e-05      13.6564 
         700      15.3984  0.000244176 -6.02284e-05      13.6564 
         700       15.519  0.000242516 -5.89835e-05      13.6564 
         700        15.64  0.000240989 -5.76466e-05      13.6564 
         700      15.7615  0.000239552  -5.6332e-05      13.6564 
         700      15.8834  0.000238033 -5.50638e-05      13.6564 
         700      16.0058  0.000236488 -5.38411e-05      13.6564 
         700      16.1286  0.000235003 -5.26529e-05      13.6564 
         700       16.252  0.000233572 -5.14947e-05      13.6564 
         700      16.3759   0.00023219 -5.03651e-05      13.6564 
         700      16.5002  0.000230855 -4.92624e-05      13.6564 
         700       16.625  0.000229559  -4.8183e-05      13.6564 
         700      16.7501  0.000228278  -4.7086e-05      13.6564 
         700      16.8759  0.000226997 -4.59893e-05      13.6564 
         700       17.002  0.000225733 -4.49256e-05      13.6564 
         700      17.1287  0.000224484 -4.38895e-05      13.6564 
         700      17.2557  0.000223254 -4.28793e-05      13.6564 
         700      17.3834  0.000222042 -4.18907e-05      13.6564 
         700      17.5115  0.000220851 -4.09222e-05      13.6564 
         700      17.6399  0.000219681 -3.99726e-05      13.6564 
         700       17.769  0.000218532  -3.9039e-05      13.6564 
         700      17.8984  0.000217406 -3.81216e-05      13.6564 
         700      18.0284  0.000216301 -3.72181e-05      13.6564 
         700      18.1587  0.000215218 -3.63295e-05      13.6564 
         700      18.2896  0.000214156  -3.5454e-05      13.6564 
         700       18.421  0.000213116 -3.45922e-05      13.6564 
         700      18.5528  0.000212097 -3.37447e-05      13.6564 
         700      18.6851  0.000211098 -3.29104e-05      13.6564 
         700      18.8178  0.000210119  -3.2091e-05      13.6564 
         700      18.9511   0.00020916 -3.12853e-05      13.6564 
         700      19.0847   0.00020822 -3.04951e-05      13.6564 
         700      19.2189  0.000207297 -2.97195e-05      13.6564 
         700      19.3535  0.000206392 -2.89602e-05      13.6564 
         700      19.4886  0.000205504 -2.82161e-05      13.6564 
         700      19.6242  0.000204633 -2.74883e-05      13.6564 
         700      19.7602  0.000203777 -2.67774e-05      13.6564 
         700      19.8968  0.000202937 -2.60825e-05      13.6564 
         700      20.0337  0.000202112 -2.54046e-05      13.6564 
         700      20.1712  0.000201301 -2.47425e-05      13.6564 
         700      20.3091  0.000200504 -2.40971e-05      13.6564 
         700      20.4475  0.000199721 -2.34669e-05      13.6564 
         700      20.5864  0.000198952  -2.2852e-05      13.6564 
         700      20.7257  0.000198197 -2.22523e-05      13.6564 
         700      20.8655  0.000197454 -2.16662e-05      13.6564 
         700      21.0058  0.000196726 -2.10937e-05      13.6564 
         700      21.1465  0.000196011 -2.05332e-05      13.6564 
         700      21.2877  0.000195309 -1.99848e-05      13.6564 
         700      21.4294  0.000194621 -1.94467e-05      13.6564 
         700      21.5716  0.000193946 -1.89186e-05      13.6564 
         700      21.7142  0.000193286 -1.84003e-05      13.6564 
         700      21.8573  0.000192638 -1.78904e-05      13.6564 
         700      22.0008  0.000192005 -1.73894e-05      13.6564 
         700      22.1449  0.000191384 -1.68967e-05      13.6564 
         700      22.2893  0.000190776 -1.64134e-05      13.6564 
         700      22.4344  0.000190181 -1.59396e-05      13.6564 
         700      22.5797  0.000189597 -1.54776e-05      13.6564 
         700      22.7257  0.000189023 -1.50288e-05      13.6564 
         700      22.8721  0.000188458 -1.45966e-05      13.6564 
         700      23.0189    0.0001879 -1.41853e-05      13.6564 
         700      23.1663  0.000187397    -1.38e-05      13.6564 
         700       23.314  0.000186946 -1.34168e-05      13.6564 
         700      23.4623  0.000186473 -1.30273e-05      13.6564 
         700       23.611  0.000185986 -1.26376e-05      13.6564 
         700      23.7602  0.000185492 -1.22517e-05      13.6564 
         700        23.91  0.000184998 -1.18737e-05      13.6564 
         700        24.06  0.000184509 -1.15066e-05      13.6564 
         700      24.2107  0.000184028  -1.1152e-05      13.6564 
         700      24.3617  0.000183559 -1.08116e-05      13.6564 
         700      24.5133  0.000183102 -1.04855e-05      13.6564 
         700      24.6653   0.00018266 -1.01739e-05      13.6564 
         700      24.8178  0.000182234 -9.87573e-06      13.6564 
         700      24.9708  0.000181824 -9.58979e-06      13.6564 
         700      25.1242   0.00018143 -9.31447e-06      13.6564 
         700      25.2781  0.000181052 -9.04706e-06      13.6564 
         700      25.4324  0.000180689 -8.78535e-06      13.6564 
         700      25.5873  0.000180342 -8.52597e-06      13.6564 
         700      25.7426   0.00018001 -8.26619e-06      13.6564 
         700      25.8984  0.000179692  -8.0023e-06      13.6564 
         700      26.0546  0.000179388 -7.73139e-06      13.6564 
         700      26.2114  0.000179098 -7.44974e-06      13.6564 
         700      26.3686  0.000178821 -7.15439e-06      13.6564 
         700      26.5262  0.000178556 -6.84269e-06      13.6564 
         700      26.6844  0.000178303 -6.51155e-06      13.6564 
         700      26.8429   0.00017806 -6.15939e-06      13.6564 
         700       27.002  0.000177826 -5.78407e-06      13.6564 
         700      27.1615  0.000177599 -5.38532e-06      13.6564 
         700      27.3216  0.000177256 -5.26583e-06      13.6564 
         700      27.4821  0.000176917 -5.16443e-06      13.6564 
         700       27.643  0.000176599 -5.03989e-06      13.6564 
         700      27.8044    0.0001763 -4.89599e-06      13.6564 
         700      27.9663  0.000176016 -4.73655e-06      13.6564 
         700      28.1287  0.000175746 -4.56442e-06      13.6564 
         700      28.2914  0.000175487 -4.38265e-06      13.6564 
         700      28.4548  0.000175238 -4.19335e-06      13.6564 
         700      28.6185  0.000174997 -3.99894e-06      13.6564 
         700      28.7828  0.000174762   -3.801e-06      13.6564 
         700      28.9475  0.000174532  -3.6014e-06      13.6564 
         700      29.1126  0.000174307 -3.40194e-06      13.6564 
         700      29.2784  0.000174086 -3.20389e-06      13.6564 
         700      29.4444  0.000173868 -3.00928e-06      13.6564 
         700       29.611  0.000173655 -2.81967e-06      13.6564 
         700       29.778  0.000173447 -2.63751e-06      13.6564 
         700      29.9456  0.000173244 -2.46511e-06      13.6564 
         700      30.1137   0.00017305 -2.30573e-06      13.6564 
         700      30.2821  0.000172867 -2.16331e-06      13.6564 
         700      30.4511  0.000172715 -2.05317e-06      13.6564 
         700      30.6204  0.000172578 -1.96107e-06      13.6564 
         700      30.7903  0.000172426 -1.86131e-06      13.6564 
         700      30.9606  0.000172263 -1.75535e-06      13.6564 
         700      31.1315  0.000172096 -1.64443e-06      13.6564 
         700      31.3028  0.000171929 -1.53005e-06      13.6564 
         700      31.4745  0.000171764 -1.41376e-06      13.6564 
         700      31.6468  0.000171604 -1.29677e-06      13.6564 
         700      31.8194   0.00017145 -1.18064e-06      13.6564 
         700      31.9926  0.000171302 -1.06646e-06      13.6564 
         700      32.1662  0.000171162 -9.55614e-07      13.6564 
         700      32.3404  0.000171027 -8.48978e-07      13.6564 
         700      32.5149  0.000170898 -7.47651e-07      13.6564 
         700        32.69  0.000170773 -6.52245e-07      13.6564 
         700      32.8655  0.000170652 -5.63445e-07      13.6564 
         700      33.0414  0.000170534 -4.81738e-07      13.6564 
         700       33.218  0.000170416 -4.07232e-07      13.6564 
         700      33.3948  0.000170299 -3.40092e-07      13.6564 
         700      33.5723  0.000170182 -2.80067e-07      13.6564 
         700        33.75  0.000170064 -2.26923e-07      13.6564 
         700      33.9284  0.000169944 -1.80063e-07      13.6564 
         700      34.1073  0.000169824  -1.3885e-07      13.6564 
         700      34.2865  0.000169703 -1.02478e-07      13.6564 
         700      34.4663  0.000169581 -6.99206e-08      13.6564 
         700      34.6465  0.000169461 -4.01534e-08      13.6564 
         700      34.8272  0.000169342 -1.19735e-08      13.6564 
         700      35.0083  0.000169227  1.57724e-08      13.6564 
         700        35.19  0.000169117  4.43315e-08      13.6564 
         700      35.3721  0.000169014  7.48425e-08      13.6564 
         700      35.5546  0.000168919  1.08342e-07      13.6564 
         700      35.7377  0.000168834  1.45796e-07      13.6564 
         700      35.9211   0.00016876  1.87836e-07      13.6564 
         700      36.1052  0.000168697  2.34932e-07      13.6564 
         700      36.2895  0.000168647  2.87042e-07      13.6564 
         700      36.4745  0.000168607  3.43828e-07      13.6564 
         700      36.6598  0.000168577   4.0423e-07      13.6564 
         700      36.8457  0.000168553  4.66725e-07      13.6564 
         700      37.0321   0.00016853  5.28884e-07      13.6564 
         700      37.2188  0.000168503  5.87401e-07      13.6564 
         700      37.4062  0.000168461  6.38103e-07      13.6564 
         700      37.5938  0.000168394   6.7551e-07      13.6564 
         700      37.7821  0.000168287  6.92985e-07      13.6564 
         700      37.9707  0.000168122   6.8237e-07      13.6564 
         700      38.1599  0.000168076    7.357e-07      13.6564 
         700      38.3496  0.000168061  8.06688e-07      13.6564 
         700      38.5396  0.000168025  8.69486e-07      13.6564 
         700      38.7302  0.000167971  9.25746e-07      13.6564 
         700      38.9211  0.000167902   9.7602e-07      13.6564 
         700      39.1127  0.000167822  1.02021e-06      13.6564 
         700      39.3046  0.000167737  1.05737e-06      13.6564 
         700      39.4971  0.000167653  1.08606e-06      13.6564 
         700      39.6899  0.000167579  1.10423e-06      13.6564 
         700      39.8833  0.000167525  1.10958e-06      13.6564 
         700      40.0772  0.000167504   1.0995e-06      13.6564 
         700      40.2714   0.00016753  1.07139e-06      13.6564 
         700      40.4663  0.000167622  1.02264e-06      13.6564 
         700      40.6615  0.000167576   1.0443e-06      13.6564 
         700      40.8573  0.000167478   1.0849e-06      13.6564 
         700      41.0534  0.000167385  1.11904e-06      13.6564 
         700      41.2501  0.000167298  1.14814e-06      13.6564 
         700      41.4473  0.000167218  1.17327e-06      13.6564 
         700      41.6448  0.000167145  1.19524e-06      13.6564 
         700      41.8429  0.000167079  1.21468e-06      13.6564 
         700      42.0414  0.000167021  1.23197e-06      13.6564 
         700      42.2405  0.000166971  1.24739e-06      13.6564 
         700      42.4399   0.00016693  1.26102e-06      13.6564 
         700      42.6399  0.000166897  1.27289e-06      13.6564 
         700      42.8404  0.000166872  1.28289e-06      13.6564 
         700      43.0412  0.000166856   1.2909e-06      13.6564 
         700      43.2426  0.000166849  1.29678e-06      13.6564 
         700      43.4444  0.000166849  1.30037e-06      13.6564 
         700      43.6467  0.000166857  1.30155e-06      13.6564 
         700      43.8494  0.000166871  1.30026e-06      13.6564 
         700      44.0527   0.00016689   1.2965e-06      13.6564 
         700      44.2563  0.000166915  1.29039e-06      13.6564 
         700      44.4606  0.000166922   1.3012e-06      13.6564 
         700      44.6653  0.000166873  1.36529e-06      13.6564 
         700      44.8704  0.000166835  1.41983e-06      13.6564 
         700       45.076  0.000166807  1.46591e-06      13.6564 
         700       45.282  0.000166787  1.50443e-06      13.6564 
         700      45.4886  0.000166773  1.53637e-06      13.6564 
         700      45.6955  0.000166764  1.56259e-06      13.6564 
         700       45.903  0.000166759  1.58394e-06      13.6564 
         700      46.1111  0.000166756   1.6012e-06      13.6564 
         700      46.3194  0.000166755  1.61505e-06      13.6564 
         700      46.5283  0.000166755  1.62617e-06      13.6564 
         700      46.7376  0.000166753  1.63509e-06      13.6564 
         700      46.9475  0.000166751  1.64232e-06      13.6564 
         700      47.1577  0.000166746  1.64827e-06      13.6564 
         700      47.3685  0.000166739  1.65325e-06      13.6564 
         700      47.5798  0.000166729  1.65753e-06      13.6564 
         700      47.7914  0.000166716  1.66125e-06      13.6564 
         700      48.0037    0.0001667  1.66453e-06      13.6564 