Variables = x, y, u, v, p

Zone, I=800, F=POINT
         -25            0  8.93148e-20  4.16329e-25     -6.61882 
         -25     0.000234  4.41963e-06  2.41766e-11     -6.61882 
         -25     0.000939  1.65907e-05  1.33879e-10     -6.61882 
         -25     0.002113  3.33626e-05  4.33461e-10     -6.61882 
         -25     0.003759  5.05536e-05  1.07999e-09     -6.61882 
         -25     0.005872  6.39948e-05  2.25538e-09     -6.61882 
         -25     0.008457  7.08928e-05  4.14957e-09     -6.61882 
         -25      0.01151  7.05311e-05  6.92983e-09     -6.61882 
         -25     0.015036  6.45249e-05  1.07425e-08     -6.61882 
         -25     0.019031  5.62286e-05  1.56968e-08     -6.61882 
         -25     0.023493  4.94542e-05  2.18834e-08     -6.61882 
         -25     0.028429  4.68615e-05  2.94024e-08     -6.61882 
         -25     0.033831  4.86615e-05  3.83382e-08     -6.61882 
         -25     0.039706  5.22692e-05  4.88009e-08     -6.61882 
         -25     0.046047  5.35523e-05  6.08536e-08     -6.61882 
         -25     0.052863  4.96991e-05  7.45228e-08     -6.61882 
         -25      0.06015  4.25675e-05   8.9707e-08     -6.61882 
         -25       0.0679  3.93685e-05  1.06222e-07     -6.61882 
         -25     0.076126  4.42387e-05  1.24068e-07     -6.61882 
         -25     0.084816  3.69598e-05  1.43643e-07     -6.61882 
         -25     0.093982   3.6657e-05   1.6373e-07     -6.61882 
         -25     0.103611  3.52297e-05   1.8462e-07     -6.61882 
         -25     0.113718  3.32686e-05  2.05978e-07     -6.61882 
         -25     0.124286  3.12044e-05  2.27387e-07     -6.61882 
         -25     0.135333  2.92774e-05  2.48501e-07     -6.61882 
         -25      0.14685  2.75611e-05  2.68913e-07     -6.61882 
         -25     0.158827  2.59996e-05  2.88218e-07     -6.61882 
         -25     0.171284  2.44757e-05  3.06053e-07     -6.61882 
         -25     0.184201  2.29033e-05  3.21983e-07     -6.61882 
         -25     0.197599  2.12887e-05  3.35625e-07     -6.61882 
         -25     0.211455  1.97614e-05  3.46556e-07     -6.61882 
         -25     0.225792   1.8474e-05  3.54455e-07     -6.61882 
         -25       0.2406   1.7332e-05  3.59112e-07     -6.61882 
         -25     0.255865  1.59195e-05  3.60303e-07     -6.61882 
         -25     0.271613  1.47943e-05  3.57573e-07     -6.61882 
         -25     0.287818  1.37058e-05  3.50961e-07     -6.61882 
         -25     0.304506  1.26605e-05  3.40233e-07     -6.61882 
         -25      0.32165  1.16655e-05  3.25325e-07     -6.61882 
         -25     0.339278  1.07214e-05  3.06273e-07     -6.61882 
         -25     0.357377  9.82913e-06  2.83293e-07     -6.61882 
         -25      0.37593  8.98722e-06  2.56752e-07     -6.61882 
         -25     0.394968  8.19114e-06  2.27061e-07     -6.61882 
         -25     0.414461  7.43873e-06   1.9481e-07     -6.61882 
         -25      0.43444  6.72608e-06   1.6053e-07     -6.61881 
         -25     0.454872  6.05327e-06  1.24851e-07     -6.61881 
         -25     0.475791  5.42043e-06  8.81997e-08     -6.61881 
         -25     0.497163  4.83249e-06  5.09545e-08     -6.61881 
         -25     0.519021  4.29495e-06  1.31036e-08     -6.61881 
         -25      0.54135  3.81602e-06 -2.56721e-08     -6.61881 
         -25     0.564131  3.40291e-06 -6.62101e-08     -6.61881 
         -25       0.5874  3.05707e-06 -1.10124e-07     -6.61881 
         -25     0.611121  2.77279e-06 -1.59853e-07     -6.61881 
         -25      0.63533  2.57726e-06  -2.1228e-07     -6.61881 
         -25      0.65999  2.46951e-06 -2.61461e-07      -6.6188 
         -25     0.685139  2.45871e-06 -3.08074e-07      -6.6188 
         -25     0.710759   2.5526e-06 -3.52512e-07      -6.6188 
         -25     0.736828  2.75682e-06 -3.95004e-07      -6.6188 
         -25     0.763387  3.07571e-06 -4.35723e-07      -6.6188 
         -25     0.790396  3.51103e-06 -4.74573e-07      -6.6188 
         -25     0.817896   4.0639e-06 -5.11455e-07     -6.61879 
         -25     0.845843  4.73226e-06 -5.46057e-07     -6.61879 
         -25     0.874283  5.51448e-06 -5.78118e-07     -6.61879 
         -25      0.90317  6.40521e-06 -6.07234e-07     -6.61879 
         -25     0.932551  7.40066e-06 -6.33104e-07     -6.61879 
         -25     0.962401  8.49391e-06 -6.55391e-07     -6.61878 
         -25     0.992697  9.67718e-06 -6.73853e-07     -6.61878 
         -25      1.02349  1.09451e-05 -6.88395e-07     -6.61878 
         -25      1.05472  1.22884e-05 -6.99005e-07     -6.61877 
         -25      1.08645  1.37018e-05 -7.05866e-07     -6.61877 
         -25      1.11863  1.51765e-05 -7.09293e-07     -6.61877 
         -25       1.1513  1.67085e-05 -7.09763e-07     -6.61877 
         -25      1.18444  1.82912e-05  -7.0786e-07     -6.61876 
         -25      1.21802  1.99187e-05 -7.04228e-07     -6.61876 
         -25      1.25211  2.15896e-05 -6.99456e-07     -6.61876 
         -25      1.28663  2.32978e-05 -6.93971e-07     -6.61875 
         -25      1.32165  2.50428e-05 -6.87817e-07     -6.61875 
         -25      1.35712  2.68179e-05 -6.80447e-07     -6.61874 
         -25      1.39308  2.86204e-05  -6.7037e-07     -6.61874 
         -25      1.42951   3.0441e-05  -6.5479e-07     -6.61874 
         -25      1.46638  3.22655e-05 -6.29131e-07     -6.61873 
         -25      1.50375  3.40779e-05 -5.86354e-07     -6.61873 
         -25      1.54156  3.63409e-05 -5.51652e-07     -6.61872 
         -25      1.57987  3.83036e-05  -5.3666e-07     -6.61872 
         -25      1.61863  3.99753e-05 -5.36323e-07     -6.61871 
         -25      1.65788  4.14166e-05 -5.46363e-07     -6.61871 
         -25      1.69757  4.26788e-05 -5.62547e-07      -6.6187 
         -25      1.73776  4.38132e-05 -5.80775e-07     -6.61869 
         -25      1.77842  4.48633e-05 -5.97057e-07     -6.61869 
         -25      1.81952  4.58677e-05 -6.07612e-07     -6.61868 
         -25      1.86113  4.68625e-05 -6.08932e-07     -6.61867 
         -25      1.90316  4.78751e-05 -5.97802e-07     -6.61867 
         -25      1.94571  4.89311e-05 -5.71348e-07     -6.61866 
         -25      1.98869  5.00475e-05  -5.2717e-07     -6.61865 
         -25      2.03217  5.12394e-05 -4.63218e-07     -6.61865 
         -25      2.07612  5.25145e-05 -3.78056e-07     -6.61864 
         -25      2.12051  5.38749e-05 -2.70878e-07     -6.61863 
         -25       2.1654  5.53216e-05 -1.41221e-07     -6.61862 
         -25      2.21073  5.68467e-05  1.03556e-08     -6.61861 
         -25      2.25656  5.84429e-05  1.83057e-07     -6.61861 
         -25      2.30283  6.00942e-05  3.74873e-07      -6.6186 
         -25       2.3496  6.17867e-05  5.83637e-07     -6.61859 
         -25      2.39685  6.34998e-05   8.0601e-07     -6.61858 
         -25      2.44452  6.52105e-05  1.03787e-06     -6.61857 
         -25      2.49271  6.68985e-05  1.27496e-06     -6.61856 
         -25      2.54132  6.85369e-05  1.51158e-06     -6.61855 
         -25      2.59044   7.0104e-05  1.74219e-06     -6.61854 
         -25         2.64  7.15733e-05  1.95992e-06     -6.61853 
         -25      2.69006   7.2924e-05  2.15818e-06     -6.61852 
         -25      2.74056  7.41327e-05  2.32936e-06      -6.6185 
         -25      2.79156  7.51824e-05  2.46625e-06     -6.61849 
         -25      2.84304  7.60562e-05  2.56119e-06     -6.61848 
         -25      2.89494  7.67417e-05  2.60686e-06     -6.61847 
         -25      2.94735  7.72322e-05  2.59647e-06     -6.61845 
         -25       3.0002  7.75238e-05  2.52393e-06     -6.61844 
         -25      3.05355  7.76194e-05  2.38409e-06     -6.61843 
         -25      3.10733  7.75267e-05  2.17361e-06     -6.61841 
         -25      3.16163  7.72594e-05  1.89047e-06      -6.6184 
         -25      3.21639   7.6837e-05  1.53559e-06     -6.61838 
         -25      3.27158  7.62855e-05  1.11306e-06     -6.61837 
         -25      3.32729  7.56349e-05  6.29554e-07     -6.61835 
         -25      3.38342  7.49218e-05  9.75062e-08     -6.61834 
         -25      3.44007  7.41848e-05 -4.67111e-07     -6.61832 
         -25      3.49714  7.34679e-05 -1.04062e-06     -6.61831 
         -25      3.55472   7.2814e-05 -1.59413e-06     -6.61829 
         -25      3.61273  7.22679e-05 -2.08894e-06     -6.61827 
         -25      3.67125  7.18697e-05  -2.4787e-06     -6.61825 
         -25      3.73025  7.16555e-05 -2.70527e-06     -6.61823 
         -25      3.78967  7.11979e-05 -3.14451e-06     -6.61822 
         -25      3.84961  7.06124e-05 -3.69323e-06      -6.6182 
         -25      3.90996  7.00971e-05 -4.18854e-06     -6.61818 
         -25      3.97084  6.96438e-05 -4.65416e-06     -6.61816 
         -25      4.03214  6.92448e-05 -5.10223e-06     -6.61814 
         -25      4.09395  6.88912e-05 -5.53823e-06     -6.61812 
         -25      4.15624  6.85749e-05 -5.96044e-06     -6.61809 
         -25      4.21895  6.82886e-05 -6.36293e-06     -6.61807 
         -25      4.28217  6.80255e-05 -6.73826e-06     -6.61805 
         -25      4.34582  6.77806e-05 -7.07704e-06     -6.61803 
         -25      4.40998  6.75502e-05  -7.3718e-06       -6.618 
         -25      4.47457  6.73324e-05 -7.61621e-06     -6.61798 
         -25      4.53968  6.71268e-05   -7.808e-06     -6.61795 
         -25      4.60525  6.69346e-05 -7.94831e-06     -6.61793 
         -25      4.67125  6.67586e-05  -8.0428e-06      -6.6179 
         -25      4.73777  6.66016e-05 -8.10174e-06     -6.61788 
         -25       4.8047  6.64672e-05 -8.13897e-06     -6.61785 
         -25      4.87216  6.63578e-05 -8.17127e-06     -6.61782 
         -25      4.94003  6.62742e-05 -8.21629e-06      -6.6178 
         -25      5.00843  6.62134e-05 -8.29036e-06     -6.61777 
         -25      5.07724  6.61678e-05 -8.40486e-06     -6.61774 
         -25      5.14658  6.61225e-05 -8.56254e-06     -6.61771 
         -25      5.21639   6.6053e-05 -8.75171e-06     -6.61768 
         -25      5.28661  6.59226e-05 -8.94008e-06     -6.61765 
         -25      5.35736  6.56787e-05 -9.06777e-06     -6.61762 
         -25      5.42852  6.54493e-05  -9.0576e-06     -6.61759 
         -25      5.50021  6.53683e-05  -8.8977e-06     -6.61755 
         -25      5.57231  6.52095e-05  -8.5275e-06     -6.61752 
         -25      5.64493  6.49653e-05  -8.6463e-06     -6.61749 
         -25      5.71803  6.48182e-05 -9.33983e-06     -6.61745 
         -25      5.79154  6.47653e-05 -9.62037e-06     -6.61742 
         -25      5.86558  6.47612e-05 -9.61826e-06     -6.61738 
         -25      5.94003  6.47715e-05 -9.43697e-06     -6.61734 
         -25      6.01501   6.4771e-05 -9.15625e-06     -6.61731 
         -25       6.0904  6.47433e-05 -8.83592e-06     -6.61727 
         -25      6.16632  6.46791e-05 -8.51713e-06     -6.61723 
         -25      6.24271  6.45758e-05 -8.22699e-06     -6.61719 
         -25       6.3195  6.43839e-05 -8.00571e-06     -6.61715 
         -25      6.39683  6.40996e-05 -7.88107e-06     -6.61711 
         -25      6.47457  6.38155e-05 -7.80123e-06     -6.61707 
         -25      6.55284  6.35452e-05 -7.73373e-06     -6.61703 
         -25      6.63152   6.3299e-05 -7.64746e-06     -6.61698 
         -25      6.71073  6.30822e-05 -7.51767e-06     -6.61694 
         -25      6.79034  6.28965e-05 -7.33085e-06     -6.61689 
         -25      6.87049  6.27396e-05 -7.08674e-06     -6.61685 
         -25      6.95111  6.26062e-05 -6.80048e-06      -6.6168 
         -25      7.03214  6.24897e-05  -6.5017e-06     -6.61676 
         -25       7.1137  6.23823e-05 -6.23088e-06     -6.61671 
         -25      7.19566  6.22785e-05  -6.0359e-06     -6.61666 
         -25      7.27816  6.21764e-05 -5.96279e-06     -6.61661 
         -25      7.36106  6.20813e-05 -6.04626e-06     -6.61656 
         -25      7.44451  6.20086e-05 -6.29559e-06     -6.61651 
         -25      7.52842  6.19884e-05 -6.67723e-06     -6.61646 
         -25      7.61273  6.20702e-05 -7.09348e-06      -6.6164 
         -25      7.69758  6.23283e-05 -7.35875e-06     -6.61635 
         -25      7.78283  6.28677e-05 -7.16803e-06      -6.6163 
         -25      7.86862  6.29286e-05 -6.95363e-06     -6.61624 
         -25      7.95481  6.20505e-05 -7.06236e-06     -6.61618 
         -25      8.04155   6.1323e-05 -6.99782e-06     -6.61613 
         -25      8.12868  6.10652e-05 -6.99054e-06     -6.61607 
         -25      8.21635  6.12434e-05 -6.80627e-06     -6.61601 
         -25      8.30449  6.13857e-05 -6.84162e-06     -6.61595 
         -25      8.39303  6.15063e-05 -7.01134e-06     -6.61589 
         -25      8.48211  6.16136e-05  -7.2399e-06     -6.61583 
         -25      8.57159   6.1711e-05 -7.46076e-06     -6.61576 
         -25      8.66161  6.17978e-05 -7.61787e-06      -6.6157 
         -25      8.75203  6.18698e-05 -7.66476e-06     -6.61563 
         -25      8.84299  6.17632e-05 -7.53586e-06     -6.61557 
         -25      8.93443  6.16302e-05 -7.29697e-06      -6.6155 
         -25      9.02626  6.15536e-05  -7.0045e-06     -6.61543 
         -25      9.11863  6.15229e-05  -6.6853e-06     -6.61536 
         -25      9.21139   6.1526e-05 -6.36141e-06     -6.61529 
         -25      9.30471  6.15502e-05 -6.04861e-06     -6.61522 
         -25      9.39841  6.15827e-05 -5.75895e-06     -6.61515 
         -25      9.49267  6.16114e-05 -5.49936e-06     -6.61508 
         -25      9.58739  6.16252e-05 -5.27381e-06       -6.615 
         -25      9.68251  6.16146e-05 -5.08312e-06     -6.61493 
         -25      9.77817  6.15724e-05 -4.92517e-06     -6.61485 
         -25      9.87422  6.14935e-05 -4.79647e-06     -6.61477 
         -25      9.97083  6.13755e-05 -4.69176e-06      -6.6147 
         -25      10.0678  6.12188e-05 -4.60542e-06     -6.61462 
         -25      10.1654  6.10261e-05 -4.53135e-06     -6.61453 
         -25      10.2633  6.08032e-05 -4.46416e-06     -6.61445 
         -25      10.3618  6.05574e-05 -4.39922e-06     -6.61437 
         -25      10.4607  6.02983e-05 -4.33361e-06     -6.61428 
         -25      10.5601  6.00364e-05 -4.26655e-06      -6.6142 
         -25        10.66  5.97819e-05  -4.1997e-06     -6.61411 
         -25      10.7603  5.95449e-05 -4.13806e-06     -6.61402 
         -25      10.8611  5.93324e-05 -4.09004e-06     -6.61394 
         -25      10.9623  5.91485e-05 -4.06822e-06     -6.61384 
         -25      11.0641  5.89909e-05 -4.08953e-06     -6.61375 
         -25      11.1663  5.89437e-05 -4.23658e-06     -6.61366 
         -25       11.269  5.90575e-05 -4.37317e-06     -6.61357 
         -25      11.3721  5.91498e-05 -4.32239e-06     -6.61347 
         -25      11.4757  5.92113e-05 -4.11387e-06     -6.61337 
         -25      11.5798  5.92401e-05 -3.78021e-06     -6.61328 
         -25      11.6844  5.92397e-05 -3.35728e-06     -6.61318 
         -25      11.7894  5.92176e-05 -2.88129e-06     -6.61308 
         -25       11.895  5.91832e-05 -2.39003e-06     -6.61297 
         -25      12.0009  5.91464e-05 -1.92112e-06     -6.61287 
         -25      12.1073  5.91157e-05  -1.5099e-06     -6.61277 
         -25      12.2142  5.90971e-05 -1.19119e-06     -6.61266 
         -25      12.3216  5.90929e-05 -9.96012e-07     -6.61255 
         -25      12.4294     5.91e-05 -9.52779e-07     -6.61244 
         -25      12.5378  5.91098e-05 -1.08554e-06     -6.61233 
         -25      12.6465  5.91069e-05 -1.41359e-06     -6.61222 
         -25      12.7558  5.90516e-05 -1.40457e-06     -6.61211 
         -25      12.8656  5.89196e-05 -6.61546e-07     -6.61199 
         -25      12.9757  5.87619e-05 -2.42957e-07     -6.61188 
         -25      13.0864  5.85943e-05 -5.97407e-08     -6.61176 
         -25      13.1975  5.84305e-05 -4.03174e-08     -6.61164 
         -25      13.3092  5.82808e-05  -1.2733e-07     -6.61152 
         -25      13.4212  5.81534e-05 -2.76039e-07      -6.6114 
         -25      13.5338  5.80528e-05  -4.5265e-07     -6.61128 
         -25      13.6468    5.798e-05 -6.31423e-07     -6.61115 
         -25      13.7603  5.79326e-05 -7.92686e-07     -6.61103 
         -25      13.8743  5.79031e-05 -9.20761e-07      -6.6109 
         -25      13.9886  5.78792e-05 -1.00052e-06     -6.61077 
         -25      14.1036  5.78424e-05 -1.01541e-06     -6.61064 
         -25      14.2189  5.77673e-05 -9.44096e-07     -6.61051 
         -25      14.3348  5.76204e-05 -7.57433e-07     -6.61038 
         -25       14.451   5.7359e-05 -4.15867e-07     -6.61024 
         -25      14.5678  5.69292e-05  1.35259e-07      -6.6101 
         -25      14.6851  5.73051e-05   3.6271e-07     -6.60997 
         -25      14.8028  5.77431e-05  3.86577e-07     -6.60983 
         -25       14.921  5.79209e-05  4.02022e-07     -6.60969 
         -25      15.0396  5.79184e-05  4.16699e-07     -6.60954 
         -25      15.1588  5.78008e-05  4.35915e-07      -6.6094 
         -25      15.2783  5.76195e-05   4.6309e-07     -6.60925 
         -25      15.3984  5.74137e-05  5.00409e-07      -6.6091 
         -25       15.519  5.72123e-05   5.4915e-07     -6.60895 
         -25        15.64  5.70351e-05  6.10099e-07      -6.6088 
         -25      15.7615  5.68939e-05  6.84066e-07     -6.60865 
         -25      15.8834  5.67949e-05  7.71762e-07     -6.60849 
         -25      16.0058  5.67386e-05  8.74436e-07     -6.60834 
         -25      16.1286  5.67222e-05  9.93372e-07     -6.60818 
         -25       16.252  5.67398e-05  1.13052e-06     -6.60802 
         -25      16.3759  5.67838e-05  1.28771e-06     -6.60786 
         -25      16.5002  5.68454e-05  1.46661e-06      -6.6077 
         -25       16.625  5.69157e-05   1.6688e-06     -6.60753 
         -25      16.7501  5.69855e-05  1.89424e-06     -6.60736 
         -25      16.8759  5.70463e-05  2.14184e-06      -6.6072 
         -25       17.002  5.70898e-05  2.40721e-06     -6.60703 
         -25      17.1287  5.71082e-05   2.6832e-06     -6.60685 
         -25      17.2557  5.70938e-05  2.95706e-06     -6.60668 
         -25      17.3834  5.70382e-05   3.2108e-06      -6.6065 
         -25      17.5115  5.69317e-05  3.41799e-06     -6.60633 
         -25      17.6399  5.67619e-05  3.54291e-06     -6.60615 
         -25       17.769  5.65125e-05  3.53855e-06     -6.60597 
         -25      17.8984  5.63379e-05  3.70242e-06     -6.60578 
         -25      18.0284  5.62636e-05  3.99802e-06      -6.6056 
         -25      18.1587  5.61437e-05  4.08811e-06     -6.60541 
         -25      18.2896  5.59942e-05  3.99814e-06     -6.60522 
         -25       18.421  5.58446e-05   3.7912e-06     -6.60503 
         -25      18.5528  5.57403e-05  3.57825e-06     -6.60484 
         -25      18.6851  5.57468e-05  3.52794e-06     -6.60465 
         -25      18.8178  5.59537e-05  3.87916e-06     -6.60445 
         -25      18.9511  5.59129e-05  3.96035e-06     -6.60425 
         -25      19.0847   5.5574e-05  3.96175e-06     -6.60405 
         -25      19.2189  5.51139e-05   4.0928e-06     -6.60385 
         -25      19.3535  5.45729e-05  4.27847e-06     -6.60365 
         -25      19.4886    5.399e-05  4.45142e-06     -6.60344 
         -25      19.6242  5.38599e-05  4.80557e-06     -6.60323 
         -25      19.7602  5.44689e-05  5.30714e-06     -6.60302 
         -25      19.8968  5.49677e-05  5.51012e-06     -6.60281 
         -25      20.0337  5.53604e-05  5.52009e-06      -6.6026 
         -25      20.1712   5.5655e-05  5.41739e-06     -6.60238 
         -25      20.3091  5.58598e-05  5.26037e-06     -6.60216 
         -25      20.4475  5.59854e-05  5.08858e-06     -6.60194 
         -25      20.5864  5.60432e-05  4.92686e-06     -6.60172 
         -25      20.7257  5.60451e-05   4.7881e-06      -6.6015 
         -25      20.8655  5.60038e-05  4.67589e-06     -6.60127 
         -25      21.0058  5.59317e-05  4.58802e-06     -6.60105 
         -25      21.1465   5.5841e-05  4.51815e-06     -6.60082 
         -25      21.2877  5.57431e-05  4.45853e-06     -6.60058 
         -25      21.4294  5.56483e-05  4.40144e-06     -6.60035 
         -25      21.5716  5.55655e-05  4.34091e-06     -6.60011 
         -25      21.7142  5.55017e-05  4.27378e-06     -6.59987 
         -25      21.8573  5.54615e-05  4.20016e-06     -6.59963 
         -25      22.0008  5.54469e-05  4.12409e-06     -6.59939 
         -25      22.1449  5.54567e-05  4.05284e-06     -6.59915 
         -25      22.2893  5.54866e-05  3.99668e-06      -6.5989 
         -25      22.4344  5.55279e-05  3.96714e-06     -6.59865 
         -25      22.5797   5.5568e-05  3.97554e-06      -6.5984 
         -25      22.7257  5.55894e-05  4.03034e-06     -6.59815 
         -25      22.8721  5.55695e-05  4.13413e-06     -6.59789 
         -25      23.0189  5.54801e-05   4.2796e-06     -6.59764 
         -25      23.1663  5.52871e-05  4.44562e-06     -6.59738 
         -25       23.314  5.49504e-05  4.59112e-06     -6.59711 
         -25      23.4623  5.44222e-05  4.64986e-06     -6.59685 
         -25       23.611   5.3649e-05  4.52288e-06     -6.59658 
         -25      23.7602  5.30853e-05  4.37279e-06     -6.59632 
         -25        23.91  5.30899e-05   4.4976e-06     -6.59605 
         -25        24.06  5.31301e-05  4.65178e-06     -6.59577 
         -25      24.2107  5.31824e-05  4.82815e-06      -6.5955 
         -25      24.3617  5.32289e-05  5.02002e-06     -6.59522 
         -25      24.5133   5.3257e-05  5.22233e-06     -6.59494 
         -25      24.6653  5.32589e-05  5.43051e-06     -6.59466 
         -25      24.8178  5.32307e-05  5.64171e-06     -6.59438 
         -25      24.9708  5.31721e-05  5.85367e-06     -6.59409 
         -25      25.1242  5.30857e-05  6.06514e-06      -6.5938 
         -25      25.2781  5.29764e-05  6.27634e-06     -6.59351 
         -25      25.4324  5.28511e-05  6.48763e-06     -6.59322 
         -25      25.5873  5.27176e-05   6.7008e-06     -6.59292 
         -25      25.7426  5.25848e-05  6.91747e-06     -6.59263 
         -25      25.8984  5.24615e-05  7.14028e-06     -6.59233 
         -25      26.0546  5.23565e-05  7.37129e-06     -6.59203 
         -25      26.2114  5.22779e-05  7.61311e-06     -6.59172 
         -25      26.3686  5.22326e-05   7.8673e-06     -6.59142 
         -25      26.5262   5.2226e-05  8.13451e-06     -6.59111 
         -25      26.6844  5.22615e-05  8.41481e-06      -6.5908 
         -25      26.8429  5.23406e-05  8.70567e-06     -6.59048 
         -25       27.002  5.24619e-05  9.00328e-06     -6.59017 
         -25      27.1615  5.26214e-05  9.30012e-06     -6.58985 
         -25      27.3216  5.28122e-05  9.58627e-06     -6.58953 
         -25      27.4821  5.30243e-05  9.84707e-06     -6.58921 
         -25       27.643  5.32439e-05  1.00632e-05     -6.58888 
         -25      27.8044  5.34546e-05  1.02104e-05     -6.58855 
         -25      27.9663  5.36361e-05  1.02573e-05     -6.58823 
         -25      28.1287  5.37653e-05  1.01659e-05     -6.58789 
         -25      28.2914  5.38154e-05  9.88974e-06     -6.58756 
         -25      28.4548   5.3757e-05  9.37272e-06     -6.58722 
         -25      28.6185  5.35579e-05  8.54954e-06     -6.58688 
         -25      28.7828  5.32049e-05  8.06121e-06     -6.58654 
         -25      28.9475  5.28564e-05  8.75912e-06      -6.5862 
         -25      29.1126  5.25408e-05  9.50109e-06     -6.58585 
         -25      29.2784  5.07779e-05  9.52642e-06     -6.58551 
         -25      29.4444  4.99673e-05  9.21541e-06     -6.58516 
         -25       29.611  5.04365e-05  9.35808e-06      -6.5848 
         -25       29.778  5.09664e-05  9.51592e-06     -6.58445 
         -25      29.9456  5.13481e-05  9.47487e-06     -6.58409 
         -25      30.1137  5.15819e-05  9.32033e-06     -6.58373 
         -25      30.2821  5.16813e-05  9.11761e-06     -6.58337 
         -25      30.4511  5.16689e-05  8.91359e-06       -6.583 
         -25      30.6204  5.15723e-05  8.74038e-06     -6.58264 
         -25      30.7903  5.14216e-05  8.61646e-06     -6.58227 
         -25      30.9606  5.12471e-05  8.55007e-06      -6.5819 
         -25      31.1315  5.10758e-05  8.54059e-06     -6.58152 
         -25      31.3028  5.09305e-05  8.58108e-06     -6.58114 
         -25      31.4745  5.08281e-05   8.6599e-06     -6.58077 
         -25      31.6468  5.07778e-05  8.76283e-06     -6.58038 
         -25      31.8194  5.07816e-05  8.87422e-06        -6.58 
         -25      31.9926  5.08333e-05  8.97907e-06     -6.57962 
         -25      32.1662  5.09197e-05  9.06366e-06     -6.57923 
         -25      32.3404   5.1021e-05  9.11725e-06     -6.57884 
         -25      32.5149   5.1113e-05   9.1325e-06     -6.57844 
         -25        32.69  5.11691e-05  9.10642e-06     -6.57805 
         -25      32.8655   5.1163e-05  9.04071e-06     -6.57765 
         -25      33.0414  5.10728e-05  8.94212e-06     -6.57725 
         -25       33.218  5.08853e-05    8.822e-06     -6.57685 
         -25      33.3948   5.0601e-05  8.69659e-06     -6.57644 
         -25      33.5723  5.02398e-05  8.58567e-06     -6.57604 
         -25        33.75  4.98489e-05  8.51238e-06     -6.57563 
         -25      33.9284  4.95088e-05  8.50134e-06     -6.57522 
         -25      34.1073  4.93438e-05  8.57757e-06      -6.5748 
         -25      34.2865  4.95301e-05  8.76409e-06     -6.57439 
         -25      34.4663  5.02041e-05   8.9353e-06     -6.57397 
         -25      34.6465   5.0616e-05  8.70413e-06     -6.57354 
         -25      34.8272  5.08158e-05  8.67037e-06     -6.57312 
         -25      35.0083   5.0839e-05  8.78578e-06      -6.5727 
         -25        35.19  5.07233e-05  9.00917e-06     -6.57227 
         -25      35.3721  5.05065e-05  9.30548e-06     -6.57184 
         -25      35.5546  5.02263e-05  9.64526e-06      -6.5714 
         -25      35.7377  4.99173e-05  1.00052e-05     -6.57097 
         -25      35.9211  4.96121e-05  1.03658e-05     -6.57053 
         -25      36.1052  4.93376e-05   1.0713e-05     -6.57009 
         -25      36.2895  4.91161e-05  1.10356e-05     -6.56965 
         -25      36.4745  4.89625e-05   1.1327e-05      -6.5692 
         -25      36.6598  4.88845e-05  1.15829e-05     -6.56876 
         -25      36.8457  4.88809e-05  1.18025e-05     -6.56831 
         -25      37.0321  4.89412e-05  1.19873e-05     -6.56786 
         -25      37.2188  4.90441e-05   1.2141e-05      -6.5674 
         -25      37.4062  4.91578e-05  1.22697e-05     -6.56695 
         -25      37.5938  4.92382e-05  1.23815e-05     -6.56649 
         -25      37.7821  4.92291e-05  1.24863e-05     -6.56603 
         -25      37.9707  4.90614e-05  1.25957e-05     -6.56557 
         -25      38.1599  4.86524e-05  1.27237e-05      -6.5651 
         -25      38.3496  4.79059e-05  1.28858e-05     -6.56463 
         -25      38.5396  4.72905e-05  1.30187e-05     -6.56416 
         -25      38.7302  4.73348e-05  1.30148e-05     -6.56369 
         -25      38.9211   4.7403e-05  1.29516e-05     -6.56322 
         -25      39.1127  4.74814e-05  1.28393e-05     -6.56274 
         -25      39.3046  4.75552e-05  1.26936e-05     -6.56226 
         -25      39.4971  4.76098e-05  1.25335e-05     -6.56178 
         -25      39.6899  4.76325e-05  1.23806e-05      -6.5613 
         -25      39.8833  4.76135e-05   1.2256e-05     -6.56081 
         -25      40.0772  4.75476e-05  1.21789e-05     -6.56033 
         -25      40.2714  4.74362e-05  1.21639e-05     -6.55984 
         -25      40.4663  4.72888e-05  1.22184e-05     -6.55934 
         -25      40.6615  4.71253e-05  1.23399e-05     -6.55885 
         -25      40.8573  4.69779e-05  1.25128e-05     -6.55835 
         -25      41.0534   4.7068e-05  1.26227e-05     -6.55786 
         -25      41.2501  4.72752e-05  1.26978e-05     -6.55735 
         -25      41.4473  4.73211e-05  1.28567e-05     -6.55685 
         -25      41.6448  4.72531e-05  1.30721e-05     -6.55635 
         -25      41.8429  4.71101e-05  1.33216e-05     -6.55584 
         -25      42.0414  4.69233e-05  1.35862e-05     -6.55533 
         -25      42.2405  4.67171e-05  1.38512e-05     -6.55482 
         -25      42.4399  4.65101e-05  1.41045e-05     -6.55431 
         -25      42.6399  4.63151e-05  1.43376e-05     -6.55379 
         -25      42.8404  4.61409e-05  1.45442e-05     -6.55327 
         -25      43.0412  4.59921e-05  1.47204e-05     -6.55275 
         -25      43.2426    4.587e-05  1.48645e-05     -6.55223 
         -25      43.4444  4.57738e-05  1.49763e-05     -6.55171 
         -25      43.6467  4.57001e-05  1.50571e-05     -6.55118 
         -25      43.8494  4.56446e-05  1.51093e-05     -6.55065 
         -25      44.0527  4.56018e-05  1.51362e-05     -6.55012 
         -25      44.2563  4.55659e-05  1.51415e-05     -6.54959 
         -25      44.4606   4.5531e-05  1.51297e-05     -6.54906 
         -25      44.6653  4.54916e-05  1.51048e-05     -6.54852 
         -25      44.8704   4.5443e-05  1.50714e-05     -6.54798 
         -25       45.076   4.5381e-05  1.50333e-05     -6.54744 
         -25       45.282  4.53033e-05  1.49941e-05      -6.5469 
         -25      45.4886  4.52081e-05  1.49569e-05     -6.54636 
         -25      45.6955  4.50957e-05  1.49238e-05     -6.54581 
         -25       45.903  4.49672e-05  1.48964e-05     -6.54526 
         -25      46.1111  4.48254e-05  1.48751e-05     -6.54471 
         -25      46.3194  4.46743e-05  1.48594e-05     -6.54416 
         -25      46.5283  4.45187e-05  1.48479e-05     -6.54361 
         -25      46.7376  4.43642e-05  1.48381e-05     -6.54305 
         -25      46.9475  4.42168e-05  1.48264e-05     -6.54249 
         -25      47.1577  4.40823e-05  1.48083e-05     -6.54193 
         -25      47.3685  4.39656e-05  1.47785e-05     -6.54137 
         -25      47.5798  4.38706e-05  1.47308e-05     -6.54081 
         -25      47.7914  4.37989e-05  1.46586e-05     -6.54024 
         -25      48.0037  4.37767e-05  1.45503e-05     -6.53968 