Variables = x, y, u, v, p

Zone, I=800, F=POINT
          -5            0            0            0      20.0748 
          -5     0.000234 -4.17452e-06 -2.50956e-11      20.0748 
          -5     0.000939 -1.57293e-05 -3.43555e-11      20.0748 
          -5     0.002113 -3.18391e-05  1.75023e-10      20.0748 
          -5     0.003759  -4.8731e-05  9.52038e-10      20.0748 
          -5     0.005872 -6.25783e-05  2.79334e-09      20.0748 
          -5     0.008457 -7.07168e-05  6.34934e-09      20.0748 
          -5      0.01151 -7.22611e-05  1.23848e-08      20.0748 
          -5     0.015036 -6.83831e-05  2.17601e-08      20.0748 
          -5     0.019031 -6.18407e-05  3.53351e-08      20.0748 
          -5     0.023493 -5.59257e-05  5.39266e-08      20.0748 
          -5     0.028429 -5.30975e-05  7.83193e-08      20.0748 
          -5     0.033831 -5.38534e-05  1.09178e-07      20.0748 
          -5     0.039706 -5.63566e-05  1.47298e-07      20.0748 
          -5     0.046047 -5.73872e-05  1.93611e-07      20.0748 
          -5     0.052863 -5.46467e-05  2.49563e-07      20.0748 
          -5      0.06015 -4.95138e-05  3.16913e-07      20.0748 
          -5       0.0679 -4.76804e-05  3.97274e-07      20.0748 
          -5     0.076126 -5.23821e-05  4.90798e-07      20.0748 
          -5     0.084816 -4.71684e-05  5.92492e-07      20.0748 
          -5     0.093982 -4.80965e-05  7.17154e-07      20.0748 
          -5     0.103611 -4.81497e-05  8.65362e-07      20.0748 
          -5     0.113718 -4.78699e-05  1.02656e-06      20.0748 
          -5     0.124286 -4.76439e-05  1.19703e-06      20.0748 
          -5     0.135333 -4.76855e-05  1.37997e-06      20.0748 
          -5      0.14685 -4.80478e-05  1.58193e-06      20.0748 
          -5     0.158827 -4.86627e-05  1.80962e-06      20.0748 
          -5     0.171284  -4.9409e-05  2.06642e-06      20.0748 
          -5     0.184201 -5.01866e-05  2.34782e-06      20.0748 
          -5     0.197599  -5.0988e-05  2.64287e-06      20.0748 
          -5     0.211455 -5.19132e-05  2.93809e-06      20.0748 
          -5     0.225792  -5.3094e-05  3.23544e-06      20.0748 
          -5       0.2406 -5.44335e-05  3.58257e-06      20.0748 
          -5     0.255865 -5.55132e-05  4.03618e-06      20.0748 
          -5     0.271613 -5.68114e-05  4.45592e-06      20.0748 
          -5     0.287818 -5.80488e-05  4.86924e-06      20.0748 
          -5     0.304506 -5.92482e-05  5.28789e-06      20.0748 
          -5      0.32165 -6.04236e-05  5.72289e-06      20.0748 
          -5     0.339278 -6.15605e-05  6.17509e-06      20.0748 
          -5     0.357377  -6.2642e-05  6.64426e-06      20.0748 
          -5      0.37593 -6.36518e-05  7.12997e-06      20.0748 
          -5     0.394968 -6.45777e-05  7.63296e-06      20.0748 
          -5     0.414461 -6.54052e-05  8.15229e-06      20.0748 
          -5      0.43444 -6.61246e-05  8.68853e-06      20.0748 
          -5     0.454872 -6.67256e-05  9.24045e-06      20.0748 
          -5     0.475791 -6.72022e-05  9.80851e-06      20.0748 
          -5     0.497163 -6.75491e-05  1.03912e-05      20.0748 
          -5     0.519021 -6.77648e-05  1.09888e-05      20.0748 
          -5      0.54135 -6.78499e-05     1.16e-05      20.0748 
          -5     0.564131 -6.78078e-05  1.22234e-05      20.0748 
          -5       0.5874 -6.76447e-05  1.28589e-05      20.0748 
          -5     0.611121 -6.73698e-05  1.35045e-05      20.0748 
          -5      0.63533  -6.6994e-05  1.41597e-05      20.0748 
          -5      0.65999 -6.65316e-05  1.48223e-05      20.0749 
          -5     0.685139 -6.59978e-05  1.54918e-05      20.0749 
          -5     0.710759 -6.54103e-05  1.61661e-05      20.0749 
          -5     0.736828 -6.47885e-05  1.68431e-05      20.0749 
          -5     0.763387 -6.41508e-05   1.7522e-05      20.0749 
          -5     0.790396 -6.35181e-05  1.82001e-05      20.0749 
          -5     0.817896 -6.29088e-05  1.88767e-05      20.0749 
          -5     0.845843 -6.23426e-05  1.95489e-05      20.0749 
          -5     0.874283 -6.18356e-05  2.02159e-05      20.0749 
          -5      0.90317 -6.14037e-05   2.0875e-05      20.0749 
          -5     0.932551  -6.1059e-05  2.15255e-05      20.0749 
          -5     0.962401 -6.08116e-05  2.21652e-05      20.0749 
          -5     0.992697 -6.06683e-05   2.2792e-05      20.0749 
          -5      1.02349 -6.06325e-05  2.34054e-05      20.0749 
          -5      1.05472  -6.0705e-05   2.4003e-05      20.0749 
          -5      1.08645 -6.08844e-05  2.45846e-05       20.075 
          -5      1.11863 -6.11678e-05  2.51481e-05       20.075 
          -5       1.1513 -6.15848e-05  2.56948e-05       20.075 
          -5      1.18444  -6.2128e-05  2.62279e-05       20.075 
          -5      1.21802 -6.26158e-05  2.67403e-05       20.075 
          -5      1.25211 -6.30854e-05  2.72325e-05       20.075 
          -5      1.28663 -6.35591e-05  2.77037e-05       20.075 
          -5      1.32165 -6.40491e-05  2.81551e-05       20.075 
          -5      1.35712 -6.45561e-05  2.85867e-05       20.075 
          -5      1.39308 -6.50743e-05  2.89995e-05      20.0751 
          -5      1.42951 -6.55909e-05  2.93938e-05      20.0751 
          -5      1.46638 -6.60895e-05  2.97692e-05      20.0751 
          -5      1.50375 -6.65536e-05  3.01258e-05      20.0751 
          -5      1.54156 -6.69663e-05  3.04622e-05      20.0751 
          -5      1.57987 -6.73151e-05  3.07769e-05      20.0751 
          -5      1.61863 -6.75916e-05  3.10669e-05      20.0751 
          -5      1.65788  -6.7795e-05   3.1329e-05      20.0752 
          -5      1.69757 -6.79313e-05  3.15584e-05      20.0752 
          -5      1.73776 -6.80151e-05  3.17504e-05      20.0752 
          -5      1.77842 -6.80685e-05  3.18988e-05      20.0752 
          -5      1.81952 -6.81069e-05  3.20728e-05      20.0752 
          -5      1.86113 -6.81835e-05  3.21965e-05      20.0752 
          -5      1.90316 -6.83351e-05  3.22662e-05      20.0753 
          -5      1.94571  -6.8596e-05  3.22878e-05      20.0753 
          -5      1.98869 -6.89933e-05  3.22673e-05      20.0753 
          -5      2.03217 -6.95416e-05  3.22119e-05      20.0753 
          -5      2.07612 -7.02315e-05  3.21321e-05      20.0753 
          -5      2.12051 -7.10903e-05  3.20134e-05      20.0754 
          -5       2.1654 -7.21274e-05  3.18335e-05      20.0754 
          -5      2.21073 -7.32824e-05  3.16243e-05      20.0754 
          -5      2.25656 -7.45342e-05  3.13991e-05      20.0754 
          -5      2.30283 -7.58455e-05  3.11661e-05      20.0755 
          -5       2.3496 -7.71713e-05  3.09267e-05      20.0755 
          -5      2.39685 -7.84928e-05  3.07027e-05      20.0755 
          -5      2.44452 -7.97717e-05  3.05068e-05      20.0755 
          -5      2.49271 -8.09452e-05  3.03296e-05      20.0756 
          -5      2.54132  -8.1982e-05    3.018e-05      20.0756 
          -5      2.59044 -8.28602e-05  3.00639e-05      20.0756 
          -5         2.64 -8.35613e-05  2.99857e-05      20.0756 
          -5      2.69006 -8.40759e-05  2.99473e-05      20.0757 
          -5      2.74056 -8.43997e-05  2.99489e-05      20.0757 
          -5      2.79156 -8.45367e-05  2.99886e-05      20.0757 
          -5      2.84304 -8.44969e-05  3.00629e-05      20.0757 
          -5      2.89494 -8.42974e-05   3.0166e-05      20.0758 
          -5      2.94735 -8.39605e-05   3.0291e-05      20.0758 
          -5       3.0002 -8.35141e-05  3.04283e-05      20.0758 
          -5      3.05355 -8.29884e-05  3.05669e-05      20.0758 
          -5      3.10733 -8.24165e-05  3.06934e-05      20.0759 
          -5      3.16163 -8.18296e-05  3.07918e-05      20.0759 
          -5      3.21639 -8.12565e-05  3.08435e-05      20.0759 
          -5      3.27158 -8.07199e-05  3.08266e-05       20.076 
          -5      3.32729   -8.023e-05  3.07151e-05       20.076 
          -5      3.38342 -7.99442e-05  3.05667e-05       20.076 
          -5      3.44007 -7.99424e-05  3.03532e-05      20.0761 
          -5      3.49714 -8.00022e-05  2.99877e-05      20.0761 
          -5      3.55472 -8.01217e-05  2.95295e-05      20.0761 
          -5      3.61273 -8.02747e-05  2.90197e-05      20.0762 
          -5      3.67125 -8.04167e-05  2.84891e-05      20.0762 
          -5      3.73025 -8.04933e-05  2.79688e-05      20.0762 
          -5      3.78967 -8.04542e-05  2.74937e-05      20.0762 
          -5      3.84961 -8.02699e-05  2.71018e-05      20.0763 
          -5      3.90996 -7.99557e-05  2.68326e-05      20.0763 
          -5      3.97084 -7.97864e-05  2.63836e-05      20.0763 
          -5      4.03214 -7.94873e-05   2.6042e-05      20.0764 
          -5      4.09395 -7.91347e-05  2.57583e-05      20.0764 
          -5      4.15624 -7.87799e-05   2.5497e-05      20.0764 
          -5      4.21895 -7.84496e-05   2.5238e-05      20.0765 
          -5      4.28217 -7.81511e-05  2.49722e-05      20.0765 
          -5      4.34582 -7.78792e-05  2.46994e-05      20.0765 
          -5      4.40998 -7.76201e-05  2.44237e-05      20.0766 
          -5      4.47457 -7.73576e-05  2.41521e-05      20.0766 
          -5      4.53968 -7.70758e-05  2.38906e-05      20.0766 
          -5      4.60525 -7.67637e-05  2.36438e-05      20.0766 
          -5      4.67125  -7.6417e-05   2.3413e-05      20.0767 
          -5      4.73777 -7.60387e-05  2.31955e-05      20.0767 
          -5       4.8047  -7.5641e-05  2.29866e-05      20.0767 
          -5      4.87216 -7.52408e-05  2.27795e-05      20.0768 
          -5      4.94003 -7.48597e-05  2.25699e-05      20.0768 
          -5      5.00843  -7.4515e-05  2.23587e-05      20.0768 
          -5      5.07724 -7.42154e-05  2.21596e-05      20.0768 
          -5      5.14658 -7.39479e-05  2.20051e-05      20.0769 
          -5      5.21639 -7.35396e-05  2.18009e-05      20.0769 
          -5      5.28661 -7.30866e-05  2.16764e-05      20.0769 
          -5      5.35736   -7.305e-05  2.16418e-05       20.077 
          -5      5.42852 -7.29095e-05  2.15533e-05       20.077 
          -5      5.50021 -7.26489e-05  2.14496e-05       20.077 
          -5      5.57231 -7.23595e-05  2.13521e-05       20.077 
          -5      5.64493 -7.20692e-05  2.12316e-05       20.077 
          -5      5.71803  -7.1794e-05  2.10735e-05      20.0771 
          -5      5.79154 -7.15399e-05  2.08738e-05      20.0771 
          -5      5.86558  -7.1305e-05  2.06359e-05      20.0771 
          -5      5.94003 -7.10836e-05   2.0369e-05      20.0771 
          -5      6.01501 -7.08667e-05  2.00837e-05      20.0771 
          -5       6.0904 -7.06455e-05  1.97916e-05      20.0772 
          -5      6.16632  -7.0412e-05  1.95016e-05      20.0772 
          -5      6.24271 -7.01612e-05  1.92206e-05      20.0772 
          -5       6.3195 -6.98918e-05  1.89511e-05      20.0772 
          -5      6.39683 -6.96059e-05  1.86912e-05      20.0772 
          -5      6.47457 -6.93101e-05   1.8436e-05      20.0772 
          -5      6.55284 -6.90131e-05  1.81779e-05      20.0772 
          -5      6.63152 -6.87261e-05  1.79097e-05      20.0773 
          -5      6.71073  -6.8458e-05  1.76271e-05      20.0773 
          -5      6.79034 -6.82146e-05  1.73338e-05      20.0773 
          -5      6.87049 -6.79921e-05  1.70461e-05      20.0773 
          -5      6.95111 -6.77734e-05  1.68014e-05      20.0773 
          -5      7.03214 -6.75207e-05   1.6642e-05      20.0773 
          -5       7.1137 -6.72891e-05  1.60674e-05      20.0773 
          -5      7.19566 -6.71338e-05  1.56423e-05      20.0773 
          -5      7.27816 -6.70288e-05  1.52957e-05      20.0773 
          -5      7.36106 -6.69539e-05  1.49862e-05      20.0773 
          -5      7.44451 -6.68931e-05  1.46929e-05      20.0773 
          -5      7.52842 -6.68346e-05  1.44108e-05      20.0773 
          -5      7.61273 -6.67703e-05  1.41435e-05      20.0773 
          -5      7.69758 -6.66948e-05  1.38976e-05      20.0773 
          -5      7.78283 -6.66055e-05  1.36799e-05      20.0772 
          -5      7.86862 -6.65016e-05  1.34918e-05      20.0772 
          -5      7.95481 -6.63838e-05  1.33284e-05      20.0772 
          -5      8.04155 -6.62539e-05  1.31766e-05      20.0772 
          -5      8.12868 -6.61143e-05  1.30154e-05      20.0772 
          -5      8.21635 -6.59676e-05  1.28176e-05      20.0772 
          -5      8.30449 -6.58166e-05  1.25535e-05      20.0771 
          -5      8.39303 -6.56638e-05  1.21967e-05      20.0771 
          -5      8.48211  -6.5511e-05    1.173e-05      20.0771 
          -5      8.57159 -6.53484e-05   1.1339e-05      20.0771 
          -5      8.66161   -6.517e-05  1.10863e-05       20.077 
          -5      8.75203 -6.49836e-05  1.08515e-05       20.077 
          -5      8.84299 -6.47974e-05  1.06201e-05       20.077 
          -5      8.93443 -6.46323e-05  1.03177e-05      20.0769 
          -5      9.02626 -6.45213e-05  9.79602e-06      20.0769 
          -5      9.11863 -6.44239e-05  9.44102e-06      20.0769 
          -5      9.21139 -6.43347e-05  9.16655e-06      20.0768 
          -5      9.30471 -6.42702e-05  8.82265e-06      20.0768 
          -5      9.39841 -6.42186e-05  8.49279e-06      20.0767 
          -5      9.49267 -6.41736e-05  8.21382e-06      20.0767 
          -5      9.58739 -6.41345e-05  7.98615e-06      20.0766 
          -5      9.68251  -6.4088e-05  7.78566e-06      20.0766 
          -5      9.77817 -6.38865e-05  7.62669e-06      20.0765 
          -5      9.87422 -6.36169e-05  7.49967e-06      20.0765 
          -5      9.97083 -6.33174e-05  7.40878e-06      20.0764 
          -5      10.0678 -6.30232e-05  7.35452e-06      20.0764 
          -5      10.1654  -6.2762e-05  7.33109e-06      20.0763 
          -5      10.2633 -6.25527e-05  7.32604e-06      20.0762 
          -5      10.3618  -6.2403e-05  7.32083e-06      20.0762 
          -5      10.4607  -6.2311e-05  7.29344e-06      20.0761 
          -5      10.5601 -6.22652e-05  7.22279e-06       20.076 
          -5        10.66 -6.22483e-05  7.09486e-06      20.0759 
          -5      10.7603 -6.22419e-05  6.91182e-06      20.0759 
          -5      10.8611 -6.22327e-05  6.70219e-06      20.0758 
          -5      10.9623  -6.2221e-05   6.5355e-06      20.0757 
          -5      11.0641 -6.22315e-05  6.53763e-06      20.0756 
          -5      11.1663 -6.23262e-05  6.91135e-06      20.0755 
          -5       11.269 -6.24801e-05   7.3351e-06      20.0754 
          -5      11.3721 -6.24383e-05  6.76428e-06      20.0753 
          -5      11.4757 -6.24191e-05  6.33271e-06      20.0752 
          -5      11.5798 -6.24155e-05  6.01965e-06      20.0751 
          -5      11.6844 -6.24215e-05  5.80131e-06       20.075 
          -5      11.7894 -6.24319e-05  5.65059e-06      20.0749 
          -5       11.895 -6.24421e-05  5.54031e-06      20.0748 
          -5      12.0009 -6.24486e-05  5.44429e-06      20.0747 
          -5      12.1073 -6.24486e-05  5.33908e-06      20.0746 
          -5      12.2142 -6.24404e-05  5.20622e-06      20.0745 
          -5      12.3216 -6.24236e-05   5.0332e-06      20.0744 
          -5      12.4294  -6.2399e-05    4.816e-06      20.0743 
          -5      12.5378 -6.23693e-05  4.55952e-06      20.0741 
          -5      12.6465 -6.23394e-05  4.28048e-06       20.074 
          -5      12.7558 -6.23162e-05  4.00721e-06      20.0739 
          -5      12.8656 -6.21161e-05  3.72895e-06      20.0737 
          -5      12.9757 -6.18997e-05  3.42452e-06      20.0736 
          -5      13.0864 -6.16972e-05  3.12125e-06      20.0735 
          -5      13.1975 -6.15164e-05  2.84943e-06      20.0733 
          -5      13.3092 -6.13616e-05  2.63788e-06      20.0732 
          -5      13.4212 -6.12344e-05  2.51172e-06       20.073 
          -5      13.5338  -6.1134e-05  2.48634e-06      20.0729 
          -5      13.6468 -6.10598e-05  2.56263e-06      20.0727 
          -5      13.7603  -6.1012e-05  2.71973e-06      20.0725 
          -5      13.8743 -6.09944e-05  2.90806e-06      20.0724 
          -5      13.9886 -6.10174e-05  3.03974e-06      20.0722 
          -5      14.1036 -6.11009e-05  2.97946e-06       20.072 
          -5      14.2189 -6.10605e-05  3.21397e-06      20.0719 
          -5      14.3348 -6.07806e-05  3.99698e-06      20.0717 
          -5       14.451 -6.05816e-05  4.43678e-06      20.0715 
          -5      14.5678 -6.04727e-05  4.62098e-06      20.0713 
          -5      14.6851  -6.0451e-05  4.62341e-06      20.0712 
          -5      14.8028 -6.05037e-05  4.50635e-06       20.071 
          -5       14.921 -6.06112e-05  4.32012e-06      20.0708 
          -5      15.0396 -6.07491e-05  4.10463e-06      20.0706 
          -5      15.1588 -6.08913e-05  3.88904e-06      20.0704 
          -5      15.2783 -6.10113e-05  3.69398e-06      20.0702 
          -5      15.3984 -6.10851e-05  3.53117e-06        20.07 
          -5       15.519  -6.1092e-05  3.40567e-06      20.0698 
          -5        15.64 -6.10173e-05  3.31648e-06      20.0695 
          -5      15.7615 -6.08525e-05  3.25779e-06      20.0693 
          -5      15.8834 -6.05971e-05  3.22088e-06      20.0691 
          -5      16.0058 -6.02587e-05  3.19532e-06      20.0689 
          -5      16.1286 -6.02624e-05  3.01119e-06      20.0687 
          -5       16.252  -6.0447e-05  2.70003e-06      20.0684 
          -5      16.3759  -6.0555e-05  2.37397e-06      20.0682 
          -5      16.5002 -6.05846e-05  2.05404e-06      20.0679 
          -5       16.625 -6.05393e-05  1.75708e-06      20.0677 
          -5      16.7501  -6.0428e-05  1.49692e-06      20.0675 
          -5      16.8759 -6.02654e-05  1.28192e-06      20.0672 
          -5       17.002  -6.0073e-05  1.11593e-06       20.067 
          -5      17.1287 -5.98782e-05  9.96317e-07      20.0667 
          -5      17.2557 -5.97162e-05  9.14335e-07      20.0664 
          -5      17.3834 -5.96283e-05  8.53656e-07      20.0662 
          -5      17.5115 -5.96636e-05  7.90185e-07      20.0659 
          -5      17.6399 -5.98777e-05  6.91161e-07      20.0656 
          -5       17.769 -6.03338e-05  5.14164e-07      20.0654 
          -5      17.8984 -6.03089e-05  9.63481e-07      20.0651 
          -5      18.0284 -6.01066e-05  1.24284e-06      20.0648 
          -5      18.1587 -5.98588e-05  1.34386e-06      20.0645 
          -5      18.2896 -5.96224e-05  1.33514e-06      20.0642 
          -5       18.421 -5.94428e-05  1.27144e-06      20.0639 
          -5      18.5528 -5.93531e-05  1.19632e-06      20.0636 
          -5      18.6851 -5.93739e-05  1.14368e-06      20.0633 
          -5      18.8178 -5.95143e-05  1.14018e-06       20.063 
          -5      18.9511 -5.97717e-05  1.20675e-06      20.0627 
          -5      19.0847 -6.01313e-05  1.36027e-06      20.0624 
          -5      19.2189 -6.03005e-05  1.45179e-06      20.0621 
          -5      19.3535 -6.00762e-05   1.2445e-06      20.0617 
          -5      19.4886 -5.99265e-05  9.83006e-07      20.0614 
          -5      19.6242 -5.98351e-05  6.86205e-07      20.0611 
          -5      19.7602 -5.97867e-05   3.7511e-07      20.0607 
          -5      19.8968 -5.97676e-05  7.00283e-08      20.0604 
          -5      20.0337 -5.97661e-05 -2.09571e-07      20.0601 
          -5      20.1712 -5.97723e-05 -4.48591e-07      20.0597 
          -5      20.3091 -5.97784e-05 -6.36073e-07      20.0594 
          -5      20.4475 -5.97785e-05 -7.67969e-07       20.059 
          -5      20.5864 -5.97677e-05 -8.47075e-07      20.0586 
          -5      20.7257 -5.97417e-05 -8.84504e-07      20.0583 
          -5      20.8655 -5.96955e-05 -9.00174e-07      20.0579 
          -5      21.0058 -5.96225e-05 -9.22936e-07      20.0575 
          -5      21.1465 -5.95125e-05 -9.90795e-07      20.0572 
          -5      21.2877 -5.93503e-05 -1.15032e-06      20.0568 
          -5      21.4294 -5.91127e-05 -1.45664e-06      20.0564 
          -5      21.5716 -5.87669e-05 -1.97168e-06       20.056 
          -5      21.7142 -5.92819e-05 -1.47234e-06      20.0556 
          -5      21.8573 -5.96246e-05 -9.59969e-07      20.0552 
          -5      22.0008 -5.96579e-05  -6.9679e-07      20.0548 
          -5      22.1449 -5.95061e-05 -6.21871e-07      20.0544 
          -5      22.2893 -5.92669e-05 -6.79458e-07       20.054 
          -5      22.4344 -5.90137e-05 -8.19512e-07      20.0536 
          -5      22.5797 -5.87997e-05 -9.98414e-07      20.0532 
          -5      22.7257 -5.86596e-05 -1.18018e-06      20.0527 
          -5      22.8721 -5.86135e-05 -1.33564e-06      20.0523 
          -5      23.0189 -5.86686e-05 -1.44261e-06      20.0519 
          -5      23.1663 -5.88215e-05 -1.48525e-06      20.0514 
          -5       23.314 -5.90607e-05 -1.45222e-06       20.051 
          -5      23.4623 -5.92851e-05 -1.38343e-06      20.0506 
          -5       23.611  -5.9172e-05 -1.43775e-06      20.0501 
          -5      23.7602 -5.90685e-05 -1.42672e-06      20.0497 
          -5        23.91 -5.89798e-05 -1.37874e-06      20.0492 
          -5        24.06 -5.89095e-05 -1.31962e-06      20.0487 
          -5      24.2107 -5.88589e-05 -1.27156e-06      20.0483 
          -5      24.3617 -5.88273e-05 -1.25261e-06      20.0478 
          -5      24.5133 -5.88112e-05 -1.27569e-06      20.0473 
          -5      24.6653 -5.88049e-05 -1.34781e-06      20.0468 
          -5      24.8178 -5.88004e-05 -1.46945e-06      20.0463 
          -5      24.9708 -5.87881e-05 -1.63346e-06      20.0459 
          -5      25.1242 -5.87575e-05 -1.82422e-06      20.0454 
          -5      25.2781 -5.86978e-05 -2.01749e-06      20.0449 
          -5      25.4324 -5.85999e-05 -2.17853e-06      20.0444 
          -5      25.5873 -5.84565e-05 -2.26241e-06      20.0438 
          -5      25.7426 -5.82655e-05 -2.21233e-06      20.0433 
          -5      25.8984 -5.80305e-05 -1.95922e-06      20.0428 
          -5      26.0546 -5.77643e-05 -1.42147e-06      20.0423 
          -5      26.2114 -5.78034e-05 -1.45887e-06      20.0418 
          -5      26.3686 -5.80016e-05 -1.87725e-06      20.0412 
          -5      26.5262 -5.81453e-05 -2.13748e-06      20.0407 
          -5      26.6844 -5.82412e-05 -2.28359e-06      20.0401 
          -5      26.8429 -5.82964e-05 -2.35213e-06      20.0396 
          -5       27.002 -5.83187e-05 -2.37351e-06      20.0391 
          -5      27.1615 -5.83156e-05 -2.37177e-06      20.0385 
          -5      27.3216 -5.82945e-05 -2.36518e-06      20.0379 
          -5      27.4821 -5.82621e-05 -2.36658e-06      20.0374 
          -5       27.643 -5.82245e-05 -2.38391e-06      20.0368 
          -5      27.8044 -5.81867e-05 -2.42078e-06      20.0362 
          -5      27.9663 -5.81526e-05 -2.47699e-06      20.0356 
          -5      28.1287 -5.81247e-05  -2.5494e-06      20.0351 
          -5      28.2914 -5.81045e-05 -2.63245e-06      20.0345 
          -5      28.4548 -5.80918e-05 -2.71933e-06      20.0339 
          -5      28.6185 -5.80854e-05 -2.80248e-06      20.0333 
          -5      28.7828 -5.80827e-05 -2.87505e-06      20.0327 
          -5      28.9475 -5.80799e-05 -2.93159e-06      20.0321 
          -5      29.1126 -5.80726e-05 -2.96942e-06      20.0315 
          -5      29.2784 -5.80556e-05 -2.98997e-06      20.0308 
          -5      29.4444 -5.80233e-05 -2.99993e-06      20.0302 
          -5       29.611 -5.79703e-05 -3.01293e-06      20.0296 
          -5       29.778 -5.78918e-05 -3.05091e-06       20.029 
          -5      29.9456  -5.7784e-05 -3.14605e-06      20.0283 
          -5      30.1137  -5.7645e-05 -3.34234e-06      20.0277 
          -5      30.2821 -5.74754e-05 -3.69723e-06       20.027 
          -5      30.4511 -5.72971e-05 -4.24451e-06      20.0264 
          -5      30.6204 -5.74449e-05 -4.09472e-06      20.0257 
          -5      30.7903 -5.75053e-05 -3.98765e-06      20.0251 
          -5      30.9606 -5.75004e-05 -3.92594e-06      20.0244 
          -5      31.1315 -5.74504e-05 -3.91058e-06      20.0237 
          -5      31.3028 -5.73726e-05 -3.94096e-06      20.0231 
          -5      31.4745 -5.72817e-05  -4.0141e-06      20.0224 
          -5      31.6468 -5.71884e-05 -4.12458e-06      20.0217 
          -5      31.8194 -5.71001e-05 -4.26352e-06       20.021 
          -5      31.9926 -5.70192e-05 -4.41878e-06      20.0203 
          -5      32.1662 -5.69437e-05 -4.57356e-06      20.0196 
          -5      32.3404  -5.6866e-05 -4.70669e-06      20.0189 
          -5      32.5149  -5.6773e-05  -4.7912e-06      20.0182 
          -5        32.69  -5.6645e-05 -4.79431e-06      20.0175 
          -5      32.8655 -5.66522e-05 -4.94192e-06      20.0168 
          -5      33.0414 -5.67943e-05 -5.19381e-06       20.016 
          -5       33.218 -5.69189e-05 -5.36537e-06      20.0153 
          -5      33.3948 -5.70192e-05 -5.47791e-06      20.0146 
          -5      33.5723  -5.7091e-05 -5.54956e-06      20.0138 
          -5        33.75 -5.71323e-05  -5.5948e-06      20.0131 
          -5      33.9284 -5.71428e-05 -5.62532e-06      20.0123 
          -5      34.1073 -5.71242e-05    -5.65e-06      20.0116 
          -5      34.2865 -5.70793e-05  -5.6754e-06      20.0108 
          -5      34.4663  -5.7012e-05  -5.7061e-06      20.0101 
          -5      34.6465 -5.69271e-05  -5.7448e-06      20.0093 
          -5      34.8272 -5.68297e-05 -5.79285e-06      20.0085 
          -5      35.0083 -5.67257e-05 -5.85027e-06      20.0078 
          -5        35.19 -5.66205e-05  -5.9163e-06       20.007 
          -5      35.3721 -5.65199e-05 -5.98935e-06      20.0062 
          -5      35.5546 -5.64291e-05 -6.06731e-06      20.0054 
          -5      35.7377 -5.63528e-05 -6.14802e-06      20.0046 
          -5      35.9211 -5.62952e-05 -6.22899e-06      20.0038 
          -5      36.1052 -5.62595e-05 -6.30807e-06       20.003 
          -5      36.2895  -5.6248e-05 -6.38311e-06      20.0022 
          -5      36.4745 -5.62621e-05 -6.45256e-06      20.0013 
          -5      36.6598 -5.63019e-05 -6.51512e-06      20.0005 
          -5      36.8457 -5.63666e-05 -6.57024e-06      19.9997 
          -5      37.0321 -5.64538e-05 -6.61782e-06      19.9989 
          -5      37.2188 -5.65602e-05 -6.65838e-06       19.998 
          -5      37.4062 -5.66813e-05 -6.69314e-06      19.9972 
          -5      37.5938 -5.68111e-05 -6.72377e-06      19.9963 
          -5      37.7821 -5.69432e-05 -6.75251e-06      19.9955 
          -5      37.9707 -5.70695e-05 -6.78187e-06      19.9946 
          -5      38.1599 -5.69014e-05  -6.7555e-06      19.9938 
          -5      38.3496 -5.67078e-05 -6.71576e-06      19.9929 
          -5      38.5396 -5.64984e-05  -6.6726e-06       19.992 
          -5      38.7302 -5.62814e-05 -6.63348e-06      19.9912 
          -5      38.9211 -5.60649e-05 -6.60386e-06      19.9903 
          -5      39.1127 -5.58556e-05 -6.58708e-06      19.9894 
          -5      39.3046 -5.56598e-05 -6.58479e-06      19.9885 
          -5      39.4971 -5.54818e-05  -6.5972e-06      19.9876 
          -5      39.6899 -5.53251e-05 -6.62339e-06      19.9867 
          -5      39.8833 -5.51909e-05 -6.66197e-06      19.9858 
          -5      40.0772 -5.50784e-05 -6.71139e-06      19.9849 
          -5      40.2714 -5.49847e-05 -6.77072e-06       19.984 
          -5      40.4663 -5.49037e-05  -6.8405e-06       19.983 
          -5      40.6615 -5.48264e-05 -6.92325e-06      19.9821 
          -5      40.8573 -5.47401e-05 -7.02484e-06      19.9812 
          -5      41.0534 -5.46821e-05 -7.23154e-06      19.9803 
          -5      41.2501 -5.46516e-05 -7.40709e-06      19.9793 
          -5      41.4473 -5.46387e-05 -7.50321e-06      19.9784 
          -5      41.6448 -5.46479e-05 -7.51984e-06      19.9774 
          -5      41.8429 -5.46859e-05 -7.47012e-06      19.9765 
          -5      42.0414 -5.47618e-05 -7.38014e-06      19.9755 
          -5      42.2405 -5.48862e-05  -7.2884e-06      19.9746 
          -5      42.4399 -5.50199e-05 -7.22489e-06      19.9736 
          -5      42.6399 -5.49918e-05 -7.14301e-06      19.9726 
          -5      42.8404 -5.49603e-05 -7.10373e-06      19.9716 
          -5      43.0412 -5.49213e-05  -7.1038e-06      19.9707 
          -5      43.2426 -5.48718e-05  -7.1394e-06      19.9697 
          -5      43.4444 -5.48105e-05 -7.20626e-06      19.9687 
          -5      43.6467 -5.47367e-05 -7.29995e-06      19.9677 
          -5      43.8494 -5.46512e-05 -7.41562e-06      19.9667 
          -5      44.0527  -5.4555e-05 -7.54868e-06      19.9657 
          -5      44.2563 -5.44498e-05 -7.69425e-06      19.9647 
          -5      44.4606 -5.43377e-05   -7.848e-06      19.9637 
          -5      44.6653  -5.4221e-05 -8.00553e-06      19.9626 
          -5      44.8704 -5.41022e-05 -8.16276e-06      19.9616 
          -5       45.076 -5.39836e-05 -8.31639e-06      19.9606 
          -5       45.282 -5.38674e-05 -8.46309e-06      19.9595 
          -5      45.4886 -5.37555e-05 -8.60054e-06      19.9585 
          -5      45.6955 -5.36498e-05 -8.72651e-06      19.9575 
          -5       45.903 -5.35514e-05 -8.83978e-06      19.9564 
          -5      46.1111 -5.34612e-05 -8.93943e-06      19.9554 
          -5      46.3194 -5.33797e-05 -9.02517e-06      19.9543 
          -5      46.5283 -5.33068e-05 -9.09747e-06      19.9533 
          -5      46.7376 -5.32421e-05 -9.15711e-06      19.9522 
          -5      46.9475 -5.31845e-05  -9.2056e-06      19.9511 
          -5      47.1577  -5.3133e-05 -9.24469e-06      19.9501 
          -5      47.3685  -5.3086e-05 -9.27662e-06       19.949 
          -5      47.5798 -5.30418e-05 -9.30381e-06      19.9479 
          -5      47.7914 -5.29988e-05 -9.32883e-06      19.9468 
          -5      48.0037 -5.29553e-05  -9.3543e-06      19.9457 