Variables = x, y, u, v, p

Zone, I=800, F=POINT
         950            0           -0           -0      3.46549 
         950     0.000234 -4.11607e-06 -2.84188e-11      3.46549 
         950     0.000939 -1.60502e-05  -4.3846e-10      3.46549 
         950     0.002113 -3.44837e-05 -2.20547e-09      3.46549 
         950     0.003759 -5.76759e-05 -6.97502e-09      3.46549 
         950     0.005872 -8.37159e-05 -1.70449e-08      3.46549 
         950     0.008457 -0.000111217 -3.54462e-08      3.46549 
         950      0.01151 -0.000139406 -6.58756e-08      3.46549 
         950     0.015036 -0.000168431 -1.12853e-07      3.46549 
         950     0.019031 -0.000199017  -1.8156e-07      3.46549 
         950     0.023493 -0.000232151 -2.77938e-07      3.46549 
         950     0.028429 -0.000268566 -4.08932e-07      3.46549 
         950     0.033831 -0.000308063 -5.81903e-07      3.46549 
         950     0.039706 -0.000349555 -8.05424e-07      3.46549 
         950     0.046047 -0.000391193 -1.08833e-06      3.46549 
         950     0.052863 -0.000431481 -1.44088e-06      3.46549 
         950      0.06015 -0.000470228 -1.87344e-06      3.46549 
         950       0.0679 -0.000509032 -2.39657e-06      3.46549 
         950     0.076126 -0.000549018 -3.02278e-06      3.46549 
         950     0.084816 -0.000583845  -3.7632e-06      3.46549 
         950     0.093982 -0.000617754 -4.63119e-06      3.46549 
         950     0.103611 -0.000648639 -5.63801e-06      3.46549 
         950     0.113718 -0.000676251 -6.79778e-06      3.46549 
         950     0.124286 -0.000700277 -8.12092e-06      3.46549 
         950     0.135333 -0.000720516 -9.62177e-06      3.46549 
         950      0.14685 -0.000736737 -1.13109e-05      3.46549 
         950     0.158827 -0.000748763 -1.31978e-05      3.46549 
         950     0.171284 -0.000756499 -1.52957e-05      3.46549 
         950     0.184201 -0.000759878 -1.76107e-05      3.46549 
         950     0.197599 -0.000758926 -2.01548e-05      3.46549 
         950     0.211455 -0.000753741 -2.29308e-05      3.46549 
         950     0.225792 -0.000744471  -2.5949e-05      3.46549 
         950       0.2406 -0.000731305 -2.92121e-05      3.46549 
         950     0.255865 -0.000714449 -3.27199e-05      3.46549 
         950     0.271613 -0.000694216 -3.64801e-05      3.46549 
         950     0.287818  -0.00067094 -4.04869e-05      3.46549 
         950     0.304506 -0.000644941 -4.47455e-05      3.46549 
         950      0.32165  -0.00061664 -4.92466e-05      3.46549 
         950     0.339278 -0.000586385 -5.39938e-05      3.46549 
         950     0.357377 -0.000554602 -5.89791e-05      3.46549 
         950      0.37593 -0.000521728 -6.41917e-05      3.46549 
         950     0.394968 -0.000488113 -6.96338e-05      3.46549 
         950     0.414461 -0.000454199  -7.5289e-05      3.46549 
         950      0.43444 -0.000420312 -8.11584e-05      3.46549 
         950     0.454872 -0.000386861 -8.72235e-05      3.46549 
         950     0.475791 -0.000354122 -9.34855e-05      3.46549 
         950     0.497163 -0.000322451 -9.99251e-05      3.46549 
         950     0.519021  -0.00029207 -0.000106543      3.46549 
         950      0.54135 -0.000263242 -0.000113325      3.46549 
         950     0.564131 -0.000236196 -0.000120257      3.46549 
         950       0.5874 -0.000211064 -0.000127342      3.46549 
         950     0.611121 -0.000188024 -0.000134559      3.46549 
         950      0.63533 -0.000167145 -0.000141914      3.46549 
         950      0.65999 -0.000148557 -0.000149383      3.46549 
         950     0.685139 -0.000132266 -0.000156971      3.46549 
         950     0.710759 -0.000118298 -0.000164666      3.46549 
         950     0.736828 -0.000106655 -0.000172456      3.46549 
         950     0.763387 -9.72878e-05 -0.000180346      3.46549 
         950     0.790396 -9.01571e-05 -0.000188318      3.46549 
         950     0.817896 -8.51768e-05 -0.000196377      3.46549 
         950     0.845843 -8.22564e-05 -0.000204505      3.46549 
         950     0.874283 -8.12713e-05 -0.000212706      3.46549 
         950      0.90317 -8.20825e-05 -0.000220962      3.46549 
         950     0.932551 -8.45309e-05 -0.000229277      3.46549 
         950     0.962401 -8.84377e-05 -0.000237636      3.46549 
         950     0.992697 -9.36037e-05 -0.000246027      3.46549 
         950      1.02349 -9.98293e-05 -0.000254453      3.46549 
         950      1.05472 -0.000106885 -0.000262892      3.46549 
         950      1.08645 -0.000114557 -0.000271348      3.46549 
         950      1.11863   -0.0001226   -0.0002798      3.46549 
         950       1.1513 -0.000130797  -0.00028825      3.46549 
         950      1.18444 -0.000138914 -0.000296682      3.46549 
         950      1.21802 -0.000146723 -0.000305078      3.46549 
         950      1.25211 -0.000154031 -0.000313441      3.46549 
         950      1.28663 -0.000160637 -0.000321748      3.46549 
         950      1.32165 -0.000166382 -0.000330002      3.46549 
         950      1.35712 -0.000171118 -0.000338179      3.46549 
         950      1.39308 -0.000174741 -0.000346284      3.46549 
         950      1.42951 -0.000177176 -0.000354302      3.46549 
         950      1.46638 -0.000178385 -0.000362221      3.46549 
         950      1.50375 -0.000178382 -0.000370049      3.46549 
         950      1.54156 -0.000177397  -0.00037775      3.46549 
         950      1.57987 -0.000175184 -0.000385355      3.46549 
         950      1.61863 -0.000171919 -0.000392855      3.46549 
         950      1.65788 -0.000167774 -0.000400261      3.46549 
         950      1.69757 -0.000162925 -0.000407559      3.46549 
         950      1.73776 -0.000157519 -0.000414759      3.46549 
         950      1.77842   -0.0001517 -0.000421856      3.46549 
         950      1.81952   -0.0001456  -0.00042884      3.46549 
         950      1.86113 -0.000139323 -0.000435722      3.46549 
         950      1.90316 -0.000132977 -0.000442487       3.4655 
         950      1.94571 -0.000126637 -0.000449144       3.4655 
         950      1.98869 -0.000120381  -0.00045568       3.4655 
         950      2.03217 -0.000114256   -0.0004621       3.4655 
         950      2.07612  -0.00010831 -0.000468396       3.4655 
         950      2.12051 -0.000102578 -0.000474559       3.4655 
         950       2.1654 -9.70697e-05 -0.000480594       3.4655 
         950      2.21073 -9.18004e-05 -0.000486488       3.4655 
         950      2.25656 -8.67601e-05 -0.000492243       3.4655 
         950      2.30283 -8.19459e-05 -0.000497846       3.4655 
         950       2.3496 -7.73327e-05   -0.0005033       3.4655 
         950      2.39685 -7.29006e-05 -0.000508594       3.4655 
         950      2.44452 -6.86256e-05 -0.000513719       3.4655 
         950      2.49271 -6.44705e-05 -0.000518676       3.4655 
         950      2.54132 -6.04107e-05 -0.000523451       3.4655 
         950      2.59044 -5.64091e-05 -0.000528044       3.4655 
         950         2.64 -5.24435e-05 -0.000532443       3.4655 
         950      2.69006 -4.84828e-05 -0.000536647       3.4655 
         950      2.74056 -4.45135e-05 -0.000540644       3.4655 
         950      2.79156 -4.05155e-05 -0.000544433       3.4655 
         950      2.84304 -3.64854e-05 -0.000548004       3.4655 
         950      2.89494 -3.24273e-05  -0.00055135       3.4655 
         950      2.94735 -2.83441e-05 -0.000554469      3.46551 
         950       3.0002 -2.42594e-05 -0.000557352      3.46551 
         950      3.05355 -2.01911e-05 -0.000559998      3.46551 
         950      3.10733 -1.61761e-05 -0.000562399      3.46551 
         950      3.16163 -1.22427e-05 -0.000564555      3.46551 
         950      3.21639 -8.43015e-06  -0.00056646      3.46551 
         950      3.27158  -4.7753e-06 -0.000568112      3.46551 
         950      3.32729 -1.29946e-06 -0.000569512      3.46551 
         950      3.38342  1.97727e-06 -0.000570656      3.46551 
         950      3.44007  5.06503e-06 -0.000571548      3.46551 
         950      3.49714    7.992e-06 -0.000572186      3.46551 
         950      3.55472   1.0834e-05 -0.000572576      3.46551 
         950      3.61273  1.37076e-05 -0.000572719      3.46551 
         950      3.67125  1.68022e-05 -0.000572621      3.46552 
         950      3.73025  2.03803e-05 -0.000572288      3.46552 
         950      3.78967  2.32875e-05 -0.000571725      3.46552 
         950      3.84961  2.55519e-05 -0.000570904      3.46552 
         950      3.90996  2.77325e-05 -0.000569825      3.46552 
         950      3.97084  2.98231e-05 -0.000568494      3.46552 
         950      4.03214  3.18116e-05 -0.000566922      3.46552 
         950      4.09395  3.36933e-05 -0.000565113      3.46552 
         950      4.15624  3.54597e-05 -0.000563077      3.46552 
         950      4.21895  3.71036e-05 -0.000560822      3.46553 
         950      4.28217  3.86224e-05 -0.000558353      3.46553 
         950      4.34582  4.00096e-05 -0.000555681      3.46553 
         950      4.40998  4.12641e-05 -0.000552812      3.46553 
         950      4.47457  4.23816e-05 -0.000549757      3.46553 
         950      4.53968  4.33624e-05 -0.000546519      3.46553 
         950      4.60525  4.42049e-05 -0.000543109      3.46553 
         950      4.67125  4.49088e-05 -0.000539538      3.46553 
         950      4.73777  4.54763e-05 -0.000535809      3.46553 
         950       4.8047  4.59082e-05 -0.000531934      3.46554 
         950      4.87216  4.62078e-05 -0.000527917      3.46554 
         950      4.94003  4.63779e-05 -0.000523772      3.46554 
         950      5.00843  4.64226e-05 -0.000519499      3.46554 
         950      5.07724  4.63464e-05 -0.000515114      3.46554 
         950      5.14658  4.61542e-05 -0.000510617      3.46554 
         950      5.21639  4.58515e-05  -0.00050602      3.46554 
         950      5.28661  4.54449e-05 -0.000501334      3.46554 
         950      5.35736  4.49399e-05  -0.00049656      3.46555 
         950      5.42852  4.43442e-05 -0.000491711      3.46555 
         950      5.50021  4.36638e-05 -0.000486788      3.46555 
         950      5.57231  4.29069e-05 -0.000481805      3.46555 
         950      5.64493  4.20796e-05 -0.000476762      3.46555 
         950      5.71803  4.11899e-05  -0.00047167      3.46555 
         950      5.79154  4.02458e-05 -0.000466539      3.46555 
         950      5.86558  3.92532e-05 -0.000461367      3.46555 
         950      5.94003  3.82206e-05 -0.000456169      3.46556 
         950      6.01501  3.71533e-05 -0.000450943      3.46556 
         950       6.0904  3.60596e-05 -0.000445704      3.46556 
         950      6.16632  3.49438e-05 -0.000440447      3.46556 
         950      6.24271  3.38128e-05 -0.000435184      3.46556 
         950       6.3195  3.26726e-05 -0.000429923      3.46556 
         950      6.39683  3.15262e-05 -0.000424661      3.46556 
         950      6.47457  3.03798e-05 -0.000419411      3.46556 
         950      6.55284  2.92349e-05  -0.00041417      3.46557 
         950      6.63152  2.80964e-05  -0.00040895      3.46557 
         950      6.71073  2.69646e-05 -0.000403746      3.46557 
         950      6.79034  2.58428e-05 -0.000398571      3.46557 
         950      6.87049  2.47302e-05 -0.000393419      3.46557 
         950      6.95111  2.36278e-05 -0.000388298      3.46557 
         950      7.03214  2.25358e-05 -0.000383215      3.46557 
         950       7.1137  2.14513e-05 -0.000378164      3.46558 
         950      7.19566  2.03744e-05 -0.000373156      3.46558 
         950      7.27816  1.93009e-05 -0.000368184      3.46558 
         950      7.36106    1.823e-05 -0.000363257      3.46558 
         950      7.44451  1.71569e-05  -0.00035837      3.46558 
         950      7.52842  1.60792e-05 -0.000353526      3.46558 
         950      7.61273  1.49946e-05  -0.00034873      3.46558 
         950      7.69758  1.38984e-05 -0.000343975      3.46558 
         950      7.78283  1.27898e-05 -0.000339268      3.46559 
         950      7.86862  1.16648e-05   -0.0003346      3.46559 
         950      7.95481  1.05244e-05 -0.000329977      3.46559 
         950      8.04155  9.36687e-06 -0.000325392      3.46559 
         950      8.12868   8.1959e-06 -0.000320849      3.46559 
         950      8.21635  7.01345e-06 -0.000316338      3.46559 
         950      8.30449  5.82679e-06 -0.000311861      3.46559 
         950      8.39303  4.64613e-06 -0.000307416      3.46559 
         950      8.48211  3.48238e-06 -0.000302994       3.4656 
         950      8.57159  2.35428e-06 -0.000298596       3.4656 
         950      8.66161   1.2817e-06 -0.000294211       3.4656 
         950      8.75203  2.93501e-07 -0.000289839       3.4656 
         950      8.84299 -5.78481e-07 -0.000285468       3.4656 
         950      8.93443 -1.29282e-06 -0.000281093       3.4656 
         950      9.02626 -1.19277e-06 -0.000276694       3.4656 
         950      9.11863  -1.9416e-06  -0.00027266      3.46561 
         950      9.21139 -2.90426e-06 -0.000268711      3.46561 
         950      9.30471 -3.85371e-06 -0.000264775      3.46561 
         950      9.39841 -4.79742e-06 -0.000260869      3.46561 
         950      9.49267 -5.72266e-06 -0.000256985      3.46561 
         950      9.58739 -6.62529e-06 -0.000253124      3.46561 
         950      9.68251 -7.50194e-06  -0.00024929      3.46561 
         950      9.77817 -8.35194e-06 -0.000245478      3.46562 
         950      9.87422 -9.17253e-06 -0.000241695      3.46562 
         950      9.97083 -9.96414e-06 -0.000237936      3.46562 
         950      10.0678 -1.07252e-05 -0.000234207      3.46562 
         950      10.1654  -1.1457e-05 -0.000230505      3.46562 
         950      10.2633 -1.21589e-05 -0.000226836      3.46562 
         950      10.3618 -1.28331e-05 -0.000223196      3.46562 
         950      10.4607 -1.34801e-05 -0.000219588      3.46562 
         950      10.5601 -1.41011e-05 -0.000216017      3.46563 
         950        10.66 -1.46988e-05 -0.000212479      3.46563 
         950      10.7603 -1.52743e-05 -0.000208981      3.46563 
         950      10.8611 -1.58305e-05 -0.000205517      3.46563 
         950      10.9623 -1.63687e-05 -0.000202096      3.46563 
         950      11.0641  -1.6892e-05 -0.000198711      3.46563 
         950      11.1663 -1.74022e-05 -0.000195367      3.46563 
         950       11.269  -1.7901e-05 -0.000192067      3.46564 
         950      11.3721 -1.83912e-05 -0.000188807      3.46564 
         950      11.4757 -1.88741e-05 -0.000185591      3.46564 
         950      11.5798 -1.93521e-05 -0.000182416      3.46564 
         950      11.6844  -1.9826e-05 -0.000179286      3.46564 
         950      11.7894 -2.02977e-05 -0.000176197      3.46564 
         950       11.895 -2.07681e-05 -0.000173149      3.46565 
         950      12.0009 -2.12373e-05 -0.000170146      3.46565 
         950      12.1073 -2.17067e-05 -0.000167182      3.46565 
         950      12.2142 -2.21755e-05 -0.000164261      3.46565 
         950      12.3216 -2.26442e-05 -0.000161376      3.46565 
         950      12.4294 -2.31116e-05 -0.000158532      3.46565 
         950      12.5378 -2.35775e-05 -0.000155723      3.46565 
         950      12.6465 -2.40401e-05 -0.000152952      3.46566 
         950      12.7558 -2.44986e-05 -0.000150213      3.46566 
         950      12.8656  -2.4951e-05 -0.000147506      3.46566 
         950      12.9757 -2.53949e-05 -0.000144834      3.46566 
         950      13.0864 -2.58292e-05 -0.000142189      3.46566 
         950      13.1975 -2.62511e-05 -0.000139575      3.46566 
         950      13.3092  -2.6659e-05 -0.000136986      3.46567 
         950      13.4212 -2.70504e-05 -0.000134427      3.46567 
         950      13.5338 -2.74241e-05 -0.000131892      3.46567 
         950      13.6468 -2.77782e-05 -0.000129383      3.46567 
         950      13.7603 -2.81116e-05 -0.000126904      3.46567 
         950      13.8743 -2.84243e-05  -0.00012445      3.46567 
         950      13.9886 -2.87162e-05 -0.000122028      3.46568 
         950      14.1036 -2.89892e-05 -0.000119637      3.46568 
         950      14.2189 -2.92454e-05 -0.000117285      3.46568 
         950      14.3348 -2.94891e-05 -0.000114971      3.46568 
         950       14.451 -2.97257e-05 -0.000112708      3.46568 
         950      14.5678  -2.9963e-05 -0.000110498      3.46569 
         950      14.6851 -3.02109e-05 -0.000108353      3.46569 
         950      14.8028 -3.04815e-05 -0.000106286      3.46569 
         950       14.921 -3.07906e-05 -0.000104308      3.46569 
         950      15.0396 -3.11564e-05 -0.000102437      3.46569 
         950      15.1588  -3.1366e-05 -0.000100358      3.46569 
         950      15.2783 -3.15001e-05 -9.82011e-05       3.4657 
         950      15.3984 -3.16799e-05 -9.61296e-05       3.4657 
         950       15.519 -3.18937e-05 -9.41283e-05       3.4657 
         950        15.64 -3.21292e-05 -9.21842e-05       3.4657 
         950      15.7615 -3.23744e-05 -9.02825e-05       3.4657 
         950      15.8834 -3.26169e-05 -8.84173e-05      3.46571 
         950      16.0058 -3.28457e-05  -8.6579e-05      3.46571 
         950      16.1286 -3.30509e-05 -8.47662e-05      3.46571 
         950       16.252 -3.32257e-05 -8.29735e-05      3.46571 
         950      16.3759 -3.33662e-05 -8.12016e-05      3.46571 
         950      16.5002 -3.34736e-05 -7.94522e-05      3.46572 
         950       16.625 -3.35551e-05 -7.77239e-05      3.46572 
         950      16.7501 -3.36255e-05 -7.60213e-05      3.46572 
         950      16.8759 -3.37091e-05 -7.43435e-05      3.46572 
         950       17.002 -3.38411e-05 -7.26946e-05      3.46572 
         950      17.1287 -3.42089e-05 -7.11192e-05      3.46573 
         950      17.2557 -3.45179e-05 -6.95588e-05      3.46573 
         950      17.3834 -3.47426e-05 -6.80057e-05      3.46573 
         950      17.5115 -3.49028e-05 -6.64675e-05      3.46573 
         950      17.6399 -3.50158e-05 -6.49502e-05      3.46574 
         950       17.769 -3.50963e-05 -6.34554e-05      3.46574 
         950      17.8984 -3.51563e-05 -6.19885e-05      3.46574 
         950      18.0284 -3.52058e-05 -6.05491e-05      3.46574 
         950      18.1587 -3.52523e-05 -5.91409e-05      3.46575 
         950      18.2896 -3.53016e-05 -5.77622e-05      3.46575 
         950       18.421 -3.53578e-05  -5.6414e-05      3.46575 
         950      18.5528 -3.54231e-05  -5.5097e-05      3.46575 
         950      18.6851 -3.54987e-05 -5.38079e-05      3.46575 
         950      18.8178 -3.55844e-05 -5.25473e-05      3.46576 
         950      18.9511 -3.56791e-05 -5.13117e-05      3.46576 
         950      19.0847 -3.57808e-05 -5.01011e-05      3.46576 
         950      19.2189 -3.58869e-05 -4.89115e-05      3.46576 
         950      19.3535 -3.59943e-05 -4.77428e-05      3.46577 
         950      19.4886 -3.60997e-05 -4.65911e-05      3.46577 
         950      19.6242 -3.61998e-05 -4.54553e-05      3.46577 
         950      19.7602 -3.62909e-05 -4.43345e-05      3.46578 
         950      19.8968 -3.63702e-05 -4.32254e-05      3.46578 
         950      20.0337 -3.64346e-05 -4.21284e-05      3.46578 
         950      20.1712 -3.64821e-05 -4.10406e-05      3.46578 
         950      20.3091  -3.6511e-05 -3.99633e-05      3.46579 
         950      20.4475 -3.65205e-05 -3.88945e-05      3.46579 
         950      20.5864 -3.65107e-05 -3.78352e-05      3.46579 
         950      20.7257 -3.64828e-05 -3.67869e-05      3.46579 
         950      20.8655 -3.64389e-05 -3.57491e-05       3.4658 
         950      21.0058 -3.63825e-05 -3.47251e-05       3.4658 
         950      21.1465 -3.63462e-05 -3.37322e-05       3.4658 
         950      21.2877 -3.63386e-05 -3.27751e-05      3.46581 
         950      21.4294 -3.63322e-05 -3.18346e-05      3.46581 
         950      21.5716 -3.63283e-05 -3.09123e-05      3.46581 
         950      21.7142 -3.63277e-05 -3.00096e-05      3.46581 
         950      21.8573  -3.6331e-05 -2.91256e-05      3.46582 
         950      22.0008 -3.63387e-05 -2.82625e-05      3.46582 
         950      22.1449 -3.63506e-05 -2.74194e-05      3.46582 
         950      22.2893 -3.63666e-05 -2.65978e-05      3.46583 
         950      22.4344 -3.63859e-05 -2.57966e-05      3.46583 
         950      22.5797 -3.64074e-05 -2.50164e-05      3.46583 
         950      22.7257 -3.64294e-05 -2.42553e-05      3.46584 
         950      22.8721   -3.645e-05 -2.35122e-05      3.46584 
         950      23.0189 -3.64666e-05 -2.27853e-05      3.46584 
         950      23.1663  -3.6476e-05 -2.20704e-05      3.46585 
         950       23.314 -3.64746e-05 -2.13644e-05      3.46585 
         950      23.4623 -3.64579e-05 -2.06605e-05      3.46585 
         950       23.611 -3.64212e-05 -1.99531e-05      3.46586 
         950      23.7602 -3.63585e-05 -1.92327e-05      3.46586 
         950        23.91 -3.62636e-05 -1.84894e-05      3.46586 
         950        24.06 -3.61293e-05 -1.77118e-05      3.46587 
         950      24.2107 -3.59475e-05 -1.68839e-05      3.46587 
         950      24.3617  -3.6055e-05 -1.64395e-05      3.46587 
         950      24.5133 -3.61439e-05 -1.59597e-05      3.46588 
         950      24.6653 -3.61983e-05 -1.54327e-05      3.46588 
         950      24.8178 -3.62245e-05 -1.48728e-05      3.46588 
         950      24.9708 -3.62275e-05 -1.42931e-05      3.46589 
         950      25.1242 -3.62118e-05 -1.37047e-05      3.46589 
         950      25.2781 -3.61813e-05 -1.31153e-05       3.4659 
         950      25.4324 -3.61392e-05 -1.25329e-05       3.4659 
         950      25.5873  -3.6088e-05 -1.19618e-05       3.4659 
         950      25.7426 -3.60301e-05 -1.14068e-05      3.46591 
         950      25.8984 -3.59671e-05 -1.08698e-05      3.46591 
         950      26.0546 -3.59006e-05 -1.03531e-05      3.46592 
         950      26.2114 -3.58314e-05 -9.85639e-06      3.46592 
         950      26.3686 -3.57606e-05 -9.37998e-06      3.46592 
         950      26.5262 -3.56887e-05 -8.92335e-06      3.46593 
         950      26.6844 -3.56162e-05 -8.48438e-06      3.46593 
         950      26.8429 -3.55435e-05 -8.06201e-06      3.46594 
         950       27.002 -3.54707e-05 -7.65356e-06      3.46594 
         950      27.1615 -3.53982e-05 -7.25753e-06      3.46594 
         950      27.3216 -3.53259e-05 -6.87109e-06      3.46595 
         950      27.4821 -3.52542e-05 -6.49246e-06      3.46595 
         950       27.643 -3.51834e-05 -6.11996e-06      3.46596 
         950      27.8044 -3.51135e-05 -5.75129e-06      3.46596 
         950      27.9663 -3.50449e-05  -5.3856e-06      3.46597 
         950      28.1287 -3.49779e-05 -5.02123e-06      3.46597 
         950      28.2914  -3.4913e-05 -4.65809e-06      3.46597 
         950      28.4548 -3.48504e-05 -4.29533e-06      3.46598 
         950      28.6185 -3.47906e-05 -3.93366e-06      3.46598 
         950      28.7828 -3.47341e-05 -3.57308e-06      3.46599 
         950      28.9475  -3.4681e-05 -3.21482e-06      3.46599 
         950      29.1126 -3.46317e-05 -2.86044e-06        3.466 
         950      29.2784 -3.45861e-05 -2.51093e-06        3.466 
         950      29.4444 -3.45442e-05 -2.16859e-06      3.46601 
         950       29.611 -3.45055e-05 -1.83469e-06      3.46601 
         950       29.778 -3.44691e-05 -1.51153e-06      3.46602 
         950      29.9456 -3.44337e-05 -1.20014e-06      3.46602 
         950      30.1137 -3.43973e-05 -9.01954e-07      3.46603 
         950      30.2821 -3.43574e-05 -6.17738e-07      3.46603 
         950      30.4511 -3.43104e-05  -3.4676e-07      3.46604 
         950      30.6204 -3.42519e-05 -8.80606e-08      3.46604 
         950      30.7903 -3.41761e-05  1.61571e-07      3.46605 
         950      30.9606 -3.40762e-05  4.06262e-07      3.46605 
         950      31.1315 -3.39434e-05  6.53041e-07      3.46606 
         950      31.3028 -3.37676e-05  9.10848e-07      3.46606 
         950      31.4745 -3.35366e-05  1.19153e-06      3.46607 
         950      31.6468 -3.32426e-05  1.50729e-06      3.46607 
         950      31.8194 -3.32628e-05  1.65688e-06      3.46608 
         950      31.9926 -3.32875e-05  1.80593e-06      3.46608 
         950      32.1662 -3.33114e-05  1.96402e-06      3.46609 
         950      32.3404 -3.33556e-05     2.16e-06       3.4661 
         950      32.5149 -3.34053e-05  2.37443e-06       3.4661 
         950        32.69  -3.3416e-05  2.57041e-06      3.46611 
         950      32.8655 -3.33945e-05  2.75127e-06      3.46611 
         950      33.0414 -3.33468e-05  2.91995e-06      3.46612 
         950       33.218 -3.32783e-05  3.07936e-06      3.46612 
         950      33.3948 -3.31937e-05  3.23152e-06      3.46613 
         950      33.5723 -3.30971e-05  3.37858e-06      3.46614 
         950        33.75 -3.29923e-05  3.52186e-06      3.46614 
         950      33.9284 -3.28821e-05  3.66288e-06      3.46615 
         950      34.1073 -3.27693e-05   3.8025e-06      3.46615 
         950      34.2865  -3.2656e-05  3.94135e-06      3.46616 
         950      34.4663 -3.25439e-05  4.08014e-06      3.46617 
         950      34.6465 -3.24344e-05  4.21897e-06      3.46617 
         950      34.8272 -3.23284e-05  4.35816e-06      3.46618 
         950      35.0083 -3.22269e-05  4.49749e-06      3.46619 
         950        35.19   -3.213e-05  4.63699e-06      3.46619 
         950      35.3721 -3.20381e-05   4.7763e-06       3.4662 
         950      35.5546 -3.19512e-05  4.91494e-06      3.46621 
         950      35.7377  -3.1869e-05  5.05273e-06      3.46621 
         950      35.9211 -3.17913e-05  5.18897e-06      3.46622 
         950      36.1052 -3.17175e-05  5.32339e-06      3.46623 
         950      36.2895 -3.16472e-05  5.45528e-06      3.46623 
         950      36.4745 -3.15796e-05  5.58438e-06      3.46624 
         950      36.6598 -3.15143e-05  5.70999e-06      3.46625 
         950      36.8457 -3.14504e-05  5.83192e-06      3.46625 
         950      37.0321 -3.13874e-05  5.94967e-06      3.46626 
         950      37.2188 -3.13247e-05  6.06286e-06      3.46627 
         950      37.4062 -3.12616e-05  6.17142e-06      3.46627 
         950      37.5938 -3.11977e-05  6.27503e-06      3.46628 
         950      37.7821 -3.11326e-05  6.37378e-06      3.46629 
         950      37.9707 -3.10658e-05  6.46753e-06       3.4663 
         950      38.1599 -3.09971e-05  6.55653e-06       3.4663 
         950      38.3496 -3.09265e-05   6.6409e-06      3.46631 
         950      38.5396 -3.08538e-05  6.72087e-06      3.46632 
         950      38.7302 -3.07792e-05  6.79692e-06      3.46633 
         950      38.9211 -3.07029e-05  6.86938e-06      3.46633 
         950      39.1127 -3.06251e-05  6.93884e-06      3.46634 
         950      39.3046 -3.05463e-05  7.00576e-06      3.46635 
         950      39.4971 -3.04669e-05  7.07082e-06      3.46636 
         950      39.6899 -3.03875e-05  7.13449e-06      3.46636 
         950      39.8833 -3.03088e-05  7.19747e-06      3.46637 
         950      40.0772 -3.02313e-05  7.26024e-06      3.46638 
         950      40.2714 -3.01557e-05  7.32323e-06      3.46639 
         950      40.4663 -3.00826e-05  7.38692e-06       3.4664 
         950      40.6615 -3.00127e-05  7.45142e-06       3.4664 
         950      40.8573 -2.99463e-05  7.51691e-06      3.46641 
         950      41.0534 -2.98838e-05   7.5831e-06      3.46642 
         950      41.2501 -2.98251e-05  7.64965e-06      3.46643 
         950      41.4473 -2.97703e-05  7.71574e-06      3.46644 
         950      41.6448 -2.97188e-05  7.78014e-06      3.46645 
         950      41.8429 -2.96697e-05  7.84133e-06      3.46646 
         950      42.0414 -2.96218e-05  7.89708e-06      3.46646 
         950      42.2405 -2.95731e-05  7.94473e-06      3.46647 
         950      42.4399 -2.95213e-05   7.9808e-06      3.46648 
         950      42.6399 -2.94631e-05  8.00117e-06      3.46649 
         950      42.8404 -2.93944e-05  8.00078e-06       3.4665 
         950      43.0412 -2.93105e-05  7.97367e-06      3.46651 
         950      43.2426 -2.92052e-05  7.91278e-06      3.46652 
         950      43.4444 -2.90715e-05  7.81002e-06      3.46653 
         950      43.6467 -2.89009e-05  7.65577e-06      3.46654 
         950      43.8494 -2.87994e-05  7.78094e-06      3.46654 
         950      44.0527  -2.8667e-05  7.98628e-06      3.46655 
         950      44.2563 -2.85152e-05  8.24647e-06      3.46656 
         950      44.4606 -2.85542e-05  8.33189e-06      3.46657 
         950      44.6653  -2.8604e-05  8.37866e-06      3.46658 
         950      44.8704  -2.8631e-05  8.42006e-06      3.46659 
         950       45.076 -2.86356e-05  8.45436e-06       3.4666 
         950       45.282 -2.86184e-05  8.48017e-06      3.46661 
         950      45.4886 -2.85802e-05   8.4966e-06      3.46662 
         950      45.6955 -2.85476e-05  8.51672e-06      3.46663 
         950       45.903  -2.8521e-05  8.54112e-06      3.46664 
         950      46.1111 -2.84841e-05  8.56191e-06      3.46665 
         950      46.3194 -2.84372e-05  8.57997e-06      3.46666 
         950      46.5283 -2.83809e-05  8.59611e-06      3.46667 
         950      46.7376 -2.83158e-05  8.61092e-06      3.46668 
         950      46.9475 -2.82429e-05   8.6249e-06      3.46669 
         950      47.1577 -2.81633e-05  8.63839e-06      3.46671 
         950      47.3685 -2.80779e-05  8.65168e-06      3.46672 
         950      47.5798  -2.7988e-05  8.66492e-06      3.46673 
         950      47.7914 -2.78948e-05  8.67819e-06      3.46674 
         950      48.0037 -2.77995e-05  8.69153e-06      3.46675 