Variables = x, y, u, v, p

Zone, I=800, F=POINT
         200            0            0            0     -15.9259 
         200     0.000234 -2.18025e-06  2.49997e-11     -15.9259 
         200     0.000939 -8.24898e-06  4.15201e-10     -15.9259 
         200     0.002113 -1.68305e-05  2.10912e-09     -15.9259 
         200     0.003759 -2.61147e-05  6.66312e-09     -15.9259 
         200     0.005872 -3.43087e-05  1.61948e-08     -15.9259 
         200     0.008457 -4.02574e-05  3.34062e-08     -15.9259 
         200      0.01151 -4.37282e-05  6.14544e-08     -15.9259 
         200     0.015036 -4.55328e-05  1.04021e-07     -15.9259 
         200     0.019031 -4.72282e-05  1.65079e-07     -15.9259 
         200     0.023493 -5.05475e-05  2.48898e-07     -15.9259 
         200     0.028429 -5.66936e-05  3.60159e-07     -15.9259 
         200     0.033831 -6.57423e-05  5.03364e-07     -15.9259 
         200     0.039706 -7.65649e-05  6.83417e-07     -15.9259 
         200     0.046047  -8.7388e-05  9.04764e-07     -15.9259 
         200     0.052863 -9.71513e-05  1.17224e-06     -15.9259 
         200      0.06015 -0.000106918  1.48998e-06     -15.9259 
         200       0.0679 -0.000119984  1.86151e-06     -15.9259 
         200     0.076126 -0.000137614  2.29088e-06     -15.9259 
         200     0.084816 -0.000149209  2.78038e-06     -15.9259 
         200     0.093982 -0.000166674  3.33304e-06     -15.9259 
         200     0.103611 -0.000183926  3.94975e-06     -15.9259 
         200     0.113718 -0.000201417  4.63235e-06     -15.9259 
         200     0.124286 -0.000219378  5.37988e-06     -15.9259 
         200     0.135333 -0.000237911  6.19306e-06     -15.9259 
         200      0.14685 -0.000256907  7.06998e-06     -15.9259 
         200     0.158827 -0.000276133  8.00786e-06     -15.9259 
         200     0.171284 -0.000295349  9.00554e-06     -15.9259 
         200     0.184201 -0.000314282  1.00581e-05     -15.9259 
         200     0.197599 -0.000332816  1.11633e-05     -15.9259 
         200     0.211455  -0.00035089  1.23148e-05     -15.9259 
         200     0.225792 -0.000368536  1.35099e-05     -15.9259 
         200       0.2406 -0.000385508   1.4743e-05     -15.9259 
         200     0.255865 -0.000401283  1.60081e-05     -15.9259 
         200     0.271613 -0.000416357  1.73011e-05     -15.9259 
         200     0.287818  -0.00043036  1.86148e-05     -15.9259 
         200     0.304506 -0.000443273  1.99472e-05     -15.9259 
         200      0.32165 -0.000455043  2.12915e-05     -15.9259 
         200     0.339278 -0.000465672  2.26457e-05     -15.9259 
         200     0.357377 -0.000475143  2.40047e-05     -15.9259 
         200      0.37593 -0.000483457  2.53636e-05     -15.9259 
         200     0.394968 -0.000490644  2.67214e-05     -15.9259 
         200     0.414461  -0.00049672  2.80734e-05     -15.9259 
         200      0.43444  -0.00050173  2.94199e-05     -15.9259 
         200     0.454872 -0.000505709  3.07575e-05     -15.9259 
         200     0.475791  -0.00050871  3.20881e-05     -15.9259 
         200     0.497163 -0.000510777  3.34096e-05     -15.9259 
         200     0.519021 -0.000511962  3.47248e-05     -15.9259 
         200      0.54135 -0.000512307  3.60335e-05     -15.9259 
         200     0.564131 -0.000511853   3.7335e-05     -15.9259 
         200       0.5874 -0.000510632  3.86302e-05     -15.9259 
         200     0.611121 -0.000508666  3.99145e-05     -15.9259 
         200      0.63533 -0.000505988  4.12004e-05     -15.9259 
         200      0.65999  -0.00050267  4.24915e-05     -15.9259 
         200     0.685139 -0.000498704  4.37883e-05     -15.9259 
         200     0.710759 -0.000494094  4.50887e-05     -15.9259 
         200     0.736828 -0.000488858  4.63908e-05     -15.9259 
         200     0.763387 -0.000483007  4.76959e-05     -15.9259 
         200     0.790396 -0.000476578  4.90015e-05     -15.9259 
         200     0.817896 -0.000469597  5.03092e-05     -15.9259 
         200     0.845843 -0.000462114  5.16163e-05     -15.9259 
         200     0.874283 -0.000454166  5.29244e-05     -15.9259 
         200      0.90317 -0.000445814  5.42304e-05     -15.9259 
         200     0.932551   -0.0004371  5.55353e-05     -15.9259 
         200     0.962401 -0.000428085  5.68363e-05     -15.9259 
         200     0.992697 -0.000418833  5.81302e-05     -15.9259 
         200      1.02349 -0.000409381  5.94165e-05     -15.9259 
         200      1.05472 -0.000399796  6.06897e-05     -15.9259 
         200      1.08645 -0.000390107  6.19479e-05     -15.9259 
         200      1.11863  -0.00038037  6.31847e-05     -15.9259 
         200       1.1513 -0.000370599  6.43972e-05     -15.9259 
         200      1.18444 -0.000360826  6.55794e-05     -15.9259 
         200      1.21802 -0.000351072  6.67253e-05     -15.9259 
         200      1.25211 -0.000341324  6.78325e-05     -15.9259 
         200      1.28663 -0.000331592  6.88958e-05     -15.9259 
         200      1.32165 -0.000321847  6.99156e-05     -15.9259 
         200      1.35712 -0.000312083  7.08916e-05     -15.9259 
         200      1.39308 -0.000302263  7.18308e-05     -15.9259 
         200      1.42951 -0.000292374   7.2743e-05     -15.9259 
         200      1.46638  -0.00028241  7.36455e-05     -15.9259 
         200      1.50375 -0.000272361  7.45668e-05     -15.9259 
         200      1.54156 -0.000262269  7.53252e-05     -15.9259 
         200      1.57987 -0.000251976  7.60375e-05     -15.9259 
         200      1.61863 -0.000241511  7.67129e-05     -15.9259 
         200      1.65788 -0.000230878    7.735e-05     -15.9259 
         200      1.69757 -0.000220113  7.79455e-05     -15.9259 
         200      1.73776 -0.000209222   7.8498e-05     -15.9259 
         200      1.77842 -0.000198233   7.9005e-05     -15.9259 
         200      1.81952 -0.000187179   7.9464e-05     -15.9259 
         200      1.86113 -0.000176065  7.98741e-05     -15.9259 
         200      1.90316 -0.000164933  8.02328e-05     -15.9259 
         200      1.94571 -0.000153789  8.05392e-05     -15.9259 
         200      1.98869 -0.000142675  8.07914e-05     -15.9259 
         200      2.03217   -0.0001316  8.09889e-05     -15.9259 
         200      2.07612 -0.000120597  8.11302e-05     -15.9259 
         200      2.12051   -0.0001097  8.12147e-05     -15.9259 
         200       2.1654 -9.89181e-05  8.12419e-05     -15.9259 
         200      2.21073 -8.82939e-05  8.12113e-05     -15.9259 
         200      2.25656 -7.78362e-05  8.11229e-05     -15.9259 
         200      2.30283 -6.75869e-05  8.09767e-05     -15.9259 
         200       2.3496 -5.75553e-05  8.07728e-05     -15.9259 
         200      2.39685 -4.77742e-05  8.05118e-05     -15.9259 
         200      2.44452 -3.82754e-05  8.01945e-05     -15.9259 
         200      2.49271 -2.90676e-05  7.98216e-05     -15.9259 
         200      2.54132  -2.0188e-05  7.93944e-05     -15.9259 
         200      2.59044 -1.16443e-05  7.89138e-05     -15.9259 
         200         2.64 -3.47071e-06  7.83819e-05     -15.9259 
         200      2.69006  4.32633e-06  7.77996e-05     -15.9259 
         200      2.74056  1.17167e-05  7.71695e-05     -15.9259 
         200      2.79156  1.86962e-05  7.64926e-05     -15.9259 
         200      2.84304  2.52445e-05  7.57717e-05     -15.9259 
         200      2.89494  3.13453e-05  7.50095e-05     -15.9259 
         200      2.94735  3.69988e-05  7.42072e-05     -15.9259 
         200       3.0002  4.21892e-05  7.33685e-05     -15.9259 
         200      3.05355  4.69211e-05  7.24947e-05     -15.9259 
         200      3.10733  5.11868e-05  7.15898e-05     -15.9259 
         200      3.16163  5.49961e-05   7.0655e-05     -15.9259 
         200      3.21639  5.83529e-05  6.96936e-05     -15.9259 
         200      3.27158  6.12666e-05  6.87092e-05     -15.9259 
         200      3.32729  6.37583e-05  6.77026e-05     -15.9259 
         200      3.38342  6.58456e-05  6.66782e-05     -15.9259 
         200      3.44007  6.75592e-05  6.56367e-05     -15.9259 
         200      3.49714  6.89296e-05   6.4582e-05     -15.9259 
         200      3.55472   6.9999e-05  6.35149e-05     -15.9259 
         200      3.61273  7.08128e-05  6.24389e-05     -15.9259 
         200      3.67125  7.14274e-05  6.13541e-05     -15.9259 
         200      3.73025  7.19052e-05   6.0263e-05     -15.9259 
         200      3.78967  7.21988e-05  5.92801e-05     -15.9259 
         200      3.84961  7.22776e-05  5.82969e-05     -15.9259 
         200      3.90996  7.22018e-05  5.72796e-05     -15.9258 
         200      3.97084  7.19957e-05  5.62532e-05     -15.9258 
         200      4.03214  7.16801e-05   5.5238e-05     -15.9258 
         200      4.09395   7.1271e-05  5.42443e-05     -15.9258 
         200      4.15624   7.0782e-05  5.32794e-05     -15.9258 
         200      4.21895  7.02246e-05  5.23462e-05     -15.9258 
         200      4.28217  6.96063e-05  5.14419e-05     -15.9258 
         200      4.34582  6.89354e-05   5.0565e-05     -15.9258 
         200      4.40998  6.82164e-05    4.971e-05     -15.9258 
         200      4.47457  6.74554e-05  4.88742e-05     -15.9258 
         200      4.53968  6.66558e-05  4.80533e-05     -15.9258 
         200      4.60525  6.58222e-05  4.72464e-05     -15.9258 
         200      4.67125  6.49595e-05  4.64551e-05     -15.9258 
         200      4.73777  6.40701e-05  4.56814e-05     -15.9258 
         200       4.8047  6.31594e-05  4.49326e-05     -15.9258 
         200      4.87216  6.22291e-05  4.42162e-05     -15.9258 
         200      4.94003  6.12876e-05   4.3493e-05     -15.9258 
         200      5.00843  6.03338e-05  4.27963e-05     -15.9258 
         200      5.07724  5.93667e-05  4.21271e-05     -15.9258 
         200      5.14658  5.83793e-05  4.14768e-05     -15.9258 
         200      5.21639  5.73636e-05  4.08391e-05     -15.9258 
         200      5.28661   5.6307e-05  4.02083e-05     -15.9258 
         200      5.35736  5.53481e-05  3.95514e-05     -15.9258 
         200      5.42852  5.43524e-05  3.89308e-05     -15.9258 
         200      5.50021    5.332e-05  3.83357e-05     -15.9258 
         200      5.57231  5.22672e-05  3.77555e-05     -15.9258 
         200      5.64493  5.12259e-05  3.71748e-05     -15.9258 
         200      5.71803  5.02194e-05  3.65914e-05     -15.9258 
         200      5.79154  4.92028e-05   3.6019e-05     -15.9258 
         200      5.86558  4.81789e-05  3.54562e-05     -15.9258 
         200      5.94003  4.71527e-05  3.49032e-05     -15.9258 
         200      6.01501  4.61253e-05  3.43581e-05     -15.9258 
         200       6.0904  4.51009e-05  3.38207e-05     -15.9258 
         200      6.16632  4.40799e-05  3.32893e-05     -15.9258 
         200      6.24271   4.3065e-05  3.27636e-05     -15.9258 
         200       6.3195  4.20587e-05  3.22439e-05     -15.9258 
         200      6.39683  4.10607e-05  3.17293e-05     -15.9258 
         200      6.47457  4.00731e-05  3.12207e-05     -15.9258 
         200      6.55284  3.90939e-05  3.07179e-05     -15.9258 
         200      6.63152  3.81229e-05  3.02218e-05     -15.9258 
         200      6.71073  3.71543e-05  2.97313e-05     -15.9258 
         200      6.79034  3.61826e-05   2.9246e-05     -15.9258 
         200      6.87049  3.51952e-05  2.87624e-05     -15.9258 
         200      6.95111  3.41867e-05   2.8279e-05     -15.9258 
         200      7.03214  3.32745e-05  2.78266e-05     -15.9258 
         200       7.1137  3.23435e-05  2.73688e-05     -15.9258 
         200      7.19566  3.14059e-05  2.69091e-05     -15.9258 
         200      7.27816  3.04686e-05  2.64489e-05     -15.9258 
         200      7.36106   2.9539e-05   2.5991e-05     -15.9258 
         200      7.44451  2.86195e-05  2.55361e-05     -15.9258 
         200      7.52842  2.77134e-05  2.50856e-05     -15.9258 
         200      7.61273  2.68222e-05  2.46409e-05     -15.9258 
         200      7.69758  2.59445e-05  2.42017e-05     -15.9258 
         200      7.78283  2.50809e-05  2.37691e-05     -15.9258 
         200      7.86862  2.42284e-05  2.33424e-05     -15.9258 
         200      7.95481   2.3387e-05  2.29222e-05     -15.9258 
         200      8.04155  2.25534e-05  2.25077e-05     -15.9258 
         200      8.12868  2.17277e-05  2.20992e-05     -15.9258 
         200      8.21635  2.09075e-05  2.16958e-05     -15.9258 
         200      8.30449  2.00929e-05  2.12975e-05     -15.9258 
         200      8.39303  1.92849e-05  2.09045e-05     -15.9258 
         200      8.48211  1.84832e-05  2.05161e-05     -15.9258 
         200      8.57159   1.7691e-05  2.01333e-05     -15.9258 
         200      8.66161  1.69101e-05  1.97557e-05     -15.9257 
         200      8.75203  1.61452e-05  1.93851e-05     -15.9257 
         200      8.84299  1.53998e-05  1.90219e-05     -15.9257 
         200      8.93443  1.46793e-05  1.86685e-05     -15.9257 
         200      9.02626  1.39898e-05  1.83276e-05     -15.9257 
         200      9.11863  1.32578e-05  1.80233e-05     -15.9257 
         200      9.21139  1.25408e-05  1.77272e-05     -15.9257 
         200      9.30471  1.18455e-05  1.74444e-05     -15.9257 
         200      9.39841  1.11547e-05  1.72021e-05     -15.9257 
         200      9.49267  1.04372e-05  1.70496e-05     -15.9257 
         200      9.58739  9.73188e-06  1.65452e-05     -15.9257 
         200      9.68251  9.07551e-06  1.60308e-05     -15.9257 
         200      9.77817  8.45261e-06  1.55518e-05     -15.9257 
         200      9.87422  7.85195e-06  1.51327e-05     -15.9257 
         200      9.97083   7.1725e-06  1.49717e-05     -15.9257 
         200      10.0678  6.48884e-06  1.48035e-05     -15.9257 
         200      10.1654  5.82204e-06  1.45903e-05     -15.9257 
         200      10.2633  5.17222e-06  1.43494e-05     -15.9257 
         200      10.3618  4.53743e-06  1.40936e-05     -15.9257 
         200      10.4607  3.91729e-06  1.38323e-05     -15.9257 
         200      10.5601  3.31142e-06  1.35719e-05     -15.9257 
         200        10.66  2.71803e-06  1.33156e-05     -15.9257 
         200      10.7603  2.13731e-06  1.30654e-05     -15.9257 
         200      10.8611  1.56762e-06  1.28212e-05     -15.9257 
         200      10.9623  1.00924e-06  1.25825e-05     -15.9257 
         200      11.0641  4.60697e-07  1.23477e-05     -15.9257 
         200      11.1663 -7.80602e-08  1.21154e-05     -15.9257 
         200       11.269 -6.07043e-07  1.18844e-05     -15.9257 
         200      11.3721 -1.12747e-06  1.16535e-05     -15.9257 
         200      11.4757 -1.63881e-06  1.14227e-05     -15.9257 
         200      11.5798 -2.14214e-06  1.11922e-05     -15.9257 
         200      11.6844 -2.63688e-06  1.09635e-05     -15.9257 
         200      11.7894 -3.12401e-06  1.07384e-05     -15.9257 
         200       11.895 -3.60331e-06  1.05195e-05     -15.9257 
         200      12.0009 -4.07463e-06  1.03098e-05     -15.9257 
         200      12.1073 -4.53897e-06  1.01117e-05     -15.9257 
         200      12.2142  -4.9959e-06  9.92744e-06     -15.9257 
         200      12.3216 -5.44658e-06  9.75736e-06     -15.9257 
         200      12.4294 -5.89088e-06  9.60017e-06     -15.9257 
         200      12.5378  -6.3303e-06  9.45082e-06     -15.9257 
         200      12.6465 -6.76515e-06  9.30031e-06     -15.9257 
         200      12.7558 -7.19746e-06  9.13337e-06     -15.9257 
         200      12.8656  -7.6286e-06  8.92766e-06     -15.9257 
         200      12.9757 -8.01922e-06  8.86384e-06     -15.9257 
         200      13.0864 -8.37542e-06  8.80643e-06     -15.9257 
         200      13.1975 -8.71163e-06  8.72704e-06     -15.9257 
         200      13.3092 -9.03654e-06  8.63209e-06     -15.9257 
         200      13.4212 -9.35594e-06  8.52573e-06     -15.9256 
         200      13.5338 -9.67481e-06  8.41015e-06     -15.9256 
         200      13.6468 -9.99556e-06  8.28719e-06     -15.9256 
         200      13.7603 -1.03187e-05   8.1593e-06     -15.9256 
         200      13.8743 -1.06436e-05  8.03047e-06     -15.9256 
         200      13.9886 -1.09666e-05  7.90845e-06     -15.9256 
         200      14.1036 -1.12831e-05  7.80555e-06     -15.9256 
         200      14.2189  -1.1585e-05  7.74118e-06     -15.9256 
         200      14.3348 -1.18631e-05  7.74323e-06     -15.9256 
         200       14.451 -1.21163e-05  7.65122e-06     -15.9256 
         200      14.5678 -1.23855e-05  7.50524e-06     -15.9256 
         200      14.6851 -1.26701e-05  7.39874e-06     -15.9256 
         200      14.8028 -1.29644e-05  7.32201e-06     -15.9256 
         200       14.921 -1.32642e-05    7.267e-06     -15.9256 
         200      15.0396 -1.35646e-05  7.22766e-06     -15.9256 
         200      15.1588 -1.38626e-05  7.19943e-06     -15.9256 
         200      15.2783 -1.41546e-05   7.1793e-06     -15.9256 
         200      15.3984 -1.44385e-05  7.16535e-06     -15.9256 
         200       15.519 -1.47121e-05  7.15648e-06     -15.9256 
         200        15.64 -1.49741e-05  7.15187e-06     -15.9256 
         200      15.7615 -1.52244e-05  7.15039e-06     -15.9256 
         200      15.8834 -1.54634e-05  7.14998e-06     -15.9256 
         200      16.0058 -1.56932e-05  7.14675e-06     -15.9256 
         200      16.1286 -1.59165e-05  7.13412e-06     -15.9256 
         200       16.252 -1.61383e-05  7.10165e-06     -15.9256 
         200      16.3759 -1.63654e-05  7.03393e-06     -15.9256 
         200      16.5002 -1.66063e-05  6.90928e-06     -15.9256 
         200       16.625 -1.68731e-05  6.69782e-06     -15.9256 
         200      16.7501 -1.71366e-05   6.5854e-06     -15.9256 
         200      16.8759 -1.73443e-05  6.63187e-06     -15.9256 
         200       17.002 -1.75332e-05  6.61891e-06     -15.9256 
         200      17.1287 -1.77102e-05  6.56794e-06     -15.9256 
         200      17.2557 -1.78795e-05  6.49652e-06     -15.9255 
         200      17.3834 -1.80445e-05   6.4183e-06     -15.9255 
         200      17.5115 -1.82069e-05  6.34347e-06     -15.9255 
         200      17.6399 -1.83674e-05  6.27885e-06     -15.9255 
         200       17.769 -1.85265e-05  6.22795e-06     -15.9255 
         200      17.8984  -1.8684e-05  6.19172e-06     -15.9255 
         200      18.0284 -1.88399e-05  6.16853e-06     -15.9255 
         200      18.1587 -1.89938e-05  6.15487e-06     -15.9255 
         200      18.2896 -1.91459e-05  6.14571e-06     -15.9255 
         200       18.421 -1.92963e-05  6.13513e-06     -15.9255 
         200      18.5528 -1.94453e-05  6.11697e-06     -15.9255 
         200      18.6851 -1.95934e-05  6.08544e-06     -15.9255 
         200      18.8178  -1.9741e-05  6.03608e-06     -15.9255 
         200      18.9511 -1.98884e-05   5.9664e-06     -15.9255 
         200      19.0847  -2.0035e-05  5.87715e-06     -15.9255 
         200      19.2189 -2.01797e-05  5.77292e-06     -15.9255 
         200      19.3535 -2.03195e-05  5.66384e-06     -15.9255 
         200      19.4886 -2.04499e-05  5.56617e-06     -15.9255 
         200      19.6242 -2.05631e-05  5.50426e-06     -15.9255 
         200      19.7602  -2.0648e-05   5.5116e-06     -15.9255 
         200      19.8968 -2.06893e-05  5.63249e-06     -15.9255 
         200      20.0337 -2.07632e-05  5.72713e-06     -15.9255 
         200      20.1712 -2.09795e-05  5.54066e-06     -15.9255 
         200      20.3091 -2.11463e-05  5.43647e-06     -15.9255 
         200      20.4475 -2.12767e-05  5.38522e-06     -15.9255 
         200      20.5864 -2.13812e-05  5.36429e-06     -15.9254 
         200      20.7257  -2.1468e-05  5.35669e-06     -15.9254 
         200      20.8655 -2.15438e-05  5.35052e-06     -15.9254 
         200      21.0058 -2.16127e-05  5.33837e-06     -15.9254 
         200      21.1465  -2.1678e-05  5.31662e-06     -15.9254 
         200      21.2877 -2.17412e-05  5.28501e-06     -15.9254 
         200      21.4294 -2.17327e-05  5.40496e-06     -15.9254 
         200      21.5716 -2.18043e-05   5.4672e-06     -15.9254 
         200      21.7142 -2.19325e-05  5.46482e-06     -15.9254 
         200      21.8573 -2.20862e-05  5.41762e-06     -15.9254 
         200      22.0008 -2.22426e-05   5.3439e-06     -15.9254 
         200      22.1449 -2.23865e-05  5.25967e-06     -15.9254 
         200      22.2893 -2.25086e-05  5.17857e-06     -15.9254 
         200      22.4344  -2.2605e-05  5.11111e-06     -15.9254 
         200      22.5797 -2.26757e-05  5.06485e-06     -15.9254 
         200      22.7257 -2.27238e-05  5.04395e-06     -15.9254 
         200      22.8721 -2.27547e-05  5.04943e-06     -15.9254 
         200      23.0189 -2.27748e-05  5.07917e-06     -15.9254 
         200      23.1663 -2.27912e-05  5.12836e-06     -15.9254 
         200       23.314 -2.28108e-05  5.18978e-06     -15.9254 
         200      23.4623 -2.28397e-05   5.2547e-06     -15.9253 
         200       23.611 -2.28824e-05  5.31336e-06     -15.9253 
         200      23.7602  -2.2942e-05  5.35632e-06     -15.9253 
         200        23.91 -2.30195e-05  5.37536e-06     -15.9253 
         200        24.06 -2.31133e-05  5.36506e-06     -15.9253 
         200      24.2107 -2.32202e-05  5.32438e-06     -15.9253 
         200      24.3617 -2.33341e-05  5.25859e-06     -15.9253 
         200      24.5133 -2.34476e-05  5.18115e-06     -15.9253 
         200      24.6653 -2.35512e-05  5.11647e-06     -15.9253 
         200      24.8178 -2.36349e-05  5.10209e-06     -15.9253 
         200      24.9708 -2.36881e-05  5.19207e-06     -15.9253 
         200      25.1242  -2.3701e-05   5.4596e-06     -15.9253 
         200      25.2781 -2.36772e-05  5.95746e-06     -15.9253 
         200      25.4324 -2.38346e-05  5.57873e-06     -15.9253 
         200      25.5873  -2.3801e-05  5.51113e-06     -15.9253 
         200      25.7426 -2.35888e-05   5.8871e-06     -15.9253 
         200      25.8984 -2.33955e-05  6.30545e-06     -15.9253 
         200      26.0546 -2.34919e-05  5.88013e-06     -15.9252 
         200      26.2114 -2.35399e-05  5.67386e-06     -15.9252 
         200      26.3686 -2.35635e-05  5.61667e-06     -15.9252 
         200      26.5262 -2.35799e-05  5.65213e-06     -15.9252 
         200      26.6844 -2.36004e-05  5.73648e-06     -15.9252 
         200      26.8429 -2.36314e-05  5.83689e-06     -15.9252 
         200       27.002 -2.36755e-05  5.93042e-06     -15.9252 
         200      27.1615 -2.37319e-05  6.00208e-06     -15.9252 
         200      27.3216 -2.37979e-05  6.04406e-06     -15.9252 
         200      27.4821  -2.3869e-05    6.054e-06     -15.9252 
         200       27.643 -2.39401e-05  6.03405e-06     -15.9252 
         200      27.8044 -2.40059e-05  5.98959e-06     -15.9252 
         200      27.9663 -2.40617e-05  5.92825e-06     -15.9252 
         200      28.1287 -2.41035e-05  5.85871e-06     -15.9252 
         200      28.2914  -2.4129e-05  5.79014e-06     -15.9252 
         200      28.4548 -2.41372e-05  5.73094e-06     -15.9251 
         200      28.6185 -2.41293e-05  5.68849e-06     -15.9251 
         200      28.7828 -2.41083e-05  5.66816e-06     -15.9251 
         200      28.9475 -2.40795e-05  5.67311e-06     -15.9251 
         200      29.1126   -2.405e-05  5.70373e-06     -15.9251 
         200      29.2784  -2.4052e-05  5.75186e-06     -15.9251 
         200      29.4444 -2.40726e-05  5.80024e-06     -15.9251 
         200       29.611 -2.41064e-05  5.84332e-06     -15.9251 
         200       29.778 -2.41551e-05  5.87514e-06     -15.9251 
         200      29.9456 -2.42192e-05  5.88965e-06     -15.9251 
         200      30.1137 -2.42972e-05  5.88113e-06     -15.9251 
         200      30.2821 -2.43847e-05  5.84522e-06     -15.9251 
         200      30.4511  -2.4474e-05  5.77966e-06     -15.9251 
         200      30.6204  -2.4552e-05  5.68578e-06      -15.925 
         200      30.7903 -2.46001e-05  5.56938e-06      -15.925 
         200      30.9606 -2.45917e-05  5.44278e-06      -15.925 
         200      31.1315 -2.44913e-05  5.32595e-06      -15.925 
         200      31.3028 -2.42529e-05  5.24902e-06      -15.925 
         200      31.4745 -2.40203e-05  5.32195e-06      -15.925 
         200      31.6468 -2.41739e-05  5.76637e-06      -15.925 
         200      31.8194 -2.43455e-05  6.30454e-06      -15.925 
         200      31.9926 -2.46819e-05  6.13114e-06      -15.925 
         200      32.1662 -2.48995e-05  6.00973e-06      -15.925 
         200      32.3404 -2.50266e-05  5.92297e-06      -15.925 
         200      32.5149 -2.50867e-05  5.85761e-06      -15.925 
         200        32.69    -2.51e-05  5.80343e-06      -15.925 
         200      32.8655 -2.50833e-05   5.7532e-06     -15.9249 
         200      33.0414 -2.50499e-05   5.7021e-06     -15.9249 
         200       33.218 -2.50105e-05  5.64721e-06     -15.9249 
         200      33.3948 -2.49731e-05   5.5874e-06     -15.9249 
         200      33.5723 -2.49432e-05  5.52263e-06     -15.9249 
         200        33.75 -2.49247e-05  5.45399e-06     -15.9249 
         200      33.9284 -2.49194e-05  5.38299e-06     -15.9249 
         200      34.1073 -2.49276e-05  5.31164e-06     -15.9249 
         200      34.2865 -2.49486e-05  5.24208e-06     -15.9249 
         200      34.4663 -2.49806e-05  5.17618e-06     -15.9249 
         200      34.6465 -2.50208e-05  5.11572e-06     -15.9249 
         200      34.8272 -2.50664e-05  5.06189e-06     -15.9248 
         200      35.0083 -2.51137e-05  5.01552e-06     -15.9248 
         200        35.19 -2.51594e-05  4.97674e-06     -15.9248 
         200      35.3721    -2.52e-05   4.9452e-06     -15.9248 
         200      35.5546 -2.52323e-05  4.92001e-06     -15.9248 
         200      35.7377 -2.52539e-05  4.89977e-06     -15.9248 
         200      35.9211 -2.52624e-05  4.88285e-06     -15.9248 
         200      36.1052 -2.52567e-05   4.8675e-06     -15.9248 
         200      36.2895 -2.52361e-05  4.85214e-06     -15.9248 
         200      36.4745 -2.52011e-05  4.83565e-06     -15.9248 
         200      36.6598 -2.51532e-05  4.81785e-06     -15.9247 
         200      36.8457 -2.50947e-05  4.79982e-06     -15.9247 
         200      37.0321 -2.50293e-05  4.78453e-06     -15.9247 
         200      37.2188 -2.49616e-05  4.77742e-06     -15.9247 
         200      37.4062 -2.48974e-05  4.78704e-06     -15.9247 
         200      37.5938 -2.48435e-05  4.82582e-06     -15.9247 
         200      37.7821 -2.48075e-05  4.91102e-06     -15.9247 
         200      37.9707 -2.47981e-05  5.06536e-06     -15.9247 
         200      38.1599 -2.48834e-05  4.99652e-06     -15.9247 
         200      38.3496  -2.5013e-05   4.7251e-06     -15.9247 
         200      38.5396 -2.51423e-05  4.46517e-06     -15.9246 
         200      38.7302 -2.52729e-05  4.23816e-06     -15.9246 
         200      38.9211 -2.54017e-05  4.06534e-06     -15.9246 
         200      39.1127 -2.55205e-05  3.96669e-06     -15.9246 
         200      39.3046 -2.55078e-05  3.96756e-06     -15.9246 
         200      39.4971  -2.5463e-05  3.96779e-06     -15.9246 
         200      39.6899 -2.54126e-05  3.96044e-06     -15.9246 
         200      39.8833 -2.53607e-05  3.94794e-06     -15.9246 
         200      40.0772 -2.53103e-05  3.93196e-06     -15.9246 
         200      40.2714 -2.52638e-05   3.9136e-06     -15.9245 
         200      40.4663 -2.52227e-05  3.89336e-06     -15.9245 
         200      40.6615 -2.51882e-05  3.87144e-06     -15.9245 
         200      40.8573 -2.51607e-05  3.84767e-06     -15.9245 
         200      41.0534 -2.51404e-05  3.82176e-06     -15.9245 
         200      41.2501 -2.51272e-05  3.79327e-06     -15.9245 
         200      41.4473 -2.51206e-05  3.76177e-06     -15.9245 
         200      41.6448 -2.51199e-05  3.72691e-06     -15.9245 
         200      41.8429 -2.51243e-05  3.68835e-06     -15.9245 
         200      42.0414 -2.51331e-05  3.64607e-06     -15.9244 
         200      42.2405 -2.51453e-05   3.6001e-06     -15.9244 
         200      42.4399 -2.51601e-05  3.55085e-06     -15.9244 
         200      42.6399 -2.51768e-05  3.49884e-06     -15.9244 
         200      42.8404 -2.51947e-05  3.44494e-06     -15.9244 
         200      43.0412 -2.52133e-05   3.3903e-06     -15.9244 
         200      43.2426 -2.52323e-05  3.33613e-06     -15.9244 
         200      43.4444 -2.52513e-05  3.28401e-06     -15.9244 
         200      43.6467 -2.52704e-05  3.23546e-06     -15.9243 
         200      43.8494 -2.52896e-05  3.19224e-06     -15.9243 
         200      44.0527 -2.53092e-05  3.15589e-06     -15.9243 
         200      44.2563 -2.53295e-05  3.12797e-06     -15.9243 
         200      44.4606 -2.53509e-05  3.10963e-06     -15.9243 
         200      44.6653  -2.5374e-05   3.1017e-06     -15.9243 
         200      44.8704 -2.53991e-05   3.1044e-06     -15.9243 
         200       45.076 -2.54264e-05  3.11718e-06     -15.9243 
         200       45.282 -2.54563e-05   3.1385e-06     -15.9242 
         200      45.4886 -2.54884e-05  3.16567e-06     -15.9242 
         200      45.6955 -2.55222e-05  3.19445e-06     -15.9242 
         200       45.903 -2.55568e-05  3.21895e-06     -15.9242 
         200      46.1111 -2.55904e-05  3.23116e-06     -15.9242 
         200      46.3194 -2.56204e-05  3.22074e-06     -15.9242 
         200      46.5283 -2.56435e-05  3.17458e-06     -15.9242 
         200      46.7376  -2.5655e-05  3.07653e-06     -15.9241 
         200      46.9475  -2.5649e-05  2.90669e-06     -15.9241 
         200      47.1577 -2.55876e-05  2.93222e-06     -15.9241 
         200      47.3685 -2.55203e-05  3.01928e-06     -15.9241 
         200      47.5798 -2.54648e-05  3.06039e-06     -15.9241 
         200      47.7914 -2.54206e-05  3.06163e-06     -15.9241 
         200      48.0037  -2.5388e-05    3.028e-06     -15.9241 