Variables = x, y, u, v, p

Zone, I=800, F=POINT
          50            0  1.39822e-19  2.23065e-24      58.8676 
          50     0.000234  6.92333e-06  6.83525e-11      58.8676 
          50     0.000939  2.60418e-05 -2.61588e-10      58.8676 
          50     0.002113  5.25633e-05 -2.58242e-09      58.8676 
          50     0.003759  8.01354e-05  -9.5148e-09      58.8676 
          50     0.005872  0.000102423 -2.45955e-08      58.8676 
          50     0.008457    0.0001152 -5.22842e-08      58.8676 
          50      0.01151  0.000117397 -9.77334e-08      58.8676 
          50     0.015036  0.000111504 -1.66883e-07      58.8676 
          50     0.019031  0.000102659 -2.66077e-07      58.8676 
          50     0.023493  9.67102e-05 -4.02073e-07      58.8676 
          50     0.028429  9.77936e-05 -5.82242e-07      58.8676 
          50     0.033831  0.000106366 -8.13605e-07      58.8676 
          50     0.039706  0.000118742 -1.10378e-06      58.8676 
          50     0.046047  0.000128985 -1.45956e-06      58.8676 
          50     0.052863  0.000133279 -1.88822e-06      58.8676 
          50      0.06015  0.000134828 -2.39575e-06      58.8676 
          50       0.0679  0.000144467 -2.98692e-06      58.8676 
          50     0.076126  0.000166986 -3.66728e-06      58.8676 
          50     0.084816  0.000168922 -4.43979e-06      58.8676 
          50     0.093982  0.000186997 -5.30831e-06      58.8676 
          50     0.103611  0.000203043 -6.27329e-06      58.8676 
          50     0.113718  0.000218528 -7.33669e-06      58.8676 
          50     0.124286  0.000234395 -8.49614e-06      58.8676 
          50     0.135333  0.000251122 -9.75203e-06      58.8676 
          50      0.14685  0.000268668 -1.11008e-05      58.8676 
          50     0.158827  0.000286649 -1.25378e-05      58.8676 
          50     0.171284  0.000304582 -1.40612e-05      58.8676 
          50     0.184201  0.000322016 -1.56634e-05      58.8676 
          50     0.197599  0.000338853 -1.73414e-05      58.8676 
          50     0.211455  0.000355275 -1.90865e-05      58.8676 
          50     0.225792  0.000371597 -2.08957e-05      58.8676 
          50       0.2406  0.000387366  -2.2762e-05      58.8676 
          50     0.255865  0.000401289 -2.46788e-05      58.8676 
          50     0.271613  0.000415007 -2.66412e-05      58.8676 
          50     0.287818  0.000427637 -2.86416e-05      58.8676 
          50     0.304506  0.000439202 -3.06801e-05      58.8676 
          50      0.32165  0.000449687 -3.27503e-05      58.8676 
          50     0.339278  0.000459116  -3.4853e-05      58.8676 
          50     0.357377  0.000467487 -3.69842e-05      58.8676 
          50      0.37593  0.000474801 -3.91405e-05      58.8676 
          50     0.394968  0.000481075 -4.13248e-05      58.8676 
          50     0.414461  0.000486306 -4.35341e-05      58.8676 
          50      0.43444  0.000490506 -4.57734e-05      58.8676 
          50     0.454872  0.000493671 -4.80419e-05      58.8676 
          50     0.475791  0.000495808 -5.03474e-05      58.8676 
          50     0.497163   0.00049691  -5.2691e-05      58.8676 
          50     0.519021  0.000496975 -5.50815e-05      58.8676 
          50      0.54135  0.000495988 -5.75221e-05      58.8676 
          50     0.564131   0.00049393 -6.00139e-05      58.8676 
          50       0.5874  0.000490761 -6.25603e-05      58.8676 
          50     0.611121  0.000486435  -6.5152e-05      58.8676 
          50      0.63533  0.000481032 -6.78169e-05      58.8676 
          50      0.65999  0.000474463 -7.05641e-05      58.8676 
          50     0.685139  0.000466725 -7.33921e-05      58.8676 
          50     0.710759  0.000457853 -7.62932e-05      58.8676 
          50     0.736828  0.000447913 -7.92591e-05      58.8676 
          50     0.763387  0.000436972 -8.22882e-05      58.8676 
          50     0.790396  0.000425152 -8.53697e-05      58.8675 
          50     0.817896  0.000412558 -8.85014e-05      58.8675 
          50     0.845843  0.000399351  -9.1671e-05      58.8675 
          50     0.874283  0.000385665 -9.48759e-05      58.8675 
          50      0.90317  0.000371682 -9.81022e-05      58.8675 
          50     0.932551  0.000357547 -0.000101346      58.8675 
          50     0.962401  0.000343433 -0.000104594      58.8675 
          50     0.992697  0.000329508 -0.000107832      58.8675 
          50      1.02349  0.000315892 -0.000111054      58.8675 
          50      1.05472   0.00030273 -0.000114242      58.8675 
          50      1.08645  0.000290099 -0.000117387      58.8675 
          50      1.11863  0.000278092 -0.000120471      58.8675 
          50       1.1513  0.000266727 -0.000123483      58.8675 
          50      1.18444  0.000256018 -0.000126407      58.8675 
          50      1.21802  0.000245942 -0.000129228      58.8675 
          50      1.25211  0.000236421 -0.000131941      58.8675 
          50      1.28663  0.000227378 -0.000134531      58.8675 
          50      1.32165  0.000218692 -0.000137001      58.8675 
          50      1.35712  0.000210261 -0.000139347      58.8675 
          50      1.39308  0.000201971 -0.000141585      58.8675 
          50      1.42951  0.000193766 -0.000143732      58.8674 
          50      1.46638   0.00018566 -0.000145822      58.8674 
          50      1.50375  0.000177757 -0.000147909      58.8674 
          50      1.54156  0.000170136  -0.00014959      58.8674 
          50      1.57987  0.000162325 -0.000151156      58.8674 
          50      1.61863  0.000154373 -0.000152621      58.8674 
          50      1.65788  0.000146318 -0.000153979      58.8674 
          50      1.69757  0.000138222 -0.000155216      58.8674 
          50      1.73776   0.00013012 -0.000156327      58.8674 
          50      1.77842  0.000122064 -0.000157303      58.8674 
          50      1.81952  0.000114103 -0.000158138      58.8674 
          50      1.86113  0.000106266 -0.000158829      58.8673 
          50      1.90316  9.86022e-05  -0.00015937      58.8673 
          50      1.94571  9.11355e-05 -0.000159761      58.8673 
          50      1.98869    8.391e-05     -0.00016      58.8673 
          50      2.03217  7.69431e-05 -0.000160086      58.8673 
          50      2.07612  7.02666e-05 -0.000160022      58.8673 
          50      2.12051  6.39082e-05  -0.00015981      58.8673 
          50       2.1654  5.78771e-05 -0.000159453      58.8672 
          50      2.21073  5.21986e-05 -0.000158955      58.8672 
          50      2.25656  4.68762e-05 -0.000158321      58.8672 
          50      2.30283  4.19275e-05 -0.000157559      58.8672 
          50       2.3496  3.73504e-05 -0.000156672      58.8672 
          50      2.39685  3.31513e-05 -0.000155669      58.8672 
          50      2.44452  2.93327e-05 -0.000154558      58.8672 
          50      2.49271   2.5885e-05 -0.000153345      58.8671 
          50      2.54132   2.2807e-05  -0.00015204      58.8671 
          50      2.59044  2.00848e-05 -0.000150649      58.8671 
          50         2.64  1.77113e-05 -0.000149182      58.8671 
          50      2.69006  1.56693e-05 -0.000147643      58.8671 
          50      2.74056  1.39465e-05 -0.000146042       58.867 
          50      2.79156  1.25234e-05 -0.000144384       58.867 
          50      2.84304  1.13833e-05 -0.000142675       58.867 
          50      2.89494  1.05079e-05 -0.000140922       58.867 
          50      2.94735   9.8766e-06 -0.000139127       58.867 
          50       3.0002   9.4711e-06 -0.000137295      58.8669 
          50      3.05355  9.27192e-06 -0.000135426      58.8669 
          50      3.10733  9.26141e-06 -0.000133525      58.8669 
          50      3.16163  9.42289e-06 -0.000131589      58.8669 
          50      3.21639  9.74153e-06  -0.00012962      58.8668 
          50      3.27158  1.02042e-05 -0.000127618      58.8668 
          50      3.32729  1.08016e-05 -0.000125578      58.8668 
          50      3.38342  1.15259e-05 -0.000123503      58.8668 
          50      3.44007  1.23746e-05 -0.000121387      58.8667 
          50      3.49714   1.3347e-05 -0.000119232      58.8667 
          50      3.55472  1.44491e-05 -0.000117035      58.8667 
          50      3.61273  1.56883e-05 -0.000114801      58.8666 
          50      3.67125  1.70805e-05 -0.000112528      58.8666 
          50      3.73025  1.86435e-05 -0.000110226      58.8666 
          50      3.78967  2.01345e-05 -0.000107996      58.8665 
          50      3.84961  2.15597e-05 -0.000105759      58.8665 
          50      3.90996  2.29987e-05 -0.000103517      58.8665 
          50      3.97084  2.44368e-05   -0.0001013      58.8664 
          50      4.03214  2.58621e-05 -9.91216e-05      58.8664 
          50      4.09395  2.72723e-05 -9.69796e-05      58.8664 
          50      4.15624   2.8665e-05   -9.487e-05      58.8663 
          50      4.21895  3.00396e-05 -9.27891e-05      58.8663 
          50      4.28217  3.13993e-05 -9.07322e-05      58.8663 
          50      4.34582  3.27425e-05 -8.87064e-05      58.8662 
          50      4.40998  3.40712e-05 -8.67171e-05      58.8662 
          50      4.47457  3.53827e-05 -8.47773e-05      58.8661 
          50      4.53968  3.66788e-05 -8.28882e-05      58.8661 
          50      4.60525  3.79604e-05 -8.10397e-05      58.8661 
          50      4.67125  3.92139e-05 -7.91869e-05       58.866 
          50      4.73777  4.04605e-05 -7.73813e-05       58.866 
          50       4.8047  4.16906e-05 -7.56265e-05      58.8659 
          50      4.87216  4.29061e-05  -7.3902e-05      58.8659 
          50      4.94003  4.41037e-05 -7.22066e-05      58.8658 
          50      5.00843  4.52828e-05 -7.05402e-05      58.8658 
          50      5.07724  4.64394e-05 -6.89098e-05      58.8657 
          50      5.14658  4.75743e-05 -6.73147e-05      58.8657 
          50      5.21639  4.86864e-05 -6.57542e-05      58.8656 
          50      5.28661  4.97755e-05 -6.42237e-05      58.8656 
          50      5.35736   5.0844e-05 -6.27146e-05      58.8655 
          50      5.42852  5.18893e-05  -6.1229e-05      58.8655 
          50      5.50021  5.28963e-05 -5.97908e-05      58.8654 
          50      5.57231  5.38923e-05 -5.83482e-05      58.8654 
          50      5.64493  5.48718e-05 -5.69348e-05      58.8653 
          50      5.71803  5.58277e-05 -5.55661e-05      58.8652 
          50      5.79154  5.67589e-05 -5.42343e-05      58.8652 
          50      5.86558  5.76735e-05  -5.2913e-05      58.8651 
          50      5.94003  5.85829e-05 -5.15739e-05      58.8651 
          50      6.01501  5.94556e-05 -5.02827e-05       58.865 
          50       6.0904  6.03062e-05 -4.90037e-05      58.8649 
          50      6.16632  6.11553e-05 -4.77396e-05      58.8649 
          50      6.24271   6.1998e-05 -4.65326e-05      58.8648 
          50       6.3195  6.28214e-05 -4.53607e-05      58.8647 
          50      6.39683  6.36118e-05 -4.40273e-05      58.8647 
          50      6.47457  6.44184e-05 -4.30052e-05      58.8646 
          50      6.55284  6.52064e-05 -4.18737e-05      58.8645 
          50      6.63152  6.59797e-05 -4.07033e-05      58.8645 
          50      6.71073  6.67453e-05 -3.95412e-05      58.8644 
          50      6.79034  6.75065e-05 -3.84163e-05      58.8643 
          50      6.87049  6.82667e-05 -3.73369e-05      58.8642 
          50      6.95111  6.90114e-05 -3.62988e-05      58.8642 
          50      7.03214  6.97095e-05 -3.52554e-05      58.8641 
          50       7.1137  7.03948e-05  -3.4215e-05       58.864 
          50      7.19566  7.10624e-05 -3.31982e-05      58.8639 
          50      7.27816  7.17118e-05 -3.22148e-05      58.8638 
          50      7.36106  7.23429e-05 -3.12701e-05      58.8637 
          50      7.44451  7.29594e-05 -3.03591e-05      58.8637 
          50      7.52842  7.35646e-05 -2.94732e-05      58.8636 
          50      7.61273  7.41615e-05 -2.86019e-05      58.8635 
          50      7.69758  7.47534e-05 -2.77347e-05      58.8634 
          50      7.78283  7.53383e-05 -2.68729e-05      58.8633 
          50      7.86862  7.59103e-05  -2.6032e-05      58.8632 
          50      7.95481  7.64537e-05 -2.52575e-05      58.8631 
          50      8.04155  7.70127e-05 -2.45098e-05       58.863 
          50      8.12868  7.75816e-05 -2.37603e-05      58.8629 
          50      8.21635  7.81184e-05  -2.3053e-05      58.8628 
          50      8.30449  7.86286e-05   -2.237e-05      58.8627 
          50      8.39303  7.91162e-05 -2.17009e-05      58.8626 
          50      8.48211   7.9585e-05 -2.10393e-05      58.8625 
          50      8.57159  8.00361e-05 -2.03855e-05      58.8624 
          50      8.66161  8.04709e-05 -1.97405e-05      58.8623 
          50      8.75203  8.08884e-05 -1.91087e-05      58.8622 
          50      8.84299  8.12881e-05  -1.8493e-05      58.8621 
          50      8.93443  8.16681e-05 -1.78969e-05       58.862 
          50      9.02626  8.20265e-05 -1.73225e-05      58.8619 
          50      9.11863  8.23625e-05 -1.67682e-05      58.8618 
          50      9.21139  8.26749e-05  -1.6232e-05      58.8616 
          50      9.30471   8.2965e-05 -1.57075e-05      58.8615 
          50      9.39841  8.32352e-05 -1.51877e-05      58.8614 
          50      9.49267  8.34914e-05 -1.46625e-05      58.8613 
          50      9.58739  8.37427e-05 -1.41223e-05      58.8611 
          50      9.68251  8.40028e-05 -1.35582e-05       58.861 
          50      9.77817  8.42915e-05  -1.2963e-05      58.8609 
          50      9.87422  8.45115e-05 -1.25552e-05      58.8608 
          50      9.97083  8.46575e-05 -1.23469e-05      58.8606 
          50      10.0678  8.49945e-05 -1.16195e-05      58.8605 
          50      10.1654  8.52319e-05 -1.12701e-05      58.8604 
          50      10.2633    8.551e-05 -1.09524e-05      58.8602 
          50      10.3618  8.58077e-05  -1.0637e-05      58.8601 
          50      10.4607  8.61101e-05 -1.03089e-05        58.86 
          50      10.5601  8.64079e-05 -9.96398e-06      58.8598 
          50        10.66  8.66966e-05 -9.60498e-06      58.8597 
          50      10.7603  8.69741e-05 -9.24053e-06      58.8595 
          50      10.8611  8.72409e-05 -8.88046e-06      58.8594 
          50      10.9623   8.7498e-05 -8.53586e-06      58.8592 
          50      11.0641  8.77473e-05 -8.21502e-06      58.8591 
          50      11.1663  8.79899e-05 -7.92399e-06      58.8589 
          50       11.269  8.82258e-05 -7.66473e-06      58.8588 
          50      11.3721  8.84546e-05 -7.43425e-06      58.8586 
          50      11.4757   8.8674e-05 -7.22616e-06      58.8584 
          50      11.5798  8.88814e-05 -7.03005e-06      58.8583 
          50      11.6844  8.90728e-05 -6.83435e-06      58.8581 
          50      11.7894  8.92452e-05  -6.6274e-06      58.8579 
          50       11.895  8.93966e-05 -6.40161e-06      58.8578 
          50      12.0009  8.95274e-05 -6.15713e-06      58.8576 
          50      12.1073   8.9643e-05 -5.90618e-06      58.8574 
          50      12.2142   8.9755e-05 -5.68043e-06      58.8573 
          50      12.3216  8.98844e-05 -5.53668e-06      58.8571 
          50      12.4294  9.00339e-05 -5.44606e-06      58.8569 
          50      12.5378  9.01476e-05 -5.19985e-06      58.8567 
          50      12.6465  9.02757e-05 -5.00335e-06      58.8565 
          50      12.7558  9.04162e-05 -4.83558e-06      58.8563 
          50      12.8656  9.05653e-05 -4.68109e-06      58.8562 
          50      12.9757  9.07187e-05 -4.52882e-06       58.856 
          50      13.0864  9.08715e-05 -4.37125e-06      58.8558 
          50      13.1975  9.10181e-05 -4.20471e-06      58.8556 
          50      13.3092  9.11532e-05 -4.02778e-06      58.8554 
          50      13.4212  9.12717e-05  -3.8419e-06      58.8552 
          50      13.5338  9.13691e-05 -3.64976e-06       58.855 
          50      13.6468  9.14417e-05 -3.45584e-06      58.8548 
          50      13.7603  9.14872e-05 -3.26556e-06      58.8546 
          50      13.8743  9.15709e-05  -3.1781e-06      58.8543 
          50      13.9886  9.16693e-05 -3.10691e-06      58.8541 
          50      14.1036  9.17578e-05 -2.99763e-06      58.8539 
          50      14.2189  9.18423e-05 -2.85722e-06      58.8537 
          50      14.3348  9.19268e-05 -2.69591e-06      58.8535 
          50       14.451  9.20137e-05 -2.52667e-06      58.8532 
          50      14.5678  9.21039e-05 -2.36263e-06       58.853 
          50      14.6851   9.2197e-05 -2.21631e-06      58.8528 
          50      14.8028  9.22916e-05 -2.09713e-06      58.8526 
          50       14.921  9.23861e-05 -2.00907e-06      58.8523 
          50      15.0396  9.24776e-05 -1.94894e-06      58.8521 
          50      15.1588  9.25635e-05 -1.90324e-06      58.8519 
          50      15.2783  9.26408e-05 -1.84574e-06      58.8516 
          50      15.3984  9.27065e-05 -1.73411e-06      58.8514 
          50       15.519  9.27579e-05 -1.50682e-06      58.8511 
          50        15.64  9.27926e-05 -1.07996e-06      58.8509 
          50      15.7615   9.2872e-05 -1.04859e-06      58.8506 
          50      15.8834  9.29705e-05 -1.01302e-06      58.8504 
          50      16.0058   9.3071e-05 -9.12712e-07      58.8501 
          50      16.1286  9.31657e-05  -7.7182e-07      58.8498 
          50       16.252  9.32496e-05 -6.10378e-07      58.8496 
          50      16.3759  9.33193e-05 -4.44901e-07      58.8493 
          50      16.5002  9.33735e-05 -2.88051e-07       58.849 
          50       16.625  9.34126e-05  -1.4832e-07      58.8488 
          50      16.7501  9.34378e-05 -3.10246e-08      58.8485 
          50      16.8759  9.34517e-05  6.23189e-08      58.8482 
          50       17.002  9.34574e-05  1.32912e-07      58.8479 
          50      17.1287  9.34587e-05  1.84827e-07      58.8477 
          50      17.2557  9.34593e-05  2.23994e-07      58.8474 
          50      17.3834  9.34631e-05  2.57875e-07      58.8471 
          50      17.5115  9.34734e-05  2.94422e-07      58.8468 
          50      17.6399   9.3493e-05  3.41238e-07      58.8465 
          50       17.769  9.35241e-05   4.0462e-07      58.8462 
          50      17.8984  9.35675e-05  4.88049e-07      58.8459 
          50      18.0284   9.3623e-05  5.91232e-07      58.8456 
          50      18.1587  9.36888e-05  7.08033e-07      58.8453 
          50      18.2896  9.37614e-05  8.25384e-07       58.845 
          50       18.421  9.38357e-05  9.20757e-07      58.8447 
          50      18.5528  9.38796e-05  1.03056e-06      58.8443 
          50      18.6851  9.39323e-05  1.11805e-06       58.844 
          50      18.8178   9.4014e-05  1.15997e-06      58.8437 
          50      18.9511  9.41266e-05  1.16957e-06      58.8434 
          50      19.0847  9.42683e-05  1.16928e-06       58.843 
          50      19.2189  9.44323e-05  1.19258e-06      58.8427 
          50      19.3535  9.46047e-05   1.2858e-06      58.8424 
          50      19.4886  9.47633e-05  1.51036e-06       58.842 
          50      19.6242  9.48749e-05  1.94454e-06      58.8417 
          50      19.7602  9.48001e-05  2.23025e-06      58.8413 
          50      19.8968   9.4594e-05  2.04788e-06       58.841 
          50      20.0337  9.44659e-05  2.06694e-06      58.8406 
          50      20.1712  9.43969e-05  2.20443e-06      58.8403 
          50      20.3091  9.43718e-05  2.38689e-06      58.8399 
          50      20.4475  9.43792e-05   2.5506e-06      58.8396 
          50      20.5864  9.44107e-05  2.64035e-06      58.8392 
          50      20.7257  9.44613e-05  2.60969e-06      58.8388 
          50      20.8655  9.44554e-05  2.54599e-06      58.8385 
          50      21.0058  9.43709e-05  2.53493e-06      58.8381 
          50      21.1465  9.42758e-05  2.51232e-06      58.8377 
          50      21.2877  9.41828e-05  2.48506e-06      58.8373 
          50      21.4294  9.41012e-05  2.45667e-06      58.8369 
          50      21.5716  9.40375e-05  2.42832e-06      58.8365 
          50      21.7142  9.39955e-05  2.39967e-06      58.8362 
          50      21.8573   9.3977e-05  2.36956e-06      58.8358 
          50      22.0008   9.3982e-05  2.33677e-06      58.8354 
          50      22.1449  9.40091e-05  2.30037e-06       58.835 
          50      22.2893   9.4056e-05  2.26025e-06      58.8345 
          50      22.4344  9.41193e-05  2.21714e-06      58.8341 
          50      22.5797   9.4195e-05  2.17288e-06      58.8337 
          50      22.7257  9.42789e-05     2.13e-06      58.8333 
          50      22.8721  9.43662e-05   2.0917e-06      58.8329 
          50      23.0189  9.44516e-05  2.06119e-06      58.8325 
          50      23.1663  9.45301e-05  2.04088e-06       58.832 
          50       23.314  9.45957e-05   2.0316e-06      58.8316 
          50      23.4623  9.46421e-05  2.03129e-06      58.8312 
          50       23.611  9.46623e-05  2.03359e-06      58.8307 
          50      23.7602   9.4648e-05  2.02614e-06      58.8303 
          50        23.91  9.45898e-05  1.98853e-06      58.8298 
          50        24.06  9.44761e-05  1.89015e-06      58.8294 
          50      24.2107  9.42929e-05  1.68724e-06      58.8289 
          50      24.3617  9.44361e-05  1.72951e-06      58.8285 
          50      24.5133  9.46322e-05  1.87924e-06       58.828 
          50      24.6653   9.4714e-05  1.97096e-06      58.8275 
          50      24.8178  9.47256e-05  2.02107e-06      58.8271 
          50      24.9708  9.47001e-05  2.04258e-06      58.8266 
          50      25.1242  9.46617e-05  2.04581e-06      58.8261 
          50      25.2781  9.46266e-05  2.03859e-06      58.8256 
          50      25.4324  9.46044e-05   2.0266e-06      58.8252 
          50      25.5873  9.45994e-05  2.01363e-06      58.8247 
          50      25.7426  9.46118e-05  2.00201e-06      58.8242 
          50      25.8984  9.46387e-05  1.99275e-06      58.8237 
          50      26.0546  9.46749e-05  1.98593e-06      58.8232 
          50      26.2114  9.47143e-05  1.98092e-06      58.8227 
          50      26.3686  9.47502e-05  1.97663e-06      58.8222 
          50      26.5262  9.47763e-05  1.97177e-06      58.8217 
          50      26.6844  9.47874e-05  1.96504e-06      58.8211 
          50      26.8429  9.47796e-05  1.95534e-06      58.8206 
          50       27.002  9.47506e-05  1.94191e-06      58.8201 
          50      27.1615  9.47005e-05  1.92458e-06      58.8196 
          50      27.3216  9.46311e-05  1.90375e-06       58.819 
          50      27.4821  9.45463e-05  1.88062e-06      58.8185 
          50       27.643  9.44516e-05  1.85723e-06       58.818 
          50      27.8044  9.43537e-05  1.83642e-06      58.8174 
          50      27.9663  9.42602e-05  1.82195e-06      58.8169 
          50      28.1287   9.4178e-05  1.81841e-06      58.8163 
          50      28.2914  9.41133e-05  1.83118e-06      58.8158 
          50      28.4548  9.40693e-05  1.86634e-06      58.8152 
          50      28.6185  9.40455e-05  1.93045e-06      58.8147 
          50      28.7828  9.40355e-05  2.03056e-06      58.8141 
          50      28.9475  9.40252e-05  2.17376e-06      58.8135 
          50      29.1126  9.39906e-05   2.3668e-06      58.8129 
          50      29.2784  9.38622e-05  2.57347e-06      58.8124 
          50      29.4444  9.36359e-05  2.58414e-06      58.8118 
          50       29.611  9.33326e-05  2.32149e-06      58.8112 
          50       29.778   9.3125e-05  1.86089e-06      58.8106 
          50      29.9456  9.38268e-05  2.06388e-06        58.81 
          50      30.1137  9.43182e-05  2.17645e-06      58.8094 
          50      30.2821  9.45659e-05  2.32883e-06      58.8088 
          50      30.4511  9.46136e-05  2.57374e-06      58.8082 
          50      30.6204  9.45709e-05  2.71582e-06      58.8076 
          50      30.7903  9.44843e-05  2.75972e-06      58.8069 
          50      30.9606  9.43864e-05  2.71717e-06      58.8063 
          50      31.1315  9.42978e-05  2.60507e-06      58.8057 
          50      31.3028  9.42298e-05  2.44359e-06      58.8051 
          50      31.4745  9.41863e-05  2.25432e-06      58.8044 
          50      31.6468  9.41657e-05   2.0581e-06      58.8038 
          50      31.8194   9.4163e-05  1.87459e-06      58.8032 
          50      31.9926  9.41708e-05  1.71991e-06      58.8025 
          50      32.1662  9.41813e-05  1.60682e-06      58.8019 
          50      32.3404   9.4187e-05  1.54306e-06      58.8012 
          50      32.5149  9.41822e-05  1.53164e-06      58.8005 
          50        32.69   9.4163e-05  1.57029e-06      58.7999 
          50      32.8655  9.41284e-05  1.65185e-06      58.7992 
          50      33.0414  9.40802e-05  1.76454e-06      58.7985 
          50       33.218  9.40228e-05   1.8933e-06      58.7978 
          50      33.3948  9.39631e-05  2.02029e-06      58.7972 
          50      33.5723  9.39096e-05  2.12729e-06      58.7965 
          50        33.75  9.38713e-05  2.19694e-06      58.7958 
          50      33.9284  9.38563e-05  2.21579e-06      58.7951 
          50      34.1073  9.38702e-05  2.17669e-06      58.7944 
          50      34.2865  9.39137e-05  2.08252e-06      58.7937 
          50      34.4663  9.39802e-05  1.94955e-06       58.793 
          50      34.6465  9.40526e-05  1.81235e-06      58.7923 
          50      34.8272  9.40998e-05  1.72792e-06      58.7915 
          50      35.0083  9.40732e-05  1.78174e-06      58.7908 
          50        35.19  9.39015e-05  2.09354e-06      58.7901 
          50      35.3721  9.34865e-05   2.8239e-06      58.7894 
          50      35.5546  9.33127e-05  2.97592e-06      58.7886 
          50      35.7377  9.35773e-05  2.33892e-06      58.7879 
          50      35.9211   9.3728e-05  2.02322e-06      58.7871 
          50      36.1052   9.3792e-05  1.93334e-06      58.7864 
          50      36.2895  9.37926e-05  1.99194e-06      58.7856 
          50      36.4745    9.375e-05   2.1373e-06      58.7849 
          50      36.6598   9.3681e-05  2.32168e-06      58.7841 
          50      36.8457  9.35996e-05  2.51037e-06      58.7834 
          50      37.0321  9.35169e-05  2.67931e-06      58.7826 
          50      37.2188  9.34415e-05  2.81393e-06      58.7818 
          50      37.4062  9.33792e-05  2.90796e-06       58.781 
          50      37.5938  9.33337e-05  2.96116e-06      58.7802 
          50      37.7821  9.33065e-05  2.97847e-06      58.7795 
          50      37.9707  9.32971e-05  2.96817e-06      58.7787 
          50      38.1599  9.33029e-05  2.94059e-06      58.7779 
          50      38.3496  9.33197e-05  2.90672e-06      58.7771 
          50      38.5396  9.33415e-05  2.87685e-06      58.7762 
          50      38.7302   9.3361e-05  2.85914e-06      58.7754 
          50      38.9211  9.33691e-05  2.85853e-06      58.7746 
          50      39.1127  9.33556e-05  2.87539e-06      58.7738 
          50      39.3046  9.33087e-05  2.90441e-06       58.773 
          50      39.4971  9.32157e-05  2.93354e-06      58.7721 
          50      39.6899  9.30625e-05  2.94286e-06      58.7713 
          50      39.8833  9.29988e-05  2.99133e-06      58.7705 
          50      40.0772  9.29864e-05  3.07975e-06      58.7696 
          50      40.2714  9.29845e-05  3.18398e-06      58.7688 
          50      40.4663  9.29901e-05  3.29701e-06      58.7679 
          50      40.6615  9.29982e-05  3.41234e-06      58.7671 
          50      40.8573   9.3003e-05  3.52462e-06      58.7662 
          50      41.0534  9.29981e-05  3.62871e-06      58.7653 
          50      41.2501  9.29774e-05  3.72007e-06      58.7645 
          50      41.4473  9.29358e-05  3.79376e-06      58.7636 
          50      41.6448  9.28701e-05  3.84413e-06      58.7627 
          50      41.8429  9.27801e-05  3.86422e-06      58.7618 
          50      42.0414  9.26698e-05  3.84466e-06      58.7609 
          50      42.2405  9.25487e-05  3.77278e-06        58.76 
          50      42.4399  9.26807e-05  3.88619e-06      58.7591 
          50      42.6399  9.28998e-05  4.09566e-06      58.7582 
          50      42.8404  9.30476e-05  4.24819e-06      58.7573 
          50      43.0412  9.31366e-05  4.34777e-06      58.7564 
          50      43.2426  9.31754e-05  4.40103e-06      58.7555 
          50      43.4444  9.31696e-05  4.41663e-06      58.7546 
          50      43.6467  9.31232e-05  4.40549e-06      58.7536 
          50      43.8494  9.30398e-05  4.38044e-06      58.7527 
          50      44.0527  9.29228e-05  4.35607e-06      58.7518 
          50      44.2563  9.27775e-05  4.34859e-06      58.7508 
          50      44.4606  9.26109e-05  4.37557e-06      58.7499 
          50      44.6653  9.24329e-05   4.4558e-06      58.7489 
          50      44.8704  9.22575e-05  4.60886e-06       58.748 
          50       45.076  9.21016e-05  4.85544e-06       58.747 
          50       45.282  9.19878e-05  5.21604e-06       58.746 
          50      45.4886   9.2138e-05  5.26929e-06      58.7451 
          50      45.6955  9.22979e-05  5.21538e-06      58.7441 
          50       45.903  9.23949e-05  5.17698e-06      58.7431 
          50      46.1111  9.24385e-05  5.14998e-06      58.7421 
          50      46.3194  9.24386e-05  5.13125e-06      58.7411 
          50      46.5283   9.2405e-05  5.11842e-06      58.7402 
          50      46.7376  9.23476e-05  5.10982e-06      58.7392 
          50      46.9475  9.22755e-05  5.10428e-06      58.7382 
          50      47.1577  9.21977e-05   5.1011e-06      58.7372 
          50      47.3685  9.21221e-05  5.09985e-06      58.7361 
          50      47.5798   9.2056e-05  5.10037e-06      58.7351 
          50      47.7914  9.20052e-05  5.10273e-06      58.7341 
          50      48.0037  9.19742e-05  5.10718e-06      58.7331 