Variables = x, y, u, v, p

Zone, I=800, F=POINT
         -10            0 -4.25335e-20 -5.17647e-25     -10.7561 
         -10     0.000234 -2.10671e-06 -2.21646e-11     -10.7561 
         -10     0.000939 -7.93225e-06 -4.05792e-11     -10.7561 
         -10     0.002113 -1.60412e-05  8.81277e-11     -10.7561 
         -10     0.003759 -2.45352e-05  5.97823e-10     -10.7561 
         -10     0.005872 -3.15263e-05  1.80147e-09     -10.7561 
         -10     0.008457 -3.57654e-05  4.08773e-09     -10.7561 
         -10      0.01151 -3.69484e-05  7.89866e-09     -10.7561 
         -10     0.015036 -3.58284e-05  1.37338e-08     -10.7561 
         -10     0.019031 -3.39219e-05   2.2115e-08     -10.7561 
         -10     0.023493 -3.29168e-05   3.3584e-08     -10.7561 
         -10     0.028429 -3.39406e-05  4.87171e-08     -10.7561 
         -10     0.033831 -3.69783e-05  6.80425e-08     -10.7561 
         -10     0.039706 -4.07741e-05  9.21164e-08     -10.7561 
         -10     0.046047 -4.34567e-05  1.21402e-07     -10.7561 
         -10     0.052863 -4.39178e-05  1.56376e-07     -10.7561 
         -10      0.06015 -4.33094e-05  1.97372e-07     -10.7561 
         -10       0.0679 -4.51265e-05  2.44591e-07     -10.7561 
         -10     0.076126 -5.07048e-05  2.98255e-07     -10.7561 
         -10     0.084816 -4.90246e-05  3.58347e-07     -10.7561 
         -10     0.093982 -5.25046e-05  4.24948e-07     -10.7561 
         -10     0.103611  -5.5002e-05  4.97773e-07     -10.7561 
         -10     0.113718 -5.70294e-05  5.76603e-07     -10.7561 
         -10     0.124286 -5.89403e-05  6.60895e-07     -10.7561 
         -10     0.135333 -6.09268e-05  7.50308e-07     -10.7561 
         -10      0.14685 -6.30209e-05  8.44219e-07     -10.7561 
         -10     0.158827 -6.51401e-05  9.41922e-07     -10.7561 
         -10     0.171284 -6.71594e-05  1.04289e-06     -10.7561 
         -10     0.184201 -6.89763e-05   1.1462e-06     -10.7561 
         -10     0.197599 -7.05887e-05  1.25123e-06     -10.7561 
         -10     0.211455 -7.20999e-05    1.357e-06     -10.7561 
         -10     0.225792 -7.36433e-05  1.46296e-06     -10.7561 
         -10       0.2406 -7.51101e-05  1.56854e-06     -10.7561 
         -10     0.255865 -7.61067e-05  1.67321e-06     -10.7561 
         -10     0.271613 -7.71804e-05  1.77502e-06     -10.7561 
         -10     0.287818 -7.80748e-05  1.87383e-06     -10.7561 
         -10     0.304506 -7.88067e-05  1.97006e-06     -10.7561 
         -10      0.32165 -7.93892e-05  2.06362e-06     -10.7561 
         -10     0.339278 -7.98356e-05  2.15453e-06     -10.7561 
         -10     0.357377  -8.0156e-05   2.2425e-06     -10.7561 
         -10      0.37593 -8.03592e-05  2.32717e-06     -10.7561 
         -10     0.394968  -8.0453e-05  2.40847e-06     -10.7561 
         -10     0.414461 -8.04439e-05  2.48621e-06     -10.7561 
         -10      0.43444 -8.03378e-05  2.56067e-06     -10.7561 
         -10     0.454872 -8.01405e-05  2.63214e-06     -10.7561 
         -10     0.475791 -7.98579e-05  2.70143e-06     -10.7561 
         -10     0.497163 -7.94968e-05   2.7693e-06     -10.7561 
         -10     0.519021 -7.90632e-05  2.83671e-06     -10.7561 
         -10      0.54135 -7.85632e-05  2.90412e-06     -10.7561 
         -10     0.564131 -7.80004e-05  2.97104e-06     -10.7561 
         -10       0.5874 -7.73717e-05  3.03541e-06     -10.7561 
         -10     0.611121 -7.66701e-05  3.09368e-06     -10.7561 
         -10      0.63533 -7.59313e-05  3.16401e-06     -10.7561 
         -10      0.65999 -7.51251e-05  3.23563e-06     -10.7561 
         -10     0.685139 -7.42576e-05  3.30761e-06     -10.7561 
         -10     0.710759 -7.33364e-05  3.37906e-06     -10.7561 
         -10     0.736828 -7.23694e-05  3.44931e-06     -10.7561 
         -10     0.763387 -7.13618e-05  3.51803e-06     -10.7561 
         -10     0.790396 -7.03215e-05  3.58486e-06     -10.7561 
         -10     0.817896  -6.9253e-05  3.64979e-06     -10.7561 
         -10     0.845843 -6.81633e-05  3.71272e-06     -10.7561 
         -10     0.874283 -6.70554e-05  3.77382e-06      -10.756 
         -10      0.90317 -6.59352e-05  3.83309e-06      -10.756 
         -10     0.932551 -6.48042e-05  3.89073e-06      -10.756 
         -10     0.962401  -6.3666e-05  3.94672e-06      -10.756 
         -10     0.992697 -6.25231e-05  4.00095e-06      -10.756 
         -10      1.02349 -6.13748e-05  4.05332e-06      -10.756 
         -10      1.05472 -6.02231e-05  4.10336e-06      -10.756 
         -10      1.08645 -5.90656e-05  4.15061e-06      -10.756 
         -10      1.11863 -5.79032e-05  4.19428e-06      -10.756 
         -10       1.1513 -5.67325e-05  4.23354e-06      -10.756 
         -10      1.18444 -5.55529e-05   4.2674e-06      -10.756 
         -10      1.21802 -5.43636e-05  4.29486e-06      -10.756 
         -10      1.25211 -5.31614e-05  4.31515e-06      -10.756 
         -10      1.28663  -5.1948e-05  4.32777e-06      -10.756 
         -10      1.32165 -5.07219e-05  4.33289e-06      -10.756 
         -10      1.35712 -4.94877e-05  4.33159e-06      -10.756 
         -10      1.39308 -4.82485e-05   4.3264e-06      -10.756 
         -10      1.42951 -4.70133e-05   4.3218e-06      -10.756 
         -10      1.46638 -4.57955e-05  4.32489e-06      -10.756 
         -10      1.50375 -4.46103e-05  4.34627e-06      -10.756 
         -10      1.54156 -4.32657e-05  4.36791e-06      -10.756 
         -10      1.57987 -4.20038e-05  4.35068e-06      -10.756 
         -10      1.61863 -4.08248e-05  4.30369e-06      -10.756 
         -10      1.65788 -3.97097e-05  4.23527e-06      -10.756 
         -10      1.69757 -3.86461e-05  4.15267e-06      -10.756 
         -10      1.73776  -3.7621e-05  4.06167e-06      -10.756 
         -10      1.77842 -3.66269e-05  3.96698e-06      -10.756 
         -10      1.81952 -3.56588e-05  3.87212e-06      -10.756 
         -10      1.86113 -3.47125e-05  3.77917e-06      -10.756 
         -10      1.90316 -3.37891e-05  3.68939e-06      -10.756 
         -10      1.94571 -3.28891e-05  3.60265e-06      -10.756 
         -10      1.98869 -3.20181e-05  3.51816e-06      -10.756 
         -10      2.03217 -3.11808e-05  3.43393e-06      -10.756 
         -10      2.07612 -3.03854e-05  3.34741e-06      -10.756 
         -10      2.12051 -2.96413e-05  3.25541e-06      -10.756 
         -10       2.1654 -2.89569e-05  3.15402e-06      -10.756 
         -10      2.21073 -2.83435e-05  3.03927e-06      -10.756 
         -10      2.25656 -2.78102e-05  2.90666e-06      -10.756 
         -10      2.30283 -2.73677e-05  2.75207e-06      -10.756 
         -10       2.3496 -2.70242e-05  2.57105e-06      -10.756 
         -10      2.39685  -2.6788e-05  2.35986e-06      -10.756 
         -10      2.44452 -2.66652e-05  2.11536e-06      -10.756 
         -10      2.49271 -2.66596e-05   1.8345e-06     -10.7559 
         -10      2.54132 -2.67727e-05  1.51593e-06     -10.7559 
         -10      2.59044 -2.70035e-05  1.15834e-06     -10.7559 
         -10         2.64 -2.73471e-05  7.62669e-07     -10.7559 
         -10      2.69006 -2.77962e-05  3.29941e-07     -10.7559 
         -10      2.74056 -2.83388e-05  -1.3615e-07     -10.7559 
         -10      2.79156 -2.89606e-05 -6.31897e-07     -10.7559 
         -10      2.84304 -2.96428e-05 -1.15104e-06     -10.7559 
         -10      2.89494 -3.03628e-05 -1.68585e-06     -10.7559 
         -10      2.94735 -3.10967e-05 -2.22852e-06     -10.7559 
         -10       3.0002 -3.18158e-05 -2.76837e-06     -10.7559 
         -10      3.05355 -3.24919e-05 -3.29549e-06     -10.7559 
         -10      3.10733 -3.30939e-05 -3.79765e-06     -10.7559 
         -10      3.16163  -3.3593e-05 -4.26404e-06     -10.7559 
         -10      3.21639 -3.39607e-05 -4.68291e-06     -10.7559 
         -10      3.27158 -3.41729e-05 -5.04367e-06     -10.7559 
         -10      3.32729 -3.42121e-05 -5.33829e-06     -10.7559 
         -10      3.38342 -3.40689e-05 -5.56043e-06     -10.7558 
         -10      3.44007 -3.37455e-05 -5.70837e-06     -10.7558 
         -10      3.49714 -3.32605e-05 -5.78495e-06     -10.7558 
         -10      3.55472 -3.26507e-05 -5.79998e-06     -10.7558 
         -10      3.61273 -3.19788e-05 -5.77153e-06     -10.7558 
         -10      3.67125 -3.13356e-05 -5.72805e-06     -10.7558 
         -10      3.73025 -3.08494e-05 -5.71072e-06     -10.7558 
         -10      3.78967 -3.05635e-05 -5.47749e-06     -10.7558 
         -10      3.84961 -3.02283e-05 -5.24362e-06     -10.7558 
         -10      3.90996 -2.98607e-05  -5.1081e-06     -10.7558 
         -10      3.97084 -2.94848e-05 -5.01985e-06     -10.7558 
         -10      4.03214 -2.91148e-05  -4.9425e-06     -10.7557 
         -10      4.09395 -2.87546e-05 -4.85241e-06     -10.7557 
         -10      4.15624  -2.8403e-05 -4.73771e-06     -10.7557 
         -10      4.21895 -2.80551e-05 -4.59689e-06     -10.7557 
         -10      4.28217 -2.77392e-05 -4.38864e-06     -10.7557 
         -10      4.34582 -2.74308e-05 -4.19231e-06     -10.7557 
         -10      4.40998 -2.71267e-05 -4.02485e-06     -10.7557 
         -10      4.47457 -2.68357e-05 -3.88036e-06     -10.7557 
         -10      4.53968 -2.65643e-05 -3.75014e-06     -10.7557 
         -10      4.60525 -2.63186e-05 -3.62499e-06     -10.7556 
         -10      4.67125  -2.6102e-05 -3.49631e-06     -10.7556 
         -10      4.73777 -2.59153e-05 -3.35703e-06     -10.7556 
         -10       4.8047 -2.57568e-05 -3.20346e-06     -10.7556 
         -10      4.87216 -2.56219e-05 -3.03515e-06     -10.7556 
         -10      4.94003 -2.55037e-05 -2.85656e-06     -10.7556 
         -10      5.00843 -2.53932e-05 -2.67612e-06     -10.7556 
         -10      5.07724 -2.52809e-05 -2.50736e-06     -10.7555 
         -10      5.14658 -2.51569e-05 -2.36716e-06     -10.7555 
         -10      5.21639 -2.50139e-05 -2.27573e-06     -10.7555 
         -10      5.28661 -2.48554e-05 -2.21831e-06     -10.7555 
         -10      5.35736 -2.47124e-05 -2.07217e-06     -10.7555 
         -10      5.42852 -2.45599e-05 -2.00986e-06     -10.7554 
         -10      5.50021 -2.44124e-05 -1.96857e-06     -10.7554 
         -10      5.57231 -2.42773e-05 -1.91353e-06     -10.7554 
         -10      5.64493 -2.41559e-05 -1.83092e-06     -10.7554 
         -10      5.71803 -2.40464e-05 -1.72182e-06     -10.7554 
         -10      5.79154 -2.39447e-05 -1.59635e-06     -10.7554 
         -10      5.86558 -2.38457e-05 -1.46803e-06     -10.7553 
         -10      5.94003 -2.37455e-05 -1.35009e-06     -10.7553 
         -10      6.01501 -2.36414e-05 -1.25116e-06     -10.7553 
         -10       6.0904 -2.35335e-05 -1.17361e-06     -10.7553 
         -10      6.16632 -2.34244e-05 -1.11173e-06     -10.7552 
         -10      6.24271 -2.33199e-05 -1.05255e-06     -10.7552 
         -10       6.3195 -2.32283e-05 -9.77559e-07     -10.7552 
         -10      6.39683 -2.31594e-05 -8.66368e-07     -10.7552 
         -10      6.47457 -2.31235e-05 -7.03075e-07     -10.7551 
         -10      6.55284 -2.31291e-05 -4.83713e-07     -10.7551 
         -10      6.63152 -2.31801e-05 -2.28073e-07     -10.7551 
         -10      6.71073 -2.32729e-05  8.00299e-09     -10.7551 
         -10      6.79034 -2.33916e-05  1.14505e-07      -10.755 
         -10      6.87049 -2.35033e-05  -9.1801e-08      -10.755 
         -10      6.95111 -2.35463e-05 -5.51129e-07      -10.755 
         -10      7.03214 -2.36435e-05 -6.69418e-08     -10.7549 
         -10       7.1137 -2.37145e-05  4.99291e-07     -10.7549 
         -10      7.19566 -2.36972e-05  9.08891e-07     -10.7549 
         -10      7.27816 -2.37246e-05  1.16963e-06     -10.7548 
         -10      7.36106 -2.37081e-05   1.3132e-06     -10.7548 
         -10      7.44451  -2.3653e-05  1.41685e-06     -10.7548 
         -10      7.52842 -2.35702e-05  1.52623e-06     -10.7547 
         -10      7.61273 -2.34734e-05  1.66317e-06     -10.7547 
         -10      7.69758 -2.33763e-05  1.83304e-06     -10.7547 
         -10      7.78283 -2.32912e-05  2.03017e-06     -10.7546 
         -10      7.86862 -2.32268e-05  2.24445e-06     -10.7546 
         -10      7.95481 -2.31875e-05  2.46467e-06     -10.7546 
         -10      8.04155 -2.31724e-05  2.68333e-06     -10.7545 
         -10      8.12868 -2.31761e-05   2.8975e-06     -10.7545 
         -10      8.21635 -2.31887e-05  3.11108e-06     -10.7544 
         -10      8.30449 -2.31981e-05  3.33285e-06     -10.7544 
         -10      8.39303 -2.31923e-05  3.57454e-06     -10.7544 
         -10      8.48211 -2.31628e-05  3.84696e-06     -10.7543 
         -10      8.57159 -2.31094e-05  4.15206e-06     -10.7543 
         -10      8.66161 -2.30456e-05  4.47576e-06     -10.7542 
         -10      8.75203 -2.30061e-05  4.77452e-06     -10.7542 
         -10      8.84299 -2.30549e-05  4.96296e-06     -10.7541 
         -10      8.93443 -2.31038e-05   5.2583e-06     -10.7541 
         -10      9.02626 -2.28697e-05  5.93823e-06      -10.754 
         -10      9.11863 -2.25693e-05  6.52372e-06      -10.754 
         -10      9.21139 -2.23078e-05  6.94576e-06     -10.7539 
         -10      9.30471 -2.21673e-05  7.23308e-06     -10.7539 
         -10      9.39841 -2.21994e-05  7.49284e-06     -10.7538 
         -10      9.49267 -2.24203e-05  7.89331e-06     -10.7538 
         -10      9.58739 -2.24748e-05  8.22688e-06     -10.7537 
         -10      9.68251 -2.24355e-05  8.35208e-06     -10.7536 
         -10      9.77817 -2.24494e-05  8.41939e-06     -10.7536 
         -10      9.87422 -2.25048e-05  8.45201e-06     -10.7535 
         -10      9.97083 -2.25903e-05  8.46347e-06     -10.7535 
         -10      10.0678 -2.26958e-05  8.45915e-06     -10.7534 
         -10      10.1654 -2.28139e-05  8.43819e-06     -10.7533 
         -10      10.2633 -2.29403e-05  8.39559e-06     -10.7533 
         -10      10.3618 -2.30747e-05  8.32412e-06     -10.7532 
         -10      10.4607 -2.32197e-05  8.21681e-06     -10.7531 
         -10      10.5601 -2.33804e-05  8.06934e-06     -10.7531 
         -10        10.66 -2.35633e-05   7.8821e-06      -10.753 
         -10      10.7603 -2.37732e-05  7.66375e-06     -10.7529 
         -10      10.8611 -2.40116e-05  7.43284e-06     -10.7529 
         -10      10.9623 -2.42715e-05  7.22211e-06     -10.7528 
         -10      11.0641 -2.45344e-05  7.08018e-06     -10.7527 
         -10      11.1663   -2.475e-05   7.0736e-06     -10.7526 
         -10       11.269  -2.4528e-05   7.0024e-06     -10.7526 
         -10      11.3721 -2.43932e-05  6.82585e-06     -10.7525 
         -10      11.4757 -2.43388e-05  6.59832e-06     -10.7524 
         -10      11.5798 -2.43556e-05  6.36069e-06     -10.7523 
         -10      11.6844 -2.44313e-05  6.14225e-06     -10.7522 
         -10      11.7894  -2.4551e-05  5.96009e-06     -10.7522 
         -10       11.895 -2.46968e-05  5.82154e-06     -10.7521 
         -10      12.0009 -2.48482e-05  5.72486e-06      -10.752 
         -10      12.1073 -2.49835e-05   5.6609e-06     -10.7519 
         -10      12.2142 -2.50802e-05  5.61566e-06     -10.7518 
         -10      12.3216 -2.51173e-05   5.5723e-06     -10.7517 
         -10      12.4294 -2.50767e-05  5.51423e-06     -10.7516 
         -10      12.5378 -2.51181e-05  5.30246e-06     -10.7515 
         -10      12.6465 -2.52552e-05  5.08929e-06     -10.7514 
         -10      12.7558 -2.53351e-05  5.01141e-06     -10.7513 
         -10      12.8656 -2.53819e-05  5.01457e-06     -10.7512 
         -10      12.9757 -2.54157e-05  5.05189e-06     -10.7511 
         -10      13.0864 -2.54524e-05   5.0851e-06      -10.751 
         -10      13.1975 -2.55037e-05  5.08518e-06     -10.7509 
         -10      13.3092 -2.55774e-05  5.03317e-06     -10.7508 
         -10      13.4212 -2.56771e-05  4.92087e-06     -10.7507 
         -10      13.5338 -2.58032e-05  4.75093e-06     -10.7506 
         -10      13.6468 -2.59527e-05  4.53778e-06     -10.7505 
         -10      13.7603 -2.61195e-05   4.3077e-06     -10.7504 
         -10      13.8743 -2.62957e-05  4.09821e-06     -10.7503 
         -10      13.9886 -2.64708e-05  3.95915e-06     -10.7501 
         -10      14.1036 -2.66338e-05  3.95129e-06       -10.75 
         -10      14.2189 -2.67729e-05  4.14648e-06     -10.7499 
         -10      14.3348 -2.68388e-05    4.354e-06     -10.7498 
         -10       14.451 -2.67476e-05  3.99825e-06     -10.7497 
         -10      14.5678 -2.66468e-05  3.88207e-06     -10.7495 
         -10      14.6851  -2.6554e-05  3.91541e-06     -10.7494 
         -10      14.8028 -2.64805e-05  4.02849e-06     -10.7493 
         -10       14.921 -2.64322e-05     4.17e-06     -10.7492 
         -10      15.0396 -2.64109e-05  4.30388e-06      -10.749 
         -10      15.1588 -2.64154e-05  4.40768e-06     -10.7489 
         -10      15.2783 -2.64418e-05  4.46938e-06     -10.7488 
         -10      15.3984 -2.64849e-05  4.48584e-06     -10.7486 
         -10       15.519 -2.65385e-05  4.46021e-06     -10.7485 
         -10        15.64 -2.65964e-05  4.40025e-06     -10.7483 
         -10      15.7615  -2.6653e-05  4.31627e-06     -10.7482 
         -10      15.8834 -2.67035e-05  4.21984e-06      -10.748 
         -10      16.0058 -2.67449e-05  4.12189e-06     -10.7479 
         -10      16.1286 -2.67754e-05   4.0321e-06     -10.7477 
         -10       16.252 -2.67954e-05  3.95733e-06     -10.7476 
         -10      16.3759 -2.68071e-05  3.90152e-06     -10.7474 
         -10      16.5002 -2.68143e-05  3.86498e-06     -10.7473 
         -10       16.625 -2.68224e-05  3.84436e-06     -10.7471 
         -10      16.7501  -2.6838e-05  3.83311e-06      -10.747 
         -10      16.8759 -2.68677e-05  3.82201e-06     -10.7468 
         -10       17.002 -2.69178e-05  3.80037e-06     -10.7466 
         -10      17.1287 -2.69933e-05  3.75746e-06     -10.7465 
         -10      17.2557 -2.70961e-05  3.68467e-06     -10.7463 
         -10      17.3834  -2.7224e-05   3.5777e-06     -10.7461 
         -10      17.5115 -2.73688e-05  3.43996e-06      -10.746 
         -10      17.6399 -2.75139e-05   3.2861e-06     -10.7458 
         -10       17.769 -2.76327e-05  3.14576e-06     -10.7456 
         -10      17.8984 -2.76853e-05   3.0692e-06     -10.7454 
         -10      18.0284 -2.76158e-05  3.13211e-06     -10.7453 
         -10      18.1587 -2.75627e-05  3.98879e-06     -10.7451 
         -10      18.2896 -2.81911e-05  3.97223e-06     -10.7449 
         -10       18.421 -2.87059e-05  3.30605e-06     -10.7447 
         -10      18.5528 -2.85938e-05  3.20692e-06     -10.7445 
         -10      18.6851 -2.83919e-05  3.24298e-06     -10.7443 
         -10      18.8178 -2.81531e-05  3.33286e-06     -10.7441 
         -10      18.9511 -2.79139e-05    3.421e-06     -10.7439 
         -10      19.0847 -2.76981e-05    3.473e-06     -10.7437 
         -10      19.2189 -2.75182e-05  3.47183e-06     -10.7435 
         -10      19.3535 -2.73791e-05  3.41373e-06     -10.7433 
         -10      19.4886 -2.72795e-05  3.30455e-06     -10.7431 
         -10      19.6242 -2.72146e-05  3.15664e-06     -10.7429 
         -10      19.7602 -2.71775e-05  2.98587e-06     -10.7427 
         -10      19.8968 -2.71609e-05  2.80853e-06     -10.7425 
         -10      20.0337 -2.71585e-05     2.64e-06     -10.7423 
         -10      20.1712 -2.71658e-05  2.49202e-06      -10.742 
         -10      20.3091  -2.7181e-05  2.37239e-06     -10.7418 
         -10      20.4475 -2.72049e-05  2.28329e-06     -10.7416 
         -10      20.5864 -2.72413e-05  2.22186e-06     -10.7414 
         -10      20.7257 -2.72959e-05  2.18019e-06     -10.7412 
         -10      20.8655 -2.73761e-05  2.14638e-06     -10.7409 
         -10      21.0058 -2.74887e-05   2.1065e-06     -10.7407 
         -10      21.1465 -2.76387e-05  2.04685e-06     -10.7405 
         -10      21.2877  -2.7826e-05  1.95746e-06     -10.7402 
         -10      21.4294 -2.80436e-05  1.83584e-06       -10.74 
         -10      21.5716 -2.82725e-05  1.69239e-06     -10.7397 
         -10      21.7142 -2.84782e-05  1.55618e-06     -10.7395 
         -10      21.8573 -2.86059e-05  1.48147e-06     -10.7393 
         -10      22.0008 -2.85743e-05  1.55628e-06      -10.739 
         -10      22.1449  -2.8269e-05  1.91126e-06     -10.7387 
         -10      22.2893 -2.78621e-05  1.46439e-06     -10.7385 
         -10      22.4344 -2.77558e-05  1.04563e-06     -10.7382 
         -10      22.5797 -2.78417e-05  7.53783e-07      -10.738 
         -10      22.7257 -2.80222e-05  5.41136e-07     -10.7377 
         -10      22.8721 -2.82192e-05  3.75757e-07     -10.7375 
         -10      23.0189 -2.83754e-05  2.37374e-07     -10.7372 
         -10      23.1663 -2.84543e-05  1.13951e-07     -10.7369 
         -10       23.314 -2.84399e-05 -9.00414e-10     -10.7366 
         -10      23.4623 -2.83371e-05 -1.12074e-07     -10.7364 
         -10       23.611 -2.81706e-05 -2.25587e-07     -10.7361 
         -10      23.7602 -2.79844e-05 -3.52697e-07     -10.7358 
         -10        23.91 -2.78407e-05 -5.12679e-07     -10.7355 
         -10        24.06 -2.78611e-05 -6.72959e-07     -10.7352 
         -10      24.2107 -2.80286e-05  -6.9231e-07      -10.735 
         -10      24.3617 -2.81233e-05 -7.52421e-07     -10.7347 
         -10      24.5133  -2.8176e-05 -8.31791e-07     -10.7344 
         -10      24.6653 -2.82099e-05 -9.12331e-07     -10.7341 
         -10      24.8178 -2.82421e-05 -9.80036e-07     -10.7338 
         -10      24.9708  -2.8283e-05  -1.0247e-06     -10.7335 
         -10      25.1242 -2.83375e-05 -1.04022e-06     -10.7332 
         -10      25.2781 -2.84059e-05 -1.02456e-06     -10.7329 
         -10      25.4324 -2.84841e-05 -9.79508e-07     -10.7326 
         -10      25.5873  -2.8565e-05 -9.10377e-07     -10.7322 
         -10      25.7426 -2.86395e-05 -8.25884e-07     -10.7319 
         -10      25.8984 -2.86983e-05 -7.37241e-07     -10.7316 
         -10      26.0546 -2.87324e-05 -6.58032e-07     -10.7313 
         -10      26.2114 -2.87358e-05 -6.02929e-07      -10.731 
         -10      26.3686 -2.87065e-05 -5.87247e-07     -10.7306 
         -10      26.5262 -2.86491e-05 -6.25544e-07     -10.7303 
         -10      26.6844 -2.85766e-05 -7.30635e-07       -10.73 
         -10      26.8429 -2.85132e-05 -9.11856e-07     -10.7297 
         -10       27.002  -2.8497e-05 -1.17142e-06     -10.7293 
         -10      27.1615 -2.85364e-05 -1.14556e-06      -10.729 
         -10      27.3216 -2.85292e-05 -1.15336e-06     -10.7286 
         -10      27.4821 -2.84999e-05 -1.18142e-06     -10.7283 
         -10       27.643 -2.84651e-05 -1.22033e-06     -10.7279 
         -10      27.8044 -2.84343e-05 -1.26443e-06     -10.7276 
         -10      27.9663 -2.84115e-05 -1.31099e-06     -10.7272 
         -10      28.1287 -2.83967e-05 -1.35988e-06     -10.7269 
         -10      28.2914 -2.83867e-05 -1.41267e-06     -10.7265 
         -10      28.4548 -2.83764e-05 -1.47219e-06     -10.7262 
         -10      28.6185 -2.83602e-05 -1.54135e-06     -10.7258 
         -10      28.7828 -2.83331e-05 -1.62271e-06     -10.7254 
         -10      28.9475 -2.82914e-05 -1.71715e-06     -10.7251 
         -10      29.1126 -2.82343e-05 -1.82293e-06     -10.7247 
         -10      29.2784 -2.81642e-05 -1.93491e-06     -10.7243 
         -10      29.4444 -2.80883e-05 -2.04273e-06     -10.7239 
         -10       29.611 -2.80188e-05 -2.13024e-06     -10.7236 
         -10       29.778  -2.7974e-05 -2.17343e-06     -10.7232 
         -10      29.9456 -2.79791e-05 -2.13946e-06     -10.7228 
         -10      30.1137 -2.80664e-05 -1.98475e-06     -10.7224 
         -10      30.2821 -2.82759e-05 -1.65383e-06      -10.722 
         -10      30.4511 -2.81469e-05 -2.28683e-06     -10.7216 
         -10      30.6204 -2.81033e-05 -2.74391e-06     -10.7212 
         -10      30.7903 -2.81153e-05 -3.03402e-06     -10.7208 
         -10      30.9606 -2.81514e-05 -3.19173e-06     -10.7204 
         -10      31.1315 -2.81897e-05  -3.2516e-06       -10.72 
         -10      31.3028 -2.82167e-05 -3.24597e-06     -10.7196 
         -10      31.4745 -2.82272e-05 -3.20457e-06     -10.7192 
         -10      31.6468 -2.82229e-05  -3.1531e-06     -10.7188 
         -10      31.8194 -2.82108e-05 -3.11232e-06     -10.7183 
         -10      31.9926 -2.82013e-05 -3.09664e-06     -10.7179 
         -10      32.1662 -2.82055e-05 -3.11305e-06     -10.7175 
         -10      32.3404 -2.82322e-05 -3.15978e-06     -10.7171 
         -10      32.5149  -2.8284e-05  -3.2248e-06     -10.7166 
         -10        32.69 -2.83539e-05  -3.2847e-06     -10.7162 
         -10      32.8655 -2.84195e-05 -3.30287e-06     -10.7158 
         -10      33.0414 -2.84386e-05 -3.22825e-06     -10.7153 
         -10       33.218 -2.82312e-05 -3.38629e-06     -10.7149 
         -10      33.3948 -2.81171e-05 -3.53245e-06     -10.7144 
         -10      33.5723 -2.81287e-05 -3.56463e-06      -10.714 
         -10        33.75 -2.81994e-05 -3.55184e-06     -10.7135 
         -10      33.9284 -2.82809e-05 -3.54081e-06     -10.7131 
         -10      34.1073 -2.83406e-05 -3.55953e-06     -10.7126 
         -10      34.2865 -2.83595e-05 -3.62047e-06     -10.7122 
         -10      34.4663 -2.83301e-05 -3.72405e-06     -10.7117 
         -10      34.6465 -2.82538e-05 -3.86127e-06     -10.7112 
         -10      34.8272 -2.81392e-05 -4.01707e-06     -10.7108 
         -10      35.0083 -2.79999e-05 -4.17215e-06     -10.7103 
         -10        35.19 -2.78526e-05 -4.30613e-06     -10.7098 
         -10      35.3721 -2.77155e-05 -4.39879e-06     -10.7093 
         -10      35.5546 -2.76066e-05 -4.43235e-06     -10.7089 
         -10      35.7377 -2.75419e-05 -4.39284e-06     -10.7084 
         -10      35.9211 -2.75346e-05  -4.2712e-06     -10.7079 
         -10      36.1052 -2.75932e-05 -4.06381e-06     -10.7074 
         -10      36.2895 -2.77211e-05 -3.77372e-06     -10.7069 
         -10      36.4745 -2.79154e-05 -3.40938e-06     -10.7064 
         -10      36.6598 -2.81658e-05 -2.98614e-06     -10.7059 
         -10      36.8457 -2.83368e-05 -2.73251e-06     -10.7054 
         -10      37.0321 -2.82033e-05  -3.0361e-06     -10.7049 
         -10      37.2188 -2.80946e-05 -3.30248e-06     -10.7044 
         -10      37.4062 -2.80102e-05 -3.51779e-06     -10.7039 
         -10      37.5938 -2.79496e-05 -3.67308e-06     -10.7034 
         -10      37.7821 -2.79112e-05 -3.76558e-06     -10.7029 
         -10      37.9707 -2.78926e-05 -3.79762e-06     -10.7024 
         -10      38.1599 -2.78906e-05 -3.77701e-06     -10.7018 
         -10      38.3496 -2.79007e-05 -3.71655e-06     -10.7013 
         -10      38.5396 -2.79173e-05 -3.63396e-06     -10.7008 
         -10      38.7302 -2.79333e-05  -3.5512e-06     -10.7003 
         -10      38.9211 -2.79395e-05 -3.49454e-06     -10.6997 
         -10      39.1127 -2.79249e-05 -3.49365e-06     -10.6992 
         -10      39.3046 -2.78755e-05 -3.58133e-06     -10.6987 
         -10      39.4971 -2.77746e-05 -3.79305e-06     -10.6981 
         -10      39.6899 -2.76019e-05  -4.1656e-06     -10.6976 
         -10      39.8833 -2.73325e-05 -4.73779e-06      -10.697 
         -10      40.0772 -2.70244e-05 -5.37685e-06     -10.6965 
         -10      40.2714 -2.72861e-05 -4.85982e-06     -10.6959 
         -10      40.4663 -2.74587e-05 -4.49106e-06     -10.6954 
         -10      40.6615 -2.75601e-05 -4.25736e-06     -10.6948 
         -10      40.8573 -2.76071e-05 -4.14243e-06     -10.6943 
         -10      41.0534 -2.76138e-05 -4.12916e-06     -10.6937 
         -10      41.2501 -2.75928e-05 -4.19939e-06     -10.6931 
         -10      41.4473 -2.75545e-05 -4.33475e-06     -10.6926 
         -10      41.6448 -2.75078e-05 -4.51694e-06      -10.692 
         -10      41.8429 -2.74595e-05 -4.72883e-06     -10.6914 
         -10      42.0414  -2.7415e-05 -4.95389e-06     -10.6908 
         -10      42.2405 -2.73779e-05 -5.17778e-06     -10.6903 
         -10      42.4399 -2.73507e-05 -5.38734e-06     -10.6897 
         -10      42.6399 -2.73341e-05 -5.57223e-06     -10.6891 
         -10      42.8404  -2.7328e-05 -5.72393e-06     -10.6885 
         -10      43.0412  -2.7331e-05 -5.83652e-06     -10.6879 
         -10      43.2426 -2.73409e-05 -5.90693e-06     -10.6873 
         -10      43.4444 -2.73547e-05 -5.93434e-06     -10.6867 
         -10      43.6467 -2.73689e-05 -5.92063e-06     -10.6861 
         -10      43.8494 -2.73797e-05 -5.87002e-06     -10.6855 
         -10      44.0527 -2.73832e-05  -5.7888e-06     -10.6849 
         -10      44.2563 -2.73755e-05  -5.6853e-06     -10.6843 
         -10      44.4606 -2.73531e-05 -5.56901e-06     -10.6837 
         -10      44.6653 -2.73131e-05 -5.45067e-06     -10.6831 
         -10      44.8704 -2.72536e-05  -5.3414e-06     -10.6825 
         -10       45.076 -2.71738e-05 -5.25177e-06     -10.6819 
         -10       45.282 -2.70746e-05  -5.1916e-06     -10.6813 
         -10      45.4886 -2.69585e-05 -5.16849e-06     -10.6806 
         -10      45.6955 -2.68304e-05 -5.18723e-06       -10.68 
         -10       45.903 -2.66977e-05  -5.2485e-06     -10.6794 
         -10      46.1111 -2.65708e-05  -5.3476e-06     -10.6787 
         -10      46.3194 -2.64638e-05 -5.47305e-06     -10.6781 
         -10      46.5283 -2.63941e-05 -5.60542e-06     -10.6775 
         -10      46.7376  -2.6384e-05 -5.71511e-06     -10.6768 
         -10      46.9475 -2.64602e-05 -5.76123e-06     -10.6762 
         -10      47.1577 -2.66547e-05 -5.68916e-06     -10.6756 
         -10      47.3685 -2.69441e-05 -5.44446e-06     -10.6749 
         -10      47.5798 -2.67529e-05 -5.30103e-06     -10.6743 
         -10      47.7914 -2.66103e-05 -5.24595e-06     -10.6736 
         -10      48.0037 -2.65084e-05 -5.25594e-06      -10.673 