Variables = x, y, u, v, p

Zone, I=800, F=POINT
          -5            0            0            0     -82.6372 
          -5     0.000234 -1.56864e-05   8.8533e-10     -82.6372 
          -5     0.000939 -5.91544e-05  3.45126e-09     -82.6372 
          -5     0.002113 -0.000119929  7.40709e-09     -82.6372 
          -5     0.003759 -0.000184046  1.23541e-08     -82.6372 
          -5     0.005872 -0.000237376  1.78236e-08     -82.6372 
          -5     0.008457  -0.00027015  2.34085e-08     -82.6372 
          -5      0.01151 -0.000279208  2.87701e-08     -82.6372 
          -5     0.015036 -0.000268986  3.36935e-08     -82.6372 
          -5     0.019031 -0.000249676  3.80248e-08     -82.6372 
          -5     0.023493 -0.000233259  4.16196e-08     -82.6372 
          -5     0.028429  -0.00022841  4.42539e-08     -82.6372 
          -5     0.033831  -0.00023634  4.55449e-08     -82.6372 
          -5     0.039706  -0.00024963  4.49699e-08     -82.6372 
          -5     0.046047 -0.000256029  4.19663e-08     -82.6372 
          -5     0.052863 -0.000247349  3.61263e-08     -82.6372 
          -5      0.06015 -0.000229769  2.74103e-08     -82.6372 
          -5       0.0679 -0.000225553  1.61186e-08     -82.6372 
          -5     0.076126 -0.000245709  2.10766e-09     -82.6372 
          -5     0.084816 -0.000223682 -1.66369e-08     -82.6372 
          -5     0.093982 -0.000229078  -3.6909e-08     -82.6372 
          -5     0.103611 -0.000229198 -6.00929e-08     -82.6372 
          -5     0.113718 -0.000226746 -8.69332e-08     -82.6372 
          -5     0.124286 -0.000223663 -1.17438e-07     -82.6372 
          -5     0.135333  -0.00022103 -1.51168e-07     -82.6372 
          -5      0.14685 -0.000219138 -1.87294e-07     -82.6372 
          -5     0.158827 -0.000217694 -2.24983e-07     -82.6372 
          -5     0.171284  -0.00021614 -2.63828e-07     -82.6372 
          -5     0.184201 -0.000214061 -3.03851e-07     -82.6372 
          -5     0.197599 -0.000211507 -3.45676e-07     -82.6372 
          -5     0.211455 -0.000209095 -3.89616e-07     -82.6372 
          -5     0.225792 -0.000207574 -4.34337e-07     -82.6372 
          -5       0.2406 -0.000206529  -4.7353e-07     -82.6372 
          -5     0.255865 -0.000203874 -5.00409e-07     -82.6372 
          -5     0.271613 -0.000202183 -5.32125e-07     -82.6372 
          -5     0.287818 -0.000200511 -5.75063e-07     -82.6372 
          -5     0.304506 -0.000198873 -6.21861e-07     -82.6372 
          -5      0.32165 -0.000197286 -6.66489e-07     -82.6372 
          -5     0.339278  -0.00019575   -7.088e-07     -82.6372 
          -5     0.357377  -0.00019427 -7.48651e-07     -82.6372 
          -5      0.37593 -0.000192851 -7.86014e-07     -82.6372 
          -5     0.394968 -0.000191494 -8.21085e-07     -82.6372 
          -5     0.414461 -0.000190208 -8.54065e-07     -82.6373 
          -5      0.43444 -0.000188996 -8.85391e-07     -82.6373 
          -5     0.454872 -0.000187865 -9.15517e-07     -82.6373 
          -5     0.475791 -0.000186821 -9.45108e-07     -82.6373 
          -5     0.497163 -0.000185872 -9.74825e-07     -82.6373 
          -5     0.519021 -0.000185024  -1.0055e-06     -82.6373 
          -5      0.54135 -0.000184285 -1.03795e-06     -82.6373 
          -5     0.564131 -0.000183664   -1.073e-06     -82.6373 
          -5       0.5874 -0.000183168 -1.11154e-06     -82.6374 
          -5     0.611121 -0.000182804 -1.15431e-06     -82.6374 
          -5      0.63533  -0.00018258 -1.20206e-06     -82.6374 
          -5      0.65999 -0.000182502 -1.25529e-06     -82.6374 
          -5     0.685139 -0.000182576 -1.31448e-06     -82.6374 
          -5     0.710759 -0.000182804 -1.37977e-06     -82.6375 
          -5     0.736828  -0.00018319 -1.45104e-06     -82.6375 
          -5     0.763387 -0.000183735 -1.52811e-06     -82.6375 
          -5     0.790396 -0.000184435 -1.61027e-06     -82.6375 
          -5     0.817896 -0.000185289 -1.69682e-06     -82.6375 
          -5     0.845843 -0.000186289 -1.78658e-06     -82.6376 
          -5     0.874283 -0.000187427 -1.87852e-06     -82.6376 
          -5      0.90317 -0.000188692 -1.97125e-06     -82.6376 
          -5     0.932551 -0.000190071  -2.0638e-06     -82.6377 
          -5     0.962401 -0.000191551 -2.15531e-06     -82.6377 
          -5     0.992697 -0.000193114 -2.24553e-06     -82.6377 
          -5      1.02349 -0.000194748 -2.33539e-06     -82.6378 
          -5      1.05472 -0.000196437 -2.42694e-06     -82.6378 
          -5      1.08645 -0.000198176 -2.52452e-06     -82.6378 
          -5      1.11863 -0.000199957 -2.63485e-06     -82.6379 
          -5       1.1513 -0.000201803 -2.75168e-06     -82.6379 
          -5      1.18444 -0.000203709 -2.81814e-06      -82.638 
          -5      1.21802 -0.000205592 -2.89715e-06      -82.638 
          -5      1.25211 -0.000207469 -2.98284e-06      -82.638 
          -5      1.28663 -0.000209346 -3.07041e-06     -82.6381 
          -5      1.32165 -0.000211237 -3.15665e-06     -82.6381 
          -5      1.35712 -0.000213144 -3.23921e-06     -82.6382 
          -5      1.39308 -0.000215075 -3.31702e-06     -82.6382 
          -5      1.42951 -0.000217032 -3.38963e-06     -82.6383 
          -5      1.46638 -0.000219011 -3.45719e-06     -82.6384 
          -5      1.50375 -0.000221016  -3.5204e-06     -82.6384 
          -5      1.54156 -0.000223039 -3.57986e-06     -82.6385 
          -5      1.57987 -0.000225076  -3.6362e-06     -82.6385 
          -5      1.61863 -0.000227119 -3.68945e-06     -82.6386 
          -5      1.65788 -0.000229162 -3.73907e-06     -82.6387 
          -5      1.69757 -0.000231191 -3.78335e-06     -82.6387 
          -5      1.73776 -0.000233199 -3.81947e-06     -82.6388 
          -5      1.77842 -0.000235172 -3.84293e-06     -82.6389 
          -5      1.81952 -0.000237063  -3.8657e-06      -82.639 
          -5      1.86113 -0.000238878 -3.88267e-06      -82.639 
          -5      1.90316 -0.000240598 -3.89658e-06     -82.6391 
          -5      1.94571 -0.000242215 -3.90916e-06     -82.6392 
          -5      1.98869 -0.000243725 -3.91843e-06     -82.6393 
          -5      2.03217 -0.000245149 -3.91743e-06     -82.6393 
          -5      2.07612 -0.000246528 -3.89259e-06     -82.6394 
          -5      2.12051 -0.000247912 -3.91629e-06     -82.6395 
          -5       2.1654 -0.000249271 -3.99645e-06     -82.6396 
          -5      2.21073 -0.000250606 -4.06896e-06     -82.6397 
          -5      2.25656 -0.000251934 -4.14614e-06     -82.6398 
          -5      2.30283 -0.000253261 -4.23611e-06     -82.6399 
          -5       2.3496 -0.000254591 -4.34168e-06       -82.64 
          -5      2.39685 -0.000255953 -4.45618e-06     -82.6401 
          -5      2.44452 -0.000257328 -4.57451e-06     -82.6402 
          -5      2.49271 -0.000258674 -4.68923e-06     -82.6403 
          -5      2.54132 -0.000259976 -4.78857e-06     -82.6404 
          -5      2.59044 -0.000261226 -4.86106e-06     -82.6405 
          -5         2.64 -0.000262412 -4.89547e-06     -82.6406 
          -5      2.69006 -0.000263527 -4.88173e-06     -82.6407 
          -5      2.74056 -0.000264562 -4.81122e-06     -82.6408 
          -5      2.79156 -0.000265506 -4.67711e-06      -82.641 
          -5      2.84304  -0.00026635 -4.47493e-06     -82.6411 
          -5      2.89494 -0.000267079   -4.203e-06     -82.6412 
          -5      2.94735 -0.000267682 -3.86166e-06     -82.6413 
          -5       3.0002 -0.000268144 -3.45499e-06     -82.6414 
          -5      3.05355  -0.00026845 -2.98853e-06     -82.6415 
          -5      3.10733 -0.000268588 -2.47157e-06     -82.6417 
          -5      3.16163 -0.000268545 -1.91375e-06     -82.6418 
          -5      3.21639 -0.000268316 -1.32706e-06     -82.6419 
          -5      3.27158 -0.000267901 -7.23766e-07      -82.642 
          -5      3.32729  -0.00026731 -1.13504e-07     -82.6422 
          -5      3.38342 -0.000266562  5.11103e-07     -82.6423 
          -5      3.44007 -0.000265625  1.14128e-06     -82.6424 
          -5      3.49714 -0.000264636  1.71243e-06     -82.6426 
          -5      3.55472 -0.000263742  2.20628e-06     -82.6427 
          -5      3.61273 -0.000263032  2.62327e-06     -82.6428 
          -5      3.67125 -0.000262531  2.98058e-06      -82.643 
          -5      3.73025 -0.000262191  3.30606e-06     -82.6431 
          -5      3.78967 -0.000261898  3.63727e-06     -82.6432 
          -5      3.84961 -0.000261474  4.02215e-06     -82.6434 
          -5      3.90996 -0.000260704  4.51948e-06     -82.6435 
          -5      3.97084 -0.000260434  4.68126e-06     -82.6436 
          -5      4.03214 -0.000259986  4.93835e-06     -82.6438 
          -5      4.09395 -0.000259452   5.2248e-06     -82.6439 
          -5      4.15624 -0.000258898  5.49401e-06      -82.644 
          -5      4.21895 -0.000258365  5.72231e-06     -82.6441 
          -5      4.28217 -0.000257866  5.90395e-06     -82.6443 
          -5      4.34582 -0.000257402  6.04451e-06     -82.6444 
          -5      4.40998 -0.000256962  6.15717e-06     -82.6445 
          -5      4.47457 -0.000256531  6.25737e-06     -82.6447 
          -5      4.53968 -0.000256095   6.3598e-06     -82.6448 
          -5      4.60525 -0.000255642  6.47492e-06     -82.6449 
          -5      4.67125  -0.00025517  6.60721e-06     -82.6451 
          -5      4.73777 -0.000254679  6.75476e-06     -82.6452 
          -5       4.8047  -0.00025418  6.90912e-06     -82.6453 
          -5      4.87216 -0.000253683  7.05843e-06     -82.6454 
          -5      4.94003 -0.000253197  7.19042e-06     -82.6455 
          -5      5.00843 -0.000252718  7.29943e-06     -82.6457 
          -5      5.07724 -0.000252221  7.39385e-06     -82.6458 
          -5      5.14658 -0.000251645  7.50787e-06     -82.6459 
          -5      5.21639 -0.000251174  7.77725e-06      -82.646 
          -5      5.28661 -0.000250799  8.21866e-06     -82.6461 
          -5      5.35736 -0.000250346  8.45549e-06     -82.6462 
          -5      5.42852 -0.000249993  8.52335e-06     -82.6463 
          -5      5.50021 -0.000249721  8.55179e-06     -82.6464 
          -5      5.57231 -0.000249401  8.62841e-06     -82.6465 
          -5      5.64493 -0.000249049  8.71802e-06     -82.6466 
          -5      5.71803 -0.000248679  8.79528e-06     -82.6467 
          -5      5.79154 -0.000248298  8.84369e-06     -82.6468 
          -5      5.86558 -0.000247915  8.85433e-06     -82.6469 
          -5      5.94003 -0.000247532  8.82439e-06      -82.647 
          -5      6.01501 -0.000247153  8.75588e-06     -82.6471 
          -5       6.0904 -0.000246779  8.65455e-06     -82.6471 
          -5      6.16632 -0.000246412  8.52827e-06     -82.6472 
          -5      6.24271 -0.000246053   8.3863e-06     -82.6473 
          -5       6.3195 -0.000245704  8.23802e-06     -82.6473 
          -5      6.39683 -0.000245366  8.09151e-06     -82.6474 
          -5      6.47457 -0.000245042  7.95345e-06     -82.6475 
          -5      6.55284 -0.000244735  7.82749e-06     -82.6475 
          -5      6.63152 -0.000244446  7.71452e-06     -82.6476 
          -5      6.71073 -0.000244176  7.61143e-06     -82.6476 
          -5      6.79034 -0.000243923  7.51169e-06     -82.6476 
          -5      6.87049 -0.000243684  7.40475e-06     -82.6477 
          -5      6.95111 -0.000243449  7.27689e-06     -82.6477 
          -5      7.03214 -0.000243204  7.11282e-06     -82.6477 
          -5       7.1137 -0.000243034  6.93919e-06     -82.6477 
          -5      7.19566 -0.000242873  6.74566e-06     -82.6477 
          -5      7.27816 -0.000242705  6.54338e-06     -82.6477 
          -5      7.36106  -0.00024252  6.34548e-06     -82.6477 
          -5      7.44451 -0.000242314  6.16402e-06     -82.6477 
          -5      7.52842 -0.000242088  6.00944e-06     -82.6477 
          -5      7.61273 -0.000241847  5.88868e-06     -82.6477 
          -5      7.69758 -0.000241597  5.80397e-06     -82.6476 
          -5      7.78283 -0.000241344  5.75283e-06     -82.6476 
          -5      7.86862 -0.000241092  5.72735e-06     -82.6476 
          -5      7.95481 -0.000240846  5.71483e-06     -82.6475 
          -5      8.04155 -0.000240606  5.69844e-06     -82.6474 
          -5      8.12868 -0.000240368  5.65883e-06     -82.6474 
          -5      8.21635 -0.000240125  5.57607e-06     -82.6473 
          -5      8.30449 -0.000239866  5.43268e-06     -82.6472 
          -5      8.39303 -0.000239576  5.21743e-06     -82.6471 
          -5      8.48211 -0.000239235  4.92915e-06      -82.647 
          -5      8.57159 -0.000238998  4.68628e-06     -82.6469 
          -5      8.66161 -0.000238853  4.54775e-06     -82.6468 
          -5      8.75203  -0.00023867  4.44163e-06     -82.6467 
          -5      8.84299 -0.000238483  4.32212e-06     -82.6466 
          -5      8.93443 -0.000238326  4.06917e-06     -82.6464 
          -5      9.02626 -0.000238231  3.46999e-06     -82.6463 
          -5      9.11863 -0.000238121  3.28927e-06     -82.6461 
          -5      9.21139 -0.000237975  3.22439e-06      -82.646 
          -5      9.30471 -0.000237807  2.93198e-06     -82.6458 
          -5      9.39841 -0.000237599  2.55543e-06     -82.6456 
          -5      9.49267 -0.000237342  2.19417e-06     -82.6454 
          -5      9.58739 -0.000237037  1.91165e-06     -82.6452 
          -5      9.68251 -0.000236739  1.74196e-06      -82.645 
          -5      9.77817 -0.000236655  1.62911e-06     -82.6448 
          -5      9.87422 -0.000236487  1.49756e-06     -82.6446 
          -5      9.97083 -0.000236261  1.33521e-06     -82.6444 
          -5      10.0678    -0.000236  1.13782e-06     -82.6441 
          -5      10.1654 -0.000235726  9.07554e-07     -82.6439 
          -5      10.2633 -0.000235459  6.53474e-07     -82.6436 
          -5      10.3618 -0.000235213  3.88874e-07     -82.6433 
          -5      10.4607 -0.000234998  1.30923e-07      -82.643 
          -5      10.5601 -0.000234822 -1.02221e-07     -82.6427 
          -5        10.66 -0.000234683 -2.94789e-07     -82.6424 
          -5      10.7603 -0.000234576 -4.35644e-07     -82.6421 
          -5      10.8611 -0.000234487 -5.23629e-07     -82.6418 
          -5      10.9623 -0.000234398  -5.7153e-07     -82.6414 
          -5      11.0641 -0.000234282 -6.12355e-07     -82.6411 
          -5      11.1663 -0.000234106 -7.05512e-07     -82.6407 
          -5       11.269 -0.000233864 -9.27093e-07     -82.6404 
          -5      11.3721 -0.000233677 -1.14384e-06       -82.64 
          -5      11.4757 -0.000233518 -1.32466e-06     -82.6396 
          -5      11.5798 -0.000233374 -1.49746e-06     -82.6392 
          -5      11.6844 -0.000233237 -1.68218e-06     -82.6388 
          -5      11.7894 -0.000233103 -1.89236e-06     -82.6383 
          -5       11.895 -0.000232971 -2.13468e-06     -82.6379 
          -5      12.0009 -0.000232841 -2.40961e-06     -82.6374 
          -5      12.1073 -0.000232715 -2.71267e-06      -82.637 
          -5      12.2142 -0.000232593 -3.03317e-06     -82.6365 
          -5      12.3216 -0.000232476 -3.35641e-06      -82.636 
          -5      12.4294 -0.000232361   -3.662e-06     -82.6355 
          -5      12.5378 -0.000232244 -3.92606e-06      -82.635 
          -5      12.6465  -0.00023212  -4.1195e-06     -82.6345 
          -5      12.7558 -0.000231978 -4.20967e-06      -82.634 
          -5      12.8656 -0.000231805  -4.4217e-06     -82.6334 
          -5      12.9757 -0.000231673 -4.66473e-06     -82.6328 
          -5      13.0864 -0.000231567 -4.91162e-06     -82.6323 
          -5      13.1975 -0.000231471 -5.15206e-06     -82.6317 
          -5      13.3092 -0.000231366 -5.37583e-06     -82.6311 
          -5      13.4212 -0.000231239 -5.57251e-06     -82.6305 
          -5      13.5338 -0.000231086 -5.73443e-06     -82.6298 
          -5      13.6468 -0.000230911 -5.85731e-06     -82.6292 
          -5      13.7603 -0.000230734 -5.94308e-06     -82.6285 
          -5      13.8743 -0.000230593 -6.00252e-06     -82.6279 
          -5      13.9886  -0.00023055 -6.05775e-06     -82.6272 
          -5      14.1036 -0.000230694 -6.14605e-06     -82.6265 
          -5      14.2189 -0.000230827  -6.2737e-06     -82.6258 
          -5      14.3348 -0.000230576  -6.4313e-06     -82.6251 
          -5       14.451 -0.000230316 -6.65738e-06     -82.6244 
          -5      14.5678 -0.000230071 -6.92714e-06     -82.6236 
          -5      14.6851 -0.000229858 -7.21996e-06     -82.6228 
          -5      14.8028 -0.000229681 -7.51953e-06     -82.6221 
          -5       14.921 -0.000229542 -7.81425e-06     -82.6213 
          -5      15.0396 -0.000229434 -8.09537e-06     -82.6205 
          -5      15.1588 -0.000229349  -8.3585e-06     -82.6197 
          -5      15.2783 -0.000229277 -8.60168e-06     -82.6188 
          -5      15.3984 -0.000229206  -8.8269e-06      -82.618 
          -5       15.519 -0.000229126 -9.03857e-06     -82.6171 
          -5        15.64  -0.00022903 -9.24416e-06     -82.6162 
          -5      15.7615 -0.000228912 -9.45466e-06     -82.6154 
          -5      15.8834 -0.000228773 -9.68349e-06     -82.6144 
          -5      16.0058 -0.000228614 -9.94812e-06     -82.6135 
          -5      16.1286 -0.000228497 -1.01935e-05     -82.6126 
          -5       16.252  -0.00022843 -1.03517e-05     -82.6116 
          -5      16.3759 -0.000228373 -1.04633e-05     -82.6107 
          -5      16.5002 -0.000228316 -1.05495e-05     -82.6097 
          -5       16.625 -0.000228248 -1.06298e-05     -82.6087 
          -5      16.7501 -0.000228163 -1.07203e-05     -82.6077 
          -5      16.8759  -0.00022806 -1.08334e-05     -82.6067 
          -5       17.002 -0.000227939 -1.09759e-05     -82.6056 
          -5      17.1287 -0.000227806 -1.11479e-05     -82.6046 
          -5      17.2557 -0.000227672 -1.13403e-05     -82.6035 
          -5      17.3834 -0.000227552 -1.15333e-05     -82.6024 
          -5      17.5115 -0.000227469  -1.1693e-05     -82.6013 
          -5      17.6399 -0.000227449 -1.17688e-05     -82.6002 
          -5       17.769 -0.000227526 -1.16903e-05     -82.5991 
          -5      17.8984 -0.000227332 -1.20496e-05     -82.5979 
          -5      18.0284 -0.000227075 -1.23702e-05     -82.5968 
          -5      18.1587 -0.000226834 -1.26271e-05     -82.5956 
          -5      18.2896 -0.000226633 -1.28554e-05     -82.5944 
          -5       18.421 -0.000226486 -1.30816e-05     -82.5932 
          -5      18.5528 -0.000226395 -1.33248e-05     -82.5919 
          -5      18.6851 -0.000226354  -1.3599e-05     -82.5907 
          -5      18.8178 -0.000226354 -1.39117e-05     -82.5894 
          -5      18.9511 -0.000226381 -1.42676e-05     -82.5881 
          -5      19.0847 -0.000226423 -1.46663e-05     -82.5868 
          -5      19.2189 -0.000226226 -1.49759e-05     -82.5855 
          -5      19.3535 -0.000225728 -1.50922e-05     -82.5842 
          -5      19.4886 -0.000225392 -1.52493e-05     -82.5829 
          -5      19.6242  -0.00022518  -1.5452e-05     -82.5815 
          -5      19.7602 -0.000225056 -1.57028e-05     -82.5801 
          -5      19.8968 -0.000224985 -1.60011e-05     -82.5787 
          -5      20.0337 -0.000224937 -1.63408e-05     -82.5773 
          -5      20.1712 -0.000224885 -1.67116e-05     -82.5759 
          -5      20.3091  -0.00022481 -1.70977e-05     -82.5744 
          -5      20.4475   -0.0002247 -1.74807e-05      -82.573 
          -5      20.5864 -0.000224551 -1.78396e-05     -82.5715 
          -5      20.7257 -0.000224368 -1.81538e-05       -82.57 
          -5      20.8655 -0.000224168 -1.84076e-05     -82.5685 
          -5      21.0058 -0.000223977 -1.85924e-05      -82.567 
          -5      21.1465 -0.000223833 -1.87137e-05     -82.5654 
          -5      21.2877 -0.000223787 -1.87962e-05     -82.5638 
          -5      21.4294   -0.0002239 -1.88912e-05     -82.5623 
          -5      21.5716 -0.000224247 -1.90854e-05     -82.5607 
          -5      21.7142 -0.000223791 -1.92976e-05      -82.559 
          -5      21.8573   -0.0002234 -1.95067e-05     -82.5574 
          -5      22.0008 -0.000223256 -1.97072e-05     -82.5557 
          -5      22.1449 -0.000223269 -1.98851e-05     -82.5541 
          -5      22.2893 -0.000223361 -2.00404e-05     -82.5524 
          -5      22.4344 -0.000223464 -2.01835e-05     -82.5507 
          -5      22.5797  -0.00022353 -2.03295e-05     -82.5489 
          -5      22.7257 -0.000223522 -2.04949e-05     -82.5472 
          -5      22.8721 -0.000223422 -2.06923e-05     -82.5454 
          -5      23.0189 -0.000223227 -2.09273e-05     -82.5437 
          -5      23.1663 -0.000222952 -2.11955e-05     -82.5419 
          -5       23.314 -0.000222625 -2.14781e-05       -82.54 
          -5      23.4623 -0.000222312 -2.17695e-05     -82.5382 
          -5       23.611 -0.000222106 -2.21163e-05     -82.5364 
          -5      23.7602 -0.000221903 -2.23937e-05     -82.5345 
          -5        23.91 -0.000221705 -2.26217e-05     -82.5326 
          -5        24.06 -0.000221514  -2.2821e-05     -82.5307 
          -5      24.2107 -0.000221331 -2.30115e-05     -82.5288 
          -5      24.3617  -0.00022116 -2.32103e-05     -82.5268 
          -5      24.5133 -0.000221001 -2.34315e-05     -82.5248 
          -5      24.6653 -0.000220858 -2.36836e-05     -82.5229 
          -5      24.8178 -0.000220734 -2.39696e-05     -82.5209 
          -5      24.9708 -0.000220631 -2.42848e-05     -82.5188 
          -5      25.1242  -0.00022055 -2.46154e-05     -82.5168 
          -5      25.2781 -0.000220492 -2.49388e-05     -82.5147 
          -5      25.4324 -0.000220458   -2.522e-05     -82.5127 
          -5      25.5873 -0.000220443 -2.54127e-05     -82.5106 
          -5      25.7426 -0.000220441 -2.54565e-05     -82.5085 
          -5      25.8984 -0.000220442 -2.52766e-05     -82.5063 
          -5      26.0546 -0.000220431  -2.4783e-05     -82.5042 
          -5      26.2114 -0.000220423 -2.49937e-05      -82.502 
          -5      26.3686 -0.000220366 -2.56526e-05     -82.4998 
          -5      26.5262  -0.00022024 -2.61074e-05     -82.4976 
          -5      26.6844  -0.00022006 -2.64052e-05     -82.4954 
          -5      26.8429 -0.000219841 -2.65901e-05     -82.4931 
          -5       27.002 -0.000219597 -2.67035e-05     -82.4909 
          -5      27.1615 -0.000219341 -2.67818e-05     -82.4886 
          -5      27.3216 -0.000219085 -2.68562e-05     -82.4863 
          -5      27.4821 -0.000218837 -2.69517e-05     -82.4839 
          -5       27.643 -0.000218606 -2.70861e-05     -82.4816 
          -5      27.8044 -0.000218396 -2.72711e-05     -82.4792 
          -5      27.9663 -0.000218211 -2.75104e-05     -82.4768 
          -5      28.1287 -0.000218049  -2.7802e-05     -82.4744 
          -5      28.2914 -0.000217909 -2.81368e-05      -82.472 
          -5      28.4548 -0.000217786 -2.85018e-05     -82.4696 
          -5      28.6185 -0.000217673 -2.88787e-05     -82.4671 
          -5      28.7828 -0.000217562 -2.92481e-05     -82.4646 
          -5      28.9475 -0.000217443 -2.95894e-05     -82.4621 
          -5      29.1126 -0.000217309 -2.98843e-05     -82.4596 
          -5      29.2784 -0.000217149 -3.01196e-05     -82.4571 
          -5      29.4444 -0.000216955 -3.02896e-05     -82.4545 
          -5       29.611 -0.000216724 -3.04009e-05     -82.4519 
          -5       29.778 -0.000216453 -3.04754e-05     -82.4493 
          -5      29.9456 -0.000216147 -3.05559e-05     -82.4467 
          -5      30.1137 -0.000215817 -3.07108e-05     -82.4441 
          -5      30.2821 -0.000215482 -3.10395e-05     -82.4414 
          -5      30.4511 -0.000215181 -3.16407e-05     -82.4387 
          -5      30.6204 -0.000215077 -3.16099e-05      -82.436 
          -5      30.7903 -0.000214968 -3.15989e-05     -82.4333 
          -5      30.9606 -0.000214856 -3.16288e-05     -82.4306 
          -5      31.1315 -0.000214737 -3.17119e-05     -82.4278 
          -5      31.3028 -0.000214612  -3.1852e-05      -82.425 
          -5      31.4745 -0.000214482 -3.20444e-05     -82.4222 
          -5      31.6468 -0.000214349 -3.22771e-05     -82.4194 
          -5      31.8194 -0.000214214   -3.253e-05     -82.4166 
          -5      31.9926 -0.000214083 -3.27768e-05     -82.4137 
          -5      32.1662 -0.000213957 -3.29843e-05     -82.4108 
          -5      32.3404 -0.000213844 -3.31143e-05     -82.4079 
          -5      32.5149 -0.000213748 -3.31232e-05      -82.405 
          -5        32.69 -0.000213677 -3.29635e-05      -82.402 
          -5      32.8655 -0.000213621 -3.32753e-05     -82.3991 
          -5      33.0414 -0.000213585 -3.39284e-05     -82.3961 
          -5       33.218 -0.000213562 -3.43983e-05     -82.3931 
          -5      33.3948 -0.000213533 -3.47143e-05     -82.3901 
          -5      33.5723 -0.000213484 -3.49051e-05      -82.387 
          -5        33.75 -0.000213405 -3.49968e-05      -82.384 
          -5      33.9284 -0.000213288 -3.50137e-05     -82.3809 
          -5      34.1073  -0.00021313 -3.49777e-05     -82.3778 
          -5      34.2865 -0.000212929 -3.49091e-05     -82.3747 
          -5      34.4663 -0.000212687 -3.48254e-05     -82.3715 
          -5      34.6465 -0.000212408 -3.47423e-05     -82.3684 
          -5      34.8272 -0.000212095 -3.46731e-05     -82.3652 
          -5      35.0083 -0.000211756 -3.46291e-05      -82.362 
          -5        35.19   -0.0002114 -3.46191e-05     -82.3587 
          -5      35.3721 -0.000211033 -3.46501e-05     -82.3555 
          -5      35.5546 -0.000210666 -3.47266e-05     -82.3522 
          -5      35.7377 -0.000210308 -3.48517e-05      -82.349 
          -5      35.9211 -0.000209969 -3.50258e-05     -82.3456 
          -5      36.1052 -0.000209657 -3.52481e-05     -82.3423 
          -5      36.2895 -0.000209381 -3.55157e-05      -82.339 
          -5      36.4745 -0.000209148 -3.58246e-05     -82.3356 
          -5      36.6598 -0.000208965 -3.61687e-05     -82.3322 
          -5      36.8457 -0.000208838 -3.65416e-05     -82.3288 
          -5      37.0321 -0.000208771 -3.69352e-05     -82.3254 
          -5      37.2188 -0.000208766 -3.73407e-05     -82.3219 
          -5      37.4062 -0.000208824 -3.77495e-05     -82.3185 
          -5      37.5938 -0.000208944 -3.81517e-05      -82.315 
          -5      37.7821 -0.000209122 -3.85389e-05     -82.3115 
          -5      37.9707 -0.000209353 -3.89017e-05      -82.308 
          -5      38.1599   -0.0002089 -3.86608e-05     -82.3044 
          -5      38.3496 -0.000208432 -3.84872e-05     -82.3008 
          -5      38.5396  -0.00020797  -3.8376e-05     -82.2973 
          -5      38.7302 -0.000207533  -3.8324e-05     -82.2936 
          -5      38.9211 -0.000207139 -3.83305e-05       -82.29 
          -5      39.1127 -0.000206801 -3.83971e-05     -82.2864 
          -5      39.3046 -0.000206531 -3.85264e-05     -82.2827 
          -5      39.4971 -0.000206334 -3.87225e-05      -82.279 
          -5      39.6899 -0.000206212 -3.89885e-05     -82.2753 
          -5      39.8833  -0.00020616  -3.9328e-05     -82.2716 
          -5      40.0772 -0.000206165 -3.97418e-05     -82.2678 
          -5      40.2714 -0.000206208 -4.02282e-05     -82.2641 
          -5      40.4663  -0.00020626 -4.07825e-05     -82.2603 
          -5      40.6615  -0.00020628 -4.13937e-05     -82.2565 
          -5      40.8573 -0.000206216 -4.20462e-05     -82.2526 
          -5      41.0534 -0.000205945 -4.22064e-05     -82.2488 
          -5      41.2501 -0.000205573 -4.22095e-05     -82.2449 
          -5      41.4473 -0.000205183 -4.21673e-05     -82.2411 
          -5      41.6448 -0.000204819  -4.2033e-05     -82.2371 
          -5      41.8429 -0.000204512 -4.17676e-05     -82.2332 
          -5      42.0414 -0.000204276 -4.13419e-05     -82.2293 
          -5      42.2405 -0.000204113 -4.07362e-05     -82.2253 
          -5      42.4399 -0.000203935 -4.03532e-05     -82.2213 
          -5      42.6399 -0.000203522 -4.13192e-05     -82.2173 
          -5      42.8404 -0.000203132 -4.21192e-05     -82.2133 
          -5      43.0412 -0.000202768 -4.27697e-05     -82.2093 
          -5      43.2426 -0.000202429  -4.3289e-05     -82.2052 
          -5      43.4444 -0.000202117 -4.36935e-05     -82.2011 
          -5      43.6467 -0.000201829 -4.40007e-05      -82.197 
          -5      43.8494 -0.000201566 -4.42263e-05     -82.1929 
          -5      44.0527 -0.000201324 -4.43863e-05     -82.1888 
          -5      44.2563 -0.000201102  -4.4495e-05     -82.1846 
          -5      44.4606 -0.000200897 -4.45662e-05     -82.1805 
          -5      44.6653 -0.000200706  -4.4612e-05     -82.1763 
          -5      44.8704 -0.000200526 -4.46434e-05      -82.172 
          -5       45.076 -0.000200355   -4.467e-05     -82.1678 
          -5       45.282 -0.000200189 -4.46996e-05     -82.1636 
          -5      45.4886 -0.000200025 -4.47387e-05     -82.1593 
          -5      45.6955  -0.00019986 -4.47921e-05      -82.155 
          -5       45.903 -0.000199693  -4.4863e-05     -82.1507 
          -5      46.1111 -0.000199521 -4.49529e-05     -82.1464 
          -5      46.3194 -0.000199341  -4.5062e-05      -82.142 
          -5      46.5283 -0.000199153 -4.51891e-05     -82.1377 
          -5      46.7376 -0.000198955 -4.53314e-05     -82.1333 
          -5      46.9475 -0.000198746 -4.54855e-05     -82.1289 
          -5      47.1577 -0.000198526 -4.56464e-05     -82.1245 
          -5      47.3685 -0.000198296 -4.58093e-05     -82.1201 
          -5      47.5798 -0.000198055 -4.59682e-05     -82.1156 
          -5      47.7914 -0.000197806 -4.61173e-05     -82.1111 
          -5      48.0037 -0.000197549 -4.62511e-05     -82.1067 