Variables = x, y, u, v, p

Zone, I=800, F=POINT
         550            0            0            0     0.549731 
         550     0.000234 -7.47611e-06 -5.04304e-11     0.549731 
         550     0.000939 -2.79224e-05 -8.05137e-10     0.549731 
         550     0.002113 -5.56055e-05  -4.0574e-09     0.549731 
         550     0.003759 -8.28457e-05 -1.27704e-08     0.549731 
         550     0.005872 -0.000101888 -3.09534e-08     0.549731 
         550     0.008457 -0.000107292 -6.36862e-08     0.549731 
         550      0.01151 -9.72544e-05 -1.16848e-07     0.549731 
         550     0.015036 -7.40779e-05 -1.97224e-07     0.549731 
         550     0.019031 -4.32729e-05 -3.12038e-07     0.549731 
         550     0.023493 -1.13591e-05 -4.68931e-07     0.549731 
         550     0.028429  1.69418e-05 -6.76163e-07     0.549731 
         550     0.033831  4.08575e-05 -9.41474e-07     0.549731 
         550     0.039706  6.43891e-05 -1.27316e-06     0.549731 
         550     0.046047  9.41394e-05 -1.67847e-06     0.549731 
         550     0.052863  0.000134676 -2.16515e-06     0.549731 
         550      0.06015  0.000182771 -2.73946e-06     0.549731 
         550       0.0679  0.000226369 -3.40636e-06     0.549731 
         550     0.076126  0.000259198 -4.17162e-06     0.549731 
         550     0.084816    0.0003162 -5.03767e-06     0.549731 
         550     0.093982  0.000361088 -6.00801e-06     0.549731 
         550     0.103611  0.000410132 -7.08229e-06     0.549731 
         550     0.113718  0.000461737 -8.26188e-06     0.549731 
         550     0.124286  0.000514509 -9.54315e-06     0.549731 
         550     0.135333  0.000567644 -1.09253e-05     0.549731 
         550      0.14685  0.000620589 -1.24028e-05     0.549731 
         550     0.158827  0.000673086  -1.3969e-05     0.549731 
         550     0.171284  0.000725135 -1.56199e-05     0.549731 
         550     0.184201  0.000776505 -1.73451e-05     0.549731 
         550     0.197599  0.000826907 -1.91391e-05     0.549731 
         550     0.211455  0.000875629 -2.09899e-05     0.549731 
         550     0.225792   0.00092209  -2.2891e-05     0.549731 
         550       0.2406  0.000966246 -2.48311e-05     0.549731 
         550     0.255865   0.00100884 -2.67985e-05     0.549731 
         550     0.271613   0.00104834 -2.87871e-05     0.549731 
         550     0.287818   0.00108518  -3.0784e-05     0.549731 
         550     0.304506    0.0011193 -3.27833e-05     0.549731 
         550      0.32165   0.00115055 -3.47733e-05     0.549731 
         550     0.339278   0.00117894 -3.67494e-05     0.549731 
         550     0.357377   0.00120446 -3.87033e-05     0.549731 
         550      0.37593   0.00122713 -4.06274e-05     0.549731 
         550     0.394968   0.00124706 -4.25201e-05     0.549731 
         550     0.414461   0.00126434 -4.43748e-05     0.549732 
         550      0.43444   0.00127913 -4.61918e-05     0.549732 
         550     0.454872   0.00129156 -4.79664e-05     0.549732 
         550     0.475791    0.0013018 -4.97013e-05     0.549732 
         550     0.497163      0.00131  -5.1394e-05     0.549732 
         550     0.519021   0.00131632 -5.30488e-05     0.549732 
         550      0.54135   0.00132091 -5.46672e-05     0.549732 
         550     0.564131   0.00132389 -5.62518e-05     0.549732 
         550       0.5874   0.00132543 -5.78105e-05     0.549732 
         550     0.611121   0.00132566 -5.93489e-05     0.549732 
         550      0.63533   0.00132458  -6.0873e-05     0.549732 
         550      0.65999   0.00132239 -6.23819e-05     0.549733 
         550     0.685139   0.00131912 -6.38879e-05     0.549733 
         550     0.710759   0.00131477 -6.53995e-05     0.549733 
         550     0.736828   0.00130932 -6.69253e-05     0.549733 
         550     0.763387   0.00130274 -6.84769e-05     0.549733 
         550     0.790396   0.00129499 -7.00612e-05     0.549733 
         550     0.817896   0.00128603 -7.16892e-05     0.549733 
         550     0.845843    0.0012758 -7.33664e-05     0.549733 
         550     0.874283   0.00126421 -7.51029e-05     0.549733 
         550      0.90317   0.00125124 -7.69027e-05     0.549733 
         550     0.932551   0.00123678 -7.87744e-05     0.549733 
         550     0.962401   0.00122081 -8.07214e-05     0.549734 
         550     0.992697   0.00120329 -8.27462e-05     0.549734 
         550      1.02349   0.00118418 -8.48547e-05     0.549734 
         550      1.05472   0.00116349 -8.70452e-05     0.549734 
         550      1.08645   0.00114122 -8.93216e-05     0.549734 
         550      1.11863   0.00111747 -9.16794e-05     0.549734 
         550       1.1513   0.00109227   -9.412e-05     0.549734 
         550      1.18444   0.00106576 -9.66378e-05     0.549733 
         550      1.21802   0.00103812 -9.92255e-05     0.549733 
         550      1.25211   0.00100948  -0.00010188     0.549733 
         550      1.28663  0.000980092 -0.000104589     0.549733 
         550      1.32165   0.00095013 -0.000107347     0.549733 
         550      1.35712  0.000919864 -0.000110136     0.549733 
         550      1.39308  0.000889452 -0.000112946     0.549732 
         550      1.42951  0.000859085  -0.00011576     0.549732 
         550      1.46638  0.000828886 -0.000118554     0.549732 
         550      1.50375  0.000798795 -0.000121313     0.549731 
         550      1.54156  0.000768718 -0.000124144     0.549731 
         550      1.57987   0.00073931 -0.000126925      0.54973 
         550      1.61863  0.000710526 -0.000129643      0.54973 
         550      1.65788  0.000682203 -0.000132305     0.549729 
         550      1.69757  0.000654279 -0.000134911     0.549729 
         550      1.73776  0.000626609 -0.000137465     0.549728 
         550      1.77842  0.000599121 -0.000139966     0.549727 
         550      1.81952  0.000571756 -0.000142413     0.549727 
         550      1.86113  0.000544395 -0.000144809     0.549726 
         550      1.90316  0.000517021 -0.000147149     0.549725 
         550      1.94571  0.000489533 -0.000149437     0.549724 
         550      1.98869  0.000461934 -0.000151666     0.549723 
         550      2.03217  0.000434146 -0.000153838     0.549722 
         550      2.07612  0.000406167 -0.000155949      0.54972 
         550      2.12051  0.000378006 -0.000157993     0.549719 
         550       2.1654  0.000349617 -0.000159971     0.549718 
         550      2.21073  0.000321048 -0.000161876     0.549716 
         550      2.25656   0.00029227 -0.000163708     0.549715 
         550      2.30283  0.000263352  -0.00016546     0.549713 
         550       2.3496  0.000234279 -0.000167132     0.549712 
         550      2.39685  0.000205111 -0.000168719      0.54971 
         550      2.44452  0.000175918 -0.000170216     0.549708 
         550      2.49271  0.000146702 -0.000171623     0.549706 
         550      2.54132  0.000117564 -0.000172936     0.549704 
         550      2.59044  8.85158e-05 -0.000174155     0.549702 
         550         2.64  5.96647e-05 -0.000175275       0.5497 
         550      2.69006  3.10277e-05 -0.000176299     0.549698 
         550      2.74056  2.71297e-06 -0.000177223     0.549696 
         550      2.79156 -2.52615e-05 -0.000178051     0.549693 
         550      2.84304 -5.28115e-05  -0.00017878     0.549691 
         550      2.89494 -7.98566e-05 -0.000179414     0.549689 
         550      2.94735 -0.000106383 -0.000179953     0.549686 
         550       3.0002 -0.000132297   -0.0001804     0.549683 
         550      3.05355 -0.000157589 -0.000180757     0.549681 
         550      3.10733 -0.000182176 -0.000181026     0.549678 
         550      3.16163 -0.000206057 -0.000181209     0.549675 
         550      3.21639 -0.000229176 -0.000181306     0.549673 
         550      3.27158 -0.000251485 -0.000181319      0.54967 
         550      3.32729 -0.000272989 -0.000181246     0.549667 
         550      3.38342 -0.000293627 -0.000181083     0.549664 
         550      3.44007 -0.000313403 -0.000180825     0.549661 
         550      3.49714 -0.000332255 -0.000180461     0.549658 
         550      3.55472 -0.000350176 -0.000179978     0.549655 
         550      3.61273 -0.000367092 -0.000179357     0.549651 
         550      3.67125 -0.000382968  -0.00017857     0.549648 
         550      3.73025  -0.00039771 -0.000177586     0.549645 
         550      3.78967 -0.000411491 -0.000176813     0.549642 
         550      3.84961 -0.000424274 -0.000176104     0.549639 
         550      3.90996  -0.00043595 -0.000175267     0.549635 
         550      3.97084 -0.000446595 -0.000174286     0.549632 
         550      4.03214 -0.000456205 -0.000173207     0.549629 
         550      4.09395 -0.000464818 -0.000172048     0.549626 
         550      4.15624 -0.000472457 -0.000170819     0.549622 
         550      4.21895 -0.000479152 -0.000169529     0.549619 
         550      4.28217 -0.000484947 -0.000168183     0.549616 
         550      4.34582 -0.000489871 -0.000166789     0.549612 
         550      4.40998 -0.000493967 -0.000165352     0.549609 
         550      4.47457  -0.00049727 -0.000163877     0.549606 
         550      4.53968 -0.000499822 -0.000162366     0.549602 
         550      4.60525 -0.000501662 -0.000160824     0.549599 
         550      4.67125  -0.00050283 -0.000159255     0.549596 
         550      4.73777 -0.000503368 -0.000157659     0.549593 
         550       4.8047 -0.000503318  -0.00015604      0.54959 
         550      4.87216 -0.000502721 -0.000154396     0.549586 
         550      4.94003 -0.000501619 -0.000152733     0.549583 
         550      5.00843 -0.000500051 -0.000151049      0.54958 
         550      5.07724 -0.000498059 -0.000149347     0.549577 
         550      5.14658  -0.00049568 -0.000147627     0.549574 
         550      5.21639 -0.000492954  -0.00014589     0.549571 
         550      5.28661 -0.000489921 -0.000144139     0.549568 
         550      5.35736 -0.000486611 -0.000142374     0.549565 
         550      5.42852 -0.000483065 -0.000140599     0.549562 
         550      5.50021 -0.000479309 -0.000138814     0.549559 
         550      5.57231 -0.000475381 -0.000137022     0.549556 
         550      5.64493 -0.000471302 -0.000135225     0.549553 
         550      5.71803 -0.000467103 -0.000133426      0.54955 
         550      5.79154 -0.000462812 -0.000131629     0.549547 
         550      5.86558 -0.000458444 -0.000129835     0.549544 
         550      5.94003 -0.000454025 -0.000128048     0.549541 
         550      6.01501 -0.000449566 -0.000126269     0.549539 
         550       6.0904 -0.000445089 -0.000124502     0.549536 
         550      6.16632 -0.000440598 -0.000122747     0.549533 
         550      6.24271 -0.000436109 -0.000121004     0.549531 
         550       6.3195 -0.000431631 -0.000119275     0.549528 
         550      6.39683 -0.000427163 -0.000117553     0.549525 
         550      6.47457 -0.000422716 -0.000115838     0.549523 
         550      6.55284 -0.000418284 -0.000114119      0.54952 
         550      6.63152 -0.000413876 -0.000112389     0.549518 
         550      6.71073 -0.000409482  -0.00011063     0.549515 
         550      6.79034 -0.000405159 -0.000108904     0.549513 
         550      6.87049 -0.000400945 -0.000107311     0.549511 
         550      6.95111 -0.000396734 -0.000105702     0.549508 
         550      7.03214 -0.000392543 -0.000104087     0.549506 
         550       7.1137 -0.000388377 -0.000102469     0.549504 
         550      7.19566 -0.000384251 -0.000100857     0.549501 
         550      7.27816 -0.000380165 -9.92527e-05     0.549499 
         550      7.36106  -0.00037613 -9.76635e-05     0.549497 
         550      7.44451 -0.000372143 -9.60892e-05     0.549495 
         550      7.52842 -0.000368207 -9.45333e-05     0.549493 
         550      7.61273 -0.000364326 -9.29983e-05     0.549491 
         550      7.69758 -0.000360494 -9.14828e-05     0.549489 
         550      7.78283 -0.000356715 -8.99895e-05     0.549487 
         550      7.86862 -0.000352981 -8.85161e-05     0.549485 
         550      7.95481 -0.000349298 -8.70646e-05     0.549483 
         550      8.04155 -0.000345656 -8.56322e-05     0.549481 
         550      8.12868 -0.000342061 -8.42204e-05      0.54948 
         550      8.21635 -0.000338506 -8.28264e-05     0.549478 
         550      8.30449 -0.000334992 -8.14503e-05     0.549476 
         550      8.39303 -0.000331523 -8.00924e-05     0.549474 
         550      8.48211 -0.000328094 -7.87499e-05     0.549473 
         550      8.57159 -0.000324711 -7.74239e-05     0.549471 
         550      8.66161  -0.00032137 -7.61116e-05     0.549469 
         550      8.75203  -0.00031808 -7.48143e-05     0.549468 
         550      8.84299 -0.000314836 -7.35288e-05     0.549466 
         550      8.93443 -0.000311645 -7.22551e-05     0.549465 
         550      9.02626  -0.00030851 -7.09927e-05     0.549464 
         550      9.11863 -0.000305428 -6.97376e-05     0.549462 
         550      9.21139 -0.000302403 -6.84892e-05     0.549461 
         550      9.30471 -0.000299355 -6.73257e-05     0.549459 
         550      9.39841 -0.000296332 -6.61758e-05     0.549458 
         550      9.49267 -0.000293341 -6.50075e-05     0.549457 
         550      9.58739 -0.000290388 -6.37968e-05     0.549456 
         550      9.68251 -0.000287503 -6.26411e-05     0.549455 
         550      9.77817 -0.000284704 -6.15596e-05     0.549453 
         550      9.87422 -0.000281966 -6.04671e-05     0.549452 
         550      9.97083 -0.000279272 -5.93709e-05     0.549451 
         550      10.0678 -0.000276617 -5.82802e-05      0.54945 
         550      10.1654 -0.000273991 -5.71989e-05     0.549449 
         550      10.2633 -0.000271395 -5.61332e-05     0.549448 
         550      10.3618 -0.000268824 -5.50842e-05     0.549447 
         550      10.4607  -0.00026628 -5.40548e-05     0.549447 
         550      10.5601 -0.000263767 -5.30466e-05     0.549446 
         550        10.66 -0.000261285 -5.20583e-05     0.549445 
         550      10.7603  -0.00025884  -5.1091e-05     0.549444 
         550      10.8611 -0.000256432 -5.01424e-05     0.549443 
         550      10.9623 -0.000254067 -4.92127e-05     0.549443 
         550      11.0641 -0.000251743 -4.82992e-05     0.549442 
         550      11.1663 -0.000249465 -4.74013e-05     0.549441 
         550       11.269 -0.000247233 -4.65182e-05     0.549441 
         550      11.3721 -0.000245043 -4.56475e-05      0.54944 
         550      11.4757 -0.000242898 -4.47893e-05      0.54944 
         550      11.5798  -0.00024079 -4.39417e-05     0.549439 
         550      11.6844  -0.00023872 -4.31054e-05     0.549439 
         550      11.7894 -0.000236679 -4.22787e-05     0.549439 
         550       11.895 -0.000234666 -4.14622e-05     0.549438 
         550      12.0009 -0.000232677 -4.06566e-05     0.549438 
         550      12.1073 -0.000230706 -3.98605e-05     0.549438 
         550      12.2142 -0.000228755  -3.9075e-05     0.549437 
         550      12.3216 -0.000226822 -3.82983e-05     0.549437 
         550      12.4294 -0.000224916 -3.75306e-05     0.549437 
         550      12.5378 -0.000223044 -3.67687e-05     0.549437 
         550      12.6465 -0.000221226 -3.60105e-05     0.549437 
         550      12.7558 -0.000219484   -3.525e-05     0.549437 
         550      12.8656 -0.000217774 -3.45332e-05     0.549436 
         550      12.9757 -0.000216064 -3.38436e-05     0.549436 
         550      13.0864 -0.000214404 -3.31339e-05     0.549436 
         550      13.1975 -0.000212788  -3.2417e-05     0.549436 
         550      13.3092 -0.000211202 -3.17067e-05     0.549437 
         550      13.4212 -0.000209637 -3.10221e-05     0.549437 
         550      13.5338 -0.000208078 -3.03831e-05     0.549437 
         550      13.6468  -0.00020651 -2.98148e-05     0.549437 
         550      13.7603 -0.000204973 -2.92567e-05     0.549437 
         550      13.8743 -0.000203549 -2.85636e-05     0.549438 
         550      13.9886 -0.000202136 -2.78931e-05     0.549438 
         550      14.1036 -0.000200731 -2.72453e-05     0.549438 
         550      14.2189 -0.000199338 -2.66211e-05     0.549438 
         550      14.3348 -0.000197957 -2.60192e-05     0.549439 
         550       14.451 -0.000196591 -2.54391e-05     0.549439 
         550      14.5678 -0.000195243 -2.48784e-05      0.54944 
         550      14.6851 -0.000193915 -2.43355e-05      0.54944 
         550      14.8028 -0.000192613 -2.38086e-05     0.549441 
         550       14.921 -0.000191335 -2.32944e-05     0.549441 
         550      15.0396 -0.000190088 -2.27916e-05     0.549442 
         550      15.1588  -0.00018887 -2.22969e-05     0.549442 
         550      15.2783 -0.000187685 -2.18092e-05     0.549443 
         550      15.3984 -0.000186532 -2.13257e-05     0.549444 
         550       15.519 -0.000185411 -2.08453e-05     0.549445 
         550        15.64 -0.000184322 -2.03673e-05     0.549445 
         550      15.7615 -0.000183262 -1.98902e-05     0.549446 
         550      15.8834  -0.00018223 -1.94145e-05     0.549447 
         550      16.0058 -0.000181221 -1.89395e-05     0.549448 
         550      16.1286 -0.000180234 -1.84667e-05     0.549449 
         550       16.252 -0.000179264 -1.79965e-05     0.549449 
         550      16.3759 -0.000178307 -1.75307e-05      0.54945 
         550      16.5002 -0.000177361 -1.70715e-05     0.549451 
         550       16.625 -0.000176423 -1.66201e-05     0.549452 
         550      16.7501 -0.000175491 -1.61796e-05     0.549453 
         550      16.8759 -0.000174565 -1.57515e-05     0.549454 
         550       17.002 -0.000173648 -1.53384e-05     0.549456 
         550      17.1287 -0.000172744 -1.49414e-05     0.549457 
         550      17.2557 -0.000171862 -1.45624e-05     0.549458 
         550      17.3834 -0.000171015 -1.42009e-05     0.549459 
         550      17.5115  -0.00017022 -1.38565e-05      0.54946 
         550      17.6399 -0.000169504 -1.35271e-05     0.549461 
         550       17.769 -0.000168696 -1.31519e-05     0.549463 
         550      17.8984 -0.000167853 -1.27638e-05     0.549464 
         550      18.0284 -0.000167058 -1.23936e-05     0.549465 
         550      18.1587 -0.000166306 -1.20414e-05     0.549467 
         550      18.2896 -0.000165589  -1.1706e-05     0.549468 
         550       18.421 -0.000164901 -1.13867e-05      0.54947 
         550      18.5528  -0.00016424 -1.10824e-05     0.549471 
         550      18.6851 -0.000163598  -1.0791e-05     0.549473 
         550      18.8178 -0.000162974 -1.05113e-05     0.549474 
         550      18.9511 -0.000162364 -1.02409e-05     0.549476 
         550      19.0847 -0.000161766 -9.97824e-06     0.549477 
         550      19.2189 -0.000161177 -9.72098e-06     0.549479 
         550      19.3535 -0.000160598 -9.46759e-06      0.54948 
         550      19.4886 -0.000160026 -9.21589e-06     0.549482 
         550      19.6242 -0.000159462 -8.96451e-06     0.549484 
         550      19.7602 -0.000158906 -8.71245e-06     0.549485 
         550      19.8968  -0.00015836  -8.4585e-06     0.549487 
         550      20.0337 -0.000157826  -8.2028e-06     0.549489 
         550      20.1712 -0.000157304 -7.94535e-06     0.549491 
         550      20.3091   -0.0001568 -7.68772e-06     0.549493 
         550      20.4475 -0.000156315 -7.43162e-06     0.549494 
         550      20.5864 -0.000155854 -7.18043e-06     0.549496 
         550      20.7257 -0.000155424 -6.93872e-06     0.549498 
         550      20.8655 -0.000155028 -6.71191e-06       0.5495 
         550      21.0058 -0.000154675 -6.50771e-06     0.549502 
         550      21.1465 -0.000154371  -6.3349e-06     0.549504 
         550      21.2877 -0.000153953  -6.1191e-06     0.549507 
         550      21.4294 -0.000153431 -5.84807e-06     0.549509 
         550      21.5716 -0.000152938 -5.58644e-06     0.549511 
         550      21.7142 -0.000152474 -5.33869e-06     0.549513 
         550      21.8573 -0.000152039 -5.10784e-06     0.549515 
         550      22.0008 -0.000151633 -4.89677e-06     0.549517 
         550      22.1449 -0.000151255 -4.70662e-06     0.549519 
         550      22.2893 -0.000150906 -4.53805e-06     0.549522 
         550      22.4344 -0.000150581 -4.38987e-06     0.549524 
         550      22.5797 -0.000150281 -4.26002e-06     0.549526 
         550      22.7257     -0.00015 -4.14444e-06     0.549529 
         550      22.8721 -0.000149736 -4.03769e-06     0.549531 
         550      23.0189 -0.000149484 -3.93244e-06     0.549533 
         550      23.1663 -0.000149237 -3.81904e-06     0.549536 
         550       23.314 -0.000148989 -3.68594e-06     0.549538 
         550      23.4623 -0.000148731 -3.51871e-06     0.549541 
         550       23.611 -0.000148455  -3.3007e-06     0.549544 
         550      23.7602 -0.000148148 -3.01168e-06     0.549546 
         550        23.91 -0.000147769 -2.90387e-06     0.549549 
         550        24.06 -0.000147425 -2.82161e-06     0.549551 
         550      24.2107 -0.000147123   -2.722e-06     0.549554 
         550      24.3617 -0.000146855 -2.60998e-06     0.549557 
         550      24.5133 -0.000146613 -2.48946e-06     0.549559 
         550      24.6653 -0.000146394 -2.36407e-06     0.549562 
         550      24.8178 -0.000146191 -2.23644e-06     0.549565 
         550      24.9708 -0.000145999 -2.10894e-06     0.549568 
         550      25.1242 -0.000145817 -1.98346e-06     0.549571 
         550      25.2781  -0.00014564 -1.86111e-06     0.549573 
         550      25.4324 -0.000145466 -1.74301e-06     0.549576 
         550      25.5873 -0.000145293 -1.62953e-06     0.549579 
         550      25.7426  -0.00014512 -1.52112e-06     0.549582 
         550      25.8984 -0.000144946 -1.41762e-06     0.549585 
         550      26.0546 -0.000144771   -1.319e-06     0.549588 
         550      26.2114 -0.000144593 -1.22472e-06     0.549591 
         550      26.3686 -0.000144414 -1.13438e-06     0.549595 
         550      26.5262 -0.000144234  -1.0475e-06     0.549598 
         550      26.6844 -0.000144053 -9.63333e-07     0.549601 
         550      26.8429 -0.000143872 -8.81412e-07     0.549604 
         550       27.002 -0.000143692 -8.01046e-07     0.549607 
         550      27.1615 -0.000143514 -7.21874e-07     0.549611 
         550      27.3216  -0.00014334 -6.43378e-07     0.549614 
         550      27.4821 -0.000143169 -5.65361e-07     0.549617 
         550       27.643 -0.000143005  -4.8778e-07     0.549621 
         550      27.8044 -0.000142848 -4.10577e-07     0.549624 
         550      27.9663   -0.0001427 -3.34139e-07     0.549627 
         550      28.1287 -0.000142562 -2.58811e-07     0.549631 
         550      28.2914 -0.000142435 -1.85399e-07     0.549634 
         550      28.4548 -0.000142321 -1.14692e-07     0.549638 
         550      28.6185 -0.000142222 -4.79301e-08     0.549641 
         550      28.7828  -0.00014214  1.36476e-08     0.549645 
         550      28.9475 -0.000142075  6.84306e-08     0.549649 
         550      29.1126 -0.000142031   1.1464e-07     0.549652 
         550      29.2784 -0.000141969  1.52572e-07     0.549656 
         550      29.4444 -0.000141884  1.90772e-07      0.54966 
         550       29.611 -0.000141796  2.30161e-07     0.549664 
         550       29.778 -0.000141706  2.69892e-07     0.549667 
         550      29.9456 -0.000141615  3.08663e-07     0.549671 
         550      30.1137 -0.000141526  3.44454e-07     0.549675 
         550      30.2821 -0.000141441  3.74571e-07     0.549679 
         550      30.4511 -0.000141365  3.95655e-07     0.549683 
         550      30.6204 -0.000141301  4.03474e-07     0.549687 
         550      30.7903 -0.000141254  3.92978e-07     0.549691 
         550      30.9606 -0.000141231  3.58203e-07     0.549695 
         550      31.1315 -0.000141237  2.92114e-07     0.549699 
         550      31.3028 -0.000141252   2.1479e-07     0.549703 
         550      31.4745 -0.000141011   3.8616e-07     0.549707 
         550      31.6468 -0.000140822   4.9458e-07     0.549711 
         550      31.8194  -0.00014068   5.5489e-07     0.549716 
         550      31.9926 -0.000140576  5.80104e-07      0.54972 
         550      32.1662 -0.000140507  5.81067e-07     0.549724 
         550      32.3404 -0.000140466  5.66764e-07     0.549728 
         550      32.5149 -0.000140449  5.44368e-07     0.549733 
         550        32.69 -0.000140452  5.19289e-07     0.549737 
         550      32.8655 -0.000140424  5.52384e-07     0.549742 
         550      33.0414 -0.000140386  6.08192e-07     0.549746 
         550       33.218  -0.00014035  6.65683e-07     0.549751 
         550      33.3948 -0.000140314  7.20664e-07     0.549755 
         550      33.5723 -0.000140278  7.70301e-07      0.54976 
         550        33.75 -0.000140241  8.12629e-07     0.549764 
         550      33.9284 -0.000140203  8.46717e-07     0.549769 
         550      34.1073 -0.000140162  8.72267e-07     0.549774 
         550      34.2865 -0.000140119  8.89615e-07     0.549778 
         550      34.4663 -0.000140073   8.9961e-07     0.549783 
         550      34.6465 -0.000140024  9.03408e-07     0.549788 
         550      34.8272 -0.000139973  9.02424e-07     0.549793 
         550      35.0083  -0.00013992  8.98196e-07     0.549798 
         550        35.19 -0.000139866  8.92287e-07     0.549803 
         550      35.3721 -0.000139812  8.86213e-07     0.549808 
         550      35.5546 -0.000139758  8.81358e-07     0.549813 
         550      35.7377 -0.000139707  8.78892e-07     0.549818 
         550      35.9211 -0.000139659  8.79739e-07     0.549823 
         550      36.1052 -0.000139615  8.84524e-07     0.549828 
         550      36.2895 -0.000139577  8.93537e-07     0.549833 
         550      36.4745 -0.000139546  9.06745e-07     0.549838 
         550      36.6598 -0.000139524  9.23739e-07     0.549844 
         550      36.8457 -0.000139509  9.43832e-07     0.549849 
         550      37.0321 -0.000139503  9.66001e-07     0.549854 
         550      37.2188 -0.000139504  9.88969e-07      0.54986 
         550      37.4062 -0.000139512  1.01134e-06     0.549865 
         550      37.5938 -0.000139523  1.03155e-06      0.54987 
         550      37.7821 -0.000139535  1.04812e-06     0.549876 
         550      37.9707 -0.000139541  1.05966e-06     0.549881 
         550      38.1599 -0.000139535  1.06511e-06     0.549887 
         550      38.3496 -0.000139508  1.06383e-06     0.549893 
         550      38.5396  -0.00013945  1.05588e-06     0.549898 
         550      38.7302 -0.000139347  1.04217e-06     0.549904 
         550      38.9211 -0.000139182  1.02477e-06      0.54991 
         550      39.1127 -0.000138937  1.00711e-06     0.549916 
         550      39.3046 -0.000138875  1.03304e-06     0.549921 
         550      39.4971 -0.000138953  1.07581e-06     0.549927 
         550      39.6899 -0.000139016  1.10746e-06     0.549933 
         550      39.8833 -0.000139065  1.12765e-06     0.549939 
         550      40.0772 -0.000139104   1.1368e-06     0.549945 
         550      40.2714 -0.000139133  1.13602e-06     0.549951 
         550      40.4663 -0.000139155  1.12702e-06     0.549957 
         550      40.6615  -0.00013917  1.11199e-06     0.549963 
         550      40.8573 -0.000139181  1.09338e-06      0.54997 
         550      41.0534 -0.000139189  1.07384e-06     0.549976 
         550      41.2501 -0.000139194  1.05597e-06     0.549982 
         550      41.4473 -0.000139197  1.04219e-06     0.549988 
         550      41.6448 -0.000139199  1.03452e-06     0.549995 
         550      41.8429 -0.000139199  1.03432e-06     0.550001 
         550      42.0414 -0.000139198  1.04211e-06     0.550008 
         550      42.2405 -0.000139196  1.05727e-06     0.550014 
         550      42.4399 -0.000139191  1.07778e-06     0.550021 
         550      42.6399 -0.000139183  1.09997e-06     0.550027 
         550      42.8404 -0.000139172   1.1181e-06     0.550034 
         550      43.0412 -0.000139157  1.12414e-06     0.550041 
         550      43.2426 -0.000139137  1.10733e-06     0.550047 
         550      43.4444 -0.000139112  1.05392e-06     0.550054 
         550      43.6467 -0.000139081  9.46502e-07     0.550061 
         550      43.8494 -0.000139033  8.93923e-07     0.550068 
         550      44.0527 -0.000138981  9.60313e-07     0.550075 
         550      44.2563 -0.000138943  1.02195e-06     0.550082 
         550      44.4606  -0.00013892  1.07524e-06     0.550089 
         550      44.6653  -0.00013891  1.11741e-06     0.550096 
         550      44.8704 -0.000138912  1.14661e-06     0.550103 
         550       45.076 -0.000138925  1.16195e-06      0.55011 
         550       45.282 -0.000138947  1.16325e-06     0.550117 
         550      45.4886 -0.000138976  1.15106e-06     0.550124 
         550      45.6955 -0.000139008  1.12662e-06     0.550132 
         550       45.903 -0.000139044  1.09166e-06     0.550139 
         550      46.1111  -0.00013908  1.04844e-06     0.550146 
         550      46.3194 -0.000139114  9.99604e-07     0.550154 
         550      46.5283 -0.000139145  9.47947e-07     0.550161 
         550      46.7376  -0.00013917  8.96557e-07     0.550169 
         550      46.9475 -0.000139189  8.48381e-07     0.550177 
         550      47.1577   -0.0001392  8.06403e-07     0.550184 
         550      47.3685 -0.000139201  7.73207e-07     0.550192 
         550      47.5798 -0.000139191  7.51069e-07       0.5502 
         550      47.7914 -0.000139171  7.41655e-07     0.550207 
         550      48.0037 -0.000139138  7.45861e-07     0.550215 