Variables = x, y, u, v, p

Zone, I=800, F=POINT
          50            0  4.32226e-20  3.37527e-25     -3.01789 
          50     0.000234    2.137e-06  1.33539e-11     -3.01789 
          50     0.000939  8.00028e-06   8.6131e-12     -3.01789 
          50     0.002113  1.60055e-05 -1.49223e-10     -3.01789 
          50     0.003759  2.40424e-05  -6.8666e-10     -3.01789 
          50     0.005872  2.99985e-05 -1.92031e-09     -3.01789 
          50     0.008457  3.24337e-05 -4.26916e-09     -3.01789 
          50      0.01151  3.09399e-05 -8.25298e-09     -3.01789 
          50     0.015036   2.6269e-05 -1.45239e-08     -3.01789 
          50     0.019031   2.0057e-05 -2.38616e-08     -3.01789 
          50     0.023493  1.41972e-05 -3.72048e-08     -3.01789 
          50     0.028429  1.00503e-05 -5.57062e-08     -3.01789 
          50     0.033831  7.82762e-06 -8.06653e-08     -3.01789 
          50     0.039706  6.40815e-06 -1.13648e-07     -3.01789 
          50     0.046047  3.96565e-06  -1.5634e-07     -3.01789 
          50     0.052863 -6.59563e-07   -2.107e-07     -3.01789 
          50      0.06015  -6.3666e-06 -2.78729e-07     -3.01789 
          50       0.0679 -9.61862e-06 -3.62457e-07     -3.01789 
          50     0.076126  -8.8965e-06 -4.64243e-07     -3.01789 
          50     0.084816   -1.495e-05 -5.86398e-07     -3.01789 
          50     0.093982 -1.53211e-05 -7.31733e-07     -3.01789 
          50     0.103611 -1.62933e-05 -9.02454e-07     -3.01789 
          50     0.113718  -1.7246e-05 -1.10136e-06     -3.01789 
          50     0.124286 -1.77344e-05 -1.33059e-06     -3.01789 
          50     0.135333 -1.75129e-05 -1.59287e-06     -3.01788 
          50      0.14685 -1.65183e-05 -1.89023e-06     -3.01788 
          50     0.158827 -1.48258e-05 -2.22439e-06     -3.01788 
          50     0.171284 -1.25691e-05  -2.5977e-06     -3.01788 
          50     0.184201 -9.86421e-06 -3.01113e-06     -3.01788 
          50     0.197599 -6.72294e-06 -3.46661e-06     -3.01788 
          50     0.211455 -3.05459e-06 -3.96434e-06     -3.01788 
          50     0.225792  1.25499e-06 -4.50578e-06     -3.01788 
          50       0.2406  6.02031e-06 -5.09078e-06     -3.01788 
          50     0.255865  1.07331e-05 -5.71854e-06     -3.01788 
          50     0.271613  1.59917e-05 -6.39055e-06     -3.01788 
          50     0.287818  2.14074e-05 -7.10501e-06     -3.01788 
          50     0.304506  2.69378e-05 -7.86189e-06     -3.01788 
          50      0.32165  3.25191e-05 -8.65876e-06     -3.01788 
          50     0.339278  3.81028e-05 -9.49565e-06     -3.01788 
          50     0.357377   4.3626e-05 -1.03707e-05     -3.01788 
          50      0.37593  4.90256e-05 -1.12816e-05     -3.01788 
          50     0.394968  5.42545e-05 -1.22284e-05     -3.01788 
          50     0.414461  5.92523e-05 -1.32081e-05     -3.01788 
          50      0.43444  6.39802e-05 -1.42204e-05     -3.01788 
          50     0.454872  6.83911e-05 -1.52617e-05     -3.01788 
          50     0.475791   7.2461e-05 -1.63318e-05     -3.01788 
          50     0.497163  7.61609e-05 -1.74266e-05     -3.01788 
          50     0.519021   7.9483e-05 -1.85457e-05     -3.01788 
          50      0.54135  8.24186e-05 -1.96862e-05     -3.01788 
          50     0.564131  8.49647e-05 -2.08455e-05     -3.01788 
          50       0.5874  8.71251e-05 -2.20246e-05     -3.01788 
          50     0.611121  8.88975e-05 -2.32218e-05     -3.01788 
          50      0.63533  9.03432e-05 -2.44304e-05     -3.01788 
          50      0.65999   9.1423e-05 -2.56464e-05     -3.01788 
          50     0.685139  9.21896e-05 -2.68704e-05     -3.01788 
          50     0.710759  9.26896e-05 -2.81001e-05     -3.01788 
          50     0.736828  9.29668e-05 -2.93328e-05     -3.01788 
          50     0.763387  9.30606e-05 -3.05687e-05     -3.01788 
          50     0.790396  9.30056e-05 -3.18044e-05     -3.01788 
          50     0.817896   9.2831e-05 -3.30398e-05     -3.01788 
          50     0.845843  9.25618e-05 -3.42715e-05     -3.01788 
          50     0.874283  9.22169e-05 -3.54996e-05     -3.01788 
          50      0.90317  9.18116e-05 -3.67207e-05     -3.01788 
          50     0.932551  9.13555e-05 -3.79353e-05     -3.01788 
          50     0.962401   9.0855e-05 -3.91412e-05     -3.01788 
          50     0.992697  9.03135e-05 -4.03364e-05     -3.01788 
          50      1.02349  8.97301e-05  -4.1522e-05     -3.01788 
          50      1.05472  8.91037e-05 -4.26955e-05     -3.01788 
          50      1.08645  8.84303e-05 -4.38582e-05     -3.01788 
          50      1.11863  8.77075e-05 -4.50081e-05     -3.01788 
          50       1.1513  8.69314e-05 -4.61468e-05     -3.01788 
          50      1.18444  8.61011e-05  -4.7273e-05     -3.01788 
          50      1.21802  8.52181e-05 -4.83853e-05     -3.01788 
          50      1.25211   8.4284e-05 -4.94848e-05     -3.01788 
          50      1.28663  8.33064e-05 -5.05679e-05     -3.01788 
          50      1.32165  8.22923e-05 -5.16338e-05     -3.01788 
          50      1.35712   8.1254e-05 -5.26766e-05     -3.01788 
          50      1.39308  8.02015e-05  -5.3692e-05     -3.01788 
          50      1.42951  7.91461e-05 -5.46701e-05     -3.01788 
          50      1.46638  7.80957e-05 -5.55982e-05     -3.01788 
          50      1.50375  7.70477e-05 -5.64609e-05     -3.01787 
          50      1.54156  7.60291e-05 -5.73602e-05     -3.01787 
          50      1.57987   7.5012e-05 -5.82115e-05     -3.01787 
          50      1.61863  7.39889e-05 -5.90068e-05     -3.01787 
          50      1.65788  7.29519e-05 -5.97486e-05     -3.01787 
          50      1.69757  7.18973e-05  -6.0437e-05     -3.01787 
          50      1.73776  7.08189e-05 -6.10741e-05     -3.01787 
          50      1.77842  6.97136e-05 -6.16603e-05     -3.01787 
          50      1.81952  6.85799e-05  -6.2196e-05     -3.01787 
          50      1.86113  6.74138e-05 -6.26828e-05     -3.01787 
          50      1.90316  6.62166e-05 -6.31204e-05     -3.01787 
          50      1.94571  6.49865e-05 -6.35098e-05     -3.01787 
          50      1.98869  6.37265e-05 -6.38507e-05     -3.01787 
          50      2.03217  6.24369e-05 -6.41437e-05     -3.01787 
          50      2.07612  6.11218e-05 -6.43884e-05     -3.01787 
          50      2.12051  5.97864e-05 -6.45844e-05     -3.01786 
          50       2.1654  5.84336e-05 -6.47316e-05     -3.01786 
          50      2.21073  5.70714e-05 -6.48292e-05     -3.01786 
          50      2.25656  5.57045e-05 -6.48769e-05     -3.01786 
          50      2.30283  5.43424e-05 -6.48738e-05     -3.01786 
          50       2.3496  5.29912e-05 -6.48191e-05     -3.01786 
          50      2.39685  5.16604e-05 -6.47119e-05     -3.01786 
          50      2.44452  5.03604e-05 -6.45515e-05     -3.01786 
          50      2.49271  4.90984e-05 -6.43368e-05     -3.01786 
          50      2.54132   4.7886e-05 -6.40674e-05     -3.01786 
          50      2.59044  4.67306e-05  -6.3742e-05     -3.01786 
          50         2.64  4.56435e-05 -6.33608e-05     -3.01785 
          50      2.69006  4.46319e-05 -6.29226e-05     -3.01785 
          50      2.74056  4.37056e-05 -6.24282e-05     -3.01785 
          50      2.79156  4.28705e-05 -6.18769e-05     -3.01785 
          50      2.84304  4.21338e-05 -6.12699e-05     -3.01785 
          50      2.89494  4.15008e-05 -6.06087e-05     -3.01785 
          50      2.94735  4.09739e-05  -5.9894e-05     -3.01785 
          50       3.0002  4.05551e-05 -5.91293e-05     -3.01785 
          50      3.05355  4.02428e-05 -5.83163e-05     -3.01784 
          50      3.10733  4.00338e-05 -5.74604e-05     -3.01784 
          50      3.16163  3.99213e-05 -5.65651e-05     -3.01784 
          50      3.21639  3.98953e-05 -5.56369e-05     -3.01784 
          50      3.27158  3.99423e-05 -5.46839e-05     -3.01784 
          50      3.32729  4.00443e-05 -5.37129e-05     -3.01784 
          50      3.38342  4.01788e-05 -5.27356e-05     -3.01784 
          50      3.44007  4.03187e-05 -5.17619e-05     -3.01784 
          50      3.49714  4.04308e-05 -5.08068e-05     -3.01783 
          50      3.55472  4.04768e-05 -4.98839e-05     -3.01783 
          50      3.61273  4.04115e-05 -4.90122e-05     -3.01783 
          50      3.67125  4.01831e-05   -4.821e-05     -3.01783 
          50      3.73025  3.97325e-05    -4.75e-05     -3.01783 
          50      3.78967  3.92565e-05 -4.67938e-05     -3.01783 
          50      3.84961  3.88506e-05 -4.61478e-05     -3.01782 
          50      3.90996   3.8434e-05 -4.55733e-05     -3.01782 
          50      3.97084  3.80079e-05 -4.50385e-05     -3.01782 
          50      4.03214  3.75785e-05 -4.45286e-05     -3.01782 
          50      4.09395  3.71519e-05 -4.40373e-05     -3.01782 
          50      4.15624  3.67355e-05 -4.35648e-05     -3.01781 
          50      4.21895  3.63359e-05 -4.31133e-05     -3.01781 
          50      4.28217  3.59571e-05  -4.2682e-05     -3.01781 
          50      4.34582  3.56025e-05 -4.22683e-05     -3.01781 
          50      4.40998  3.52725e-05 -4.18641e-05     -3.01781 
          50      4.47457   3.4968e-05 -4.14593e-05      -3.0178 
          50      4.53968  3.46894e-05 -4.10414e-05      -3.0178 
          50      4.60525  3.44411e-05 -4.06025e-05      -3.0178 
          50      4.67125  3.42198e-05 -4.01987e-05      -3.0178 
          50      4.73777  3.40135e-05 -3.97825e-05      -3.0178 
          50       4.8047  3.38363e-05 -3.93457e-05     -3.01779 
          50      4.87216  3.36891e-05 -3.88983e-05     -3.01779 
          50      4.94003  3.35693e-05 -3.84492e-05     -3.01779 
          50      5.00843  3.34723e-05 -3.80018e-05     -3.01779 
          50      5.07724   3.3395e-05 -3.75562e-05     -3.01778 
          50      5.14658  3.33362e-05 -3.71072e-05     -3.01778 
          50      5.21639  3.32969e-05 -3.66495e-05     -3.01778 
          50      5.28661  3.32791e-05 -3.61821e-05     -3.01777 
          50      5.35736  3.32824e-05 -3.57139e-05     -3.01777 
          50      5.42852     3.33e-05  -3.5276e-05     -3.01777 
          50      5.50021  3.33413e-05 -3.48005e-05     -3.01777 
          50      5.57231    3.338e-05 -3.43436e-05     -3.01776 
          50      5.64493  3.34229e-05 -3.38957e-05     -3.01776 
          50      5.71803  3.34732e-05 -3.34487e-05     -3.01776 
          50      5.79154  3.35305e-05 -3.30021e-05     -3.01775 
          50      5.86558  3.35949e-05 -3.25584e-05     -3.01775 
          50      5.94003  3.36715e-05 -3.21217e-05     -3.01775 
          50      6.01501  3.37188e-05  -3.1692e-05     -3.01774 
          50       6.0904  3.37585e-05 -3.12795e-05     -3.01774 
          50      6.16632  3.38095e-05 -3.08615e-05     -3.01774 
          50      6.24271  3.38687e-05 -3.04189e-05     -3.01773 
          50       6.3195  3.39228e-05 -2.99789e-05     -3.01773 
          50      6.39683   3.3944e-05 -2.96757e-05     -3.01773 
          50      6.47457  3.40123e-05 -2.91684e-05     -3.01772 
          50      6.55284  3.40496e-05 -2.87269e-05     -3.01772 
          50      6.63152  3.40748e-05 -2.83254e-05     -3.01772 
          50      6.71073  3.41023e-05 -2.79404e-05     -3.01771 
          50      6.79034  3.41411e-05 -2.75569e-05     -3.01771 
          50      6.87049  3.41965e-05 -2.71653e-05     -3.01771 
          50      6.95111  3.42547e-05 -2.67809e-05      -3.0177 
          50      7.03214   3.4289e-05 -2.64594e-05      -3.0177 
          50       7.1137  3.43412e-05 -2.61356e-05     -3.01769 
          50      7.19566  3.44013e-05 -2.58004e-05     -3.01769 
          50      7.27816  3.44627e-05 -2.54518e-05     -3.01768 
          50      7.36106  3.45221e-05 -2.50961e-05     -3.01768 
          50      7.44451  3.45792e-05 -2.47442e-05     -3.01768 
          50      7.52842  3.46362e-05 -2.44106e-05     -3.01767 
          50      7.61273  3.46965e-05 -2.41079e-05     -3.01767 
          50      7.69758  3.47645e-05 -2.38396e-05     -3.01766 
          50      7.78283  3.48433e-05 -2.35944e-05     -3.01766 
          50      7.86862  3.49334e-05 -2.33334e-05     -3.01765 
          50      7.95481  3.50306e-05 -2.29807e-05     -3.01765 
          50      8.04155  3.51259e-05 -2.26798e-05     -3.01764 
          50      8.12868  3.52089e-05 -2.24692e-05     -3.01764 
          50      8.21635  3.52806e-05  -2.2214e-05     -3.01763 
          50      8.30449  3.53436e-05 -2.19454e-05     -3.01763 
          50      8.39303  3.53991e-05 -2.16834e-05     -3.01762 
          50      8.48211  3.54481e-05 -2.14381e-05     -3.01762 
          50      8.57159  3.54908e-05 -2.12134e-05     -3.01761 
          50      8.66161  3.55278e-05 -2.10076e-05     -3.01761 
          50      8.75203  3.55597e-05 -2.08163e-05      -3.0176 
          50      8.84299  3.55879e-05 -2.06329e-05     -3.01759 
          50      8.93443  3.56142e-05 -2.04511e-05     -3.01759 
          50      9.02626   3.5641e-05 -2.02656e-05     -3.01758 
          50      9.11863  3.56708e-05 -2.00724e-05     -3.01758 
          50      9.21139  3.57062e-05 -1.98704e-05     -3.01757 
          50      9.30471  3.57495e-05 -1.96603e-05     -3.01756 
          50      9.39841  3.58013e-05 -1.94458e-05     -3.01756 
          50      9.49267  3.58608e-05 -1.92311e-05     -3.01755 
          50      9.58739  3.59236e-05  -1.9021e-05     -3.01755 
          50      9.68251  3.59809e-05 -1.88189e-05     -3.01754 
          50      9.77817  3.60183e-05 -1.86233e-05     -3.01753 
          50      9.87422  3.59659e-05 -1.83893e-05     -3.01753 
          50      9.97083  3.58717e-05  -1.8165e-05     -3.01752 
          50      10.0678  3.62134e-05 -1.77402e-05     -3.01751 
          50      10.1654  3.62085e-05 -1.74282e-05      -3.0175 
          50      10.2633   3.6188e-05 -1.71176e-05      -3.0175 
          50      10.3618  3.61715e-05 -1.68006e-05     -3.01749 
          50      10.4607  3.61719e-05 -1.64751e-05     -3.01748 
          50      10.5601  3.61966e-05  -1.6142e-05     -3.01748 
          50        10.66  3.62486e-05 -1.58031e-05     -3.01747 
          50      10.7603  3.63272e-05 -1.54626e-05     -3.01746 
          50      10.8611  3.64292e-05 -1.51231e-05     -3.01745 
          50      10.9623  3.65495e-05 -1.47876e-05     -3.01745 
          50      11.0641  3.66821e-05 -1.44567e-05     -3.01744 
          50      11.1663  3.68209e-05 -1.41301e-05     -3.01743 
          50       11.269  3.69595e-05 -1.38055e-05     -3.01742 
          50      11.3721  3.70928e-05 -1.34788e-05     -3.01741 
          50      11.4757  3.72165e-05 -1.31455e-05      -3.0174 
          50      11.5798  3.73276e-05 -1.28003e-05      -3.0174 
          50      11.6844  3.74243e-05 -1.24398e-05     -3.01739 
          50      11.7894  3.75059e-05 -1.20628e-05     -3.01738 
          50       11.895  3.75724e-05 -1.16733e-05     -3.01737 
          50      12.0009  3.76241e-05 -1.12832e-05     -3.01736 
          50      12.1073  3.76606e-05 -1.09138e-05     -3.01735 
          50      12.2142  3.76797e-05 -1.06017e-05     -3.01734 
          50      12.3216  3.76764e-05 -1.04006e-05     -3.01733 
          50      12.4294  3.76563e-05 -1.02161e-05     -3.01732 
          50      12.5378   3.7666e-05 -9.75705e-06     -3.01732 
          50      12.6465   3.7683e-05 -9.36899e-06     -3.01731 
          50      12.7558  3.77018e-05 -9.04438e-06      -3.0173 
          50      12.8656  3.77186e-05 -8.77374e-06     -3.01729 
          50      12.9757  3.77303e-05 -8.54503e-06     -3.01728 
          50      13.0864  3.77355e-05 -8.34405e-06     -3.01727 
          50      13.1975  3.77336e-05 -8.15628e-06     -3.01726 
          50      13.3092  3.77255e-05 -7.96639e-06     -3.01725 
          50      13.4212  3.77129e-05 -7.76019e-06     -3.01724 
          50      13.5338  3.76988e-05  -7.5243e-06     -3.01722 
          50      13.6468   3.7687e-05 -7.24812e-06     -3.01721 
          50      13.7603  3.76826e-05 -6.92443e-06      -3.0172 
          50      13.8743  3.77829e-05 -6.67877e-06     -3.01719 
          50      13.9886  3.79056e-05 -6.48587e-06     -3.01718 
          50      14.1036  3.80048e-05 -6.29561e-06     -3.01717 
          50      14.2189  3.80893e-05 -6.11369e-06     -3.01716 
          50      14.3348  3.81666e-05  -5.9416e-06     -3.01715 
          50       14.451  3.82418e-05 -5.77839e-06     -3.01714 
          50      14.5678  3.83186e-05 -5.62033e-06     -3.01712 
          50      14.6851   3.8398e-05 -5.46292e-06     -3.01711 
          50      14.8028  3.84791e-05 -5.30163e-06      -3.0171 
          50       14.921  3.85593e-05 -5.13307e-06     -3.01709 
          50      15.0396  3.86343e-05 -4.95757e-06     -3.01708 
          50      15.1588  3.86996e-05 -4.78009e-06     -3.01706 
          50      15.2783  3.87506e-05 -4.61361e-06     -3.01705 
          50      15.3984  3.87841e-05 -4.48058e-06     -3.01704 
          50       15.519  3.87994e-05 -4.41681e-06     -3.01702 
          50        15.64  3.88004e-05 -4.47399e-06     -3.01701 
          50      15.7615  3.87416e-05 -4.23687e-06       -3.017 
          50      15.8834  3.86699e-05 -4.04374e-06     -3.01699 
          50      16.0058  3.86026e-05 -3.92408e-06     -3.01697 
          50      16.1286  3.85466e-05 -3.84905e-06     -3.01696 
          50       16.252  3.85058e-05 -3.79594e-06     -3.01694 
          50      16.3759  3.84818e-05   -3.748e-06     -3.01693 
          50      16.5002  3.84742e-05 -3.69351e-06     -3.01692 
          50       16.625  3.84813e-05 -3.62505e-06      -3.0169 
          50      16.7501  3.85006e-05 -3.53911e-06     -3.01689 
          50      16.8759  3.85289e-05 -3.43495e-06     -3.01687 
          50       17.002   3.8563e-05 -3.31453e-06     -3.01686 
          50      17.1287  3.85999e-05  -3.1812e-06     -3.01684 
          50      17.2557  3.86373e-05 -3.03979e-06     -3.01683 
          50      17.3834  3.86736e-05 -2.89524e-06     -3.01681 
          50      17.5115  3.87086e-05 -2.75276e-06      -3.0168 
          50      17.6399  3.87432e-05 -2.61694e-06     -3.01678 
          50       17.769  3.87799e-05 -2.49091e-06     -3.01677 
          50      17.8984  3.88229e-05 -2.37665e-06     -3.01675 
          50      18.0284  3.88777e-05 -2.27373e-06     -3.01674 
          50      18.1587  3.89518e-05 -2.17964e-06     -3.01672 
          50      18.2896  3.90541e-05 -2.08885e-06     -3.01671 
          50       18.421  3.91947e-05 -1.99303e-06     -3.01669 
          50      18.5528  3.92591e-05 -1.86997e-06     -3.01667 
          50      18.6851  3.92542e-05 -1.73756e-06     -3.01666 
          50      18.8178  3.92271e-05 -1.60667e-06     -3.01664 
          50      18.9511  3.91836e-05 -1.48297e-06     -3.01662 
          50      19.0847  3.91334e-05 -1.37554e-06     -3.01661 
          50      19.2189  3.90907e-05 -1.29559e-06     -3.01659 
          50      19.3535   3.9075e-05 -1.25621e-06     -3.01657 
          50      19.4886  3.91115e-05 -1.27097e-06     -3.01655 
          50      19.6242  3.92313e-05 -1.35281e-06     -3.01653 
          50      19.7602   3.9322e-05 -1.38755e-06     -3.01652 
          50      19.8968   3.9259e-05  -1.2529e-06      -3.0165 
          50      20.0337  3.92448e-05  -1.1476e-06     -3.01648 
          50      20.1712  3.92462e-05 -1.07249e-06     -3.01646 
          50      20.3091  3.92377e-05 -1.02265e-06     -3.01644 
          50      20.4475  3.92011e-05 -9.88301e-07     -3.01642 
          50      20.5864  3.91241e-05 -9.56457e-07     -3.01641 
          50      20.7257  3.89992e-05 -9.12095e-07     -3.01639 
          50      20.8655  3.89627e-05 -7.72304e-07     -3.01637 
          50      21.0058  3.90325e-05 -5.80955e-07     -3.01635 
          50      21.1465  3.90933e-05 -4.10387e-07     -3.01633 
          50      21.2877  3.91403e-05  -2.6152e-07     -3.01631 
          50      21.4294  3.91701e-05 -1.33416e-07     -3.01629 
          50      21.5716  3.91807e-05 -2.43452e-08     -3.01627 
          50      21.7142  3.91716e-05  6.84231e-08     -3.01625 
          50      21.8573  3.91436e-05  1.48558e-07     -3.01623 
          50      22.0008  3.90994e-05  2.19924e-07     -3.01621 
          50      22.1449  3.90426e-05  2.86852e-07     -3.01618 
          50      22.2893  3.89784e-05  3.53391e-07     -3.01616 
          50      22.4344  3.89124e-05  4.23457e-07     -3.01614 
          50      22.5797  3.88512e-05  5.00084e-07     -3.01612 
          50      22.7257  3.88009e-05  5.85545e-07      -3.0161 
          50      22.8721   3.8767e-05  6.80588e-07     -3.01608 
          50      23.0189   3.8754e-05  7.84213e-07     -3.01606 
          50      23.1663  3.87639e-05  8.93555e-07     -3.01603 
          50       23.314  3.87955e-05  1.00289e-06     -3.01601 
          50      23.4623  3.88435e-05  1.10386e-06     -3.01599 
          50       23.611   3.8897e-05  1.18437e-06     -3.01596 
          50      23.7602  3.89382e-05  1.22867e-06     -3.01594 
          50        23.91  3.89408e-05  1.21638e-06     -3.01592 
          50        24.06  3.88686e-05  1.12233e-06      -3.0159 
          50      24.2107  3.86729e-05  9.15577e-07     -3.01587 
          50      24.3617   3.8659e-05   1.0291e-06     -3.01585 
          50      24.5133  3.87606e-05  1.26582e-06     -3.01582 
          50      24.6653  3.88284e-05  1.42269e-06      -3.0158 
          50      24.8178  3.88667e-05  1.51795e-06     -3.01578 
          50      24.9708  3.88802e-05  1.56696e-06     -3.01575 
          50      25.1242  3.88742e-05  1.58286e-06     -3.01573 
          50      25.2781  3.88542e-05  1.57665e-06      -3.0157 
          50      25.4324  3.88256e-05  1.55725e-06     -3.01568 
          50      25.5873  3.87936e-05   1.5317e-06     -3.01565 
          50      25.7426   3.8763e-05   1.5054e-06     -3.01562 
          50      25.8984   3.8738e-05  1.48216e-06      -3.0156 
          50      26.0546   3.8722e-05  1.46449e-06     -3.01557 
          50      26.2114  3.87173e-05  1.45367e-06     -3.01555 
          50      26.3686  3.87257e-05  1.45003e-06     -3.01552 
          50      26.5262  3.87474e-05  1.45305e-06     -3.01549 
          50      26.6844   3.8782e-05  1.46161e-06     -3.01547 
          50      26.8429  3.88276e-05  1.47411e-06     -3.01544 
          50       27.002  3.88816e-05  1.48873e-06     -3.01541 
          50      27.1615  3.89402e-05  1.50356e-06     -3.01538 
          50      27.3216  3.89991e-05  1.51684e-06     -3.01536 
          50      27.4821   3.9053e-05  1.52712e-06     -3.01533 
          50       27.643  3.90962e-05  1.53346e-06      -3.0153 
          50      27.8044   3.9123e-05  1.53567e-06     -3.01527 
          50      27.9663  3.91277e-05  1.53443e-06     -3.01524 
          50      28.1287  3.91052e-05  1.53156e-06     -3.01522 
          50      28.2914  3.90513e-05  1.53016e-06     -3.01519 
          50      28.4548   3.8963e-05  1.53484e-06     -3.01516 
          50      28.6185  3.88397e-05  1.55189e-06     -3.01513 
          50      28.7828  3.86829e-05  1.58954e-06      -3.0151 
          50      28.9475  3.84978e-05  1.65805e-06     -3.01507 
          50      29.1126  3.82936e-05  1.76988e-06     -3.01504 
          50      29.2784  3.83601e-05  1.73099e-06     -3.01501 
          50      29.4444   3.8562e-05   1.5898e-06     -3.01498 
          50       29.611  3.87167e-05  1.43795e-06     -3.01495 
          50       29.778  3.87821e-05  1.32399e-06     -3.01492 
          50      29.9456  3.86731e-05  1.56518e-06     -3.01488 
          50      30.1137  3.85889e-05  1.64514e-06     -3.01485 
          50      30.2821  3.85546e-05  1.60928e-06     -3.01482 
          50      30.4511   3.8573e-05  1.60155e-06     -3.01479 
          50      30.6204  3.85989e-05  1.63318e-06     -3.01476 
          50      30.7903  3.86285e-05  1.67964e-06     -3.01473 
          50      30.9606   3.8659e-05   1.7239e-06     -3.01469 
          50      31.1315  3.86887e-05  1.75546e-06     -3.01466 
          50      31.3028  3.87167e-05  1.76899e-06     -3.01463 
          50      31.4745  3.87424e-05  1.76345e-06     -3.01459 
          50      31.6468  3.87658e-05  1.74096e-06     -3.01456 
          50      31.8194  3.87869e-05  1.70597e-06     -3.01453 
          50      31.9926  3.88059e-05  1.66427e-06     -3.01449 
          50      32.1662  3.88229e-05  1.62242e-06     -3.01446 
          50      32.3404  3.88378e-05  1.58681e-06     -3.01442 
          50      32.5149  3.88504e-05  1.56334e-06     -3.01439 
          50        32.69  3.88601e-05  1.55669e-06     -3.01436 
          50      32.8655  3.88665e-05  1.57014e-06     -3.01432 
          50      33.0414  3.88685e-05  1.60518e-06     -3.01429 
          50       33.218  3.88651e-05  1.66146e-06     -3.01425 
          50      33.3948  3.88555e-05  1.73663e-06     -3.01421 
          50      33.5723  3.88387e-05  1.82677e-06     -3.01418 
          50        33.75  3.88143e-05  1.92619e-06     -3.01414 
          50      33.9284  3.87823e-05  2.02846e-06     -3.01411 
          50      34.1073  3.87435e-05   2.1264e-06     -3.01407 
          50      34.2865  3.87001e-05  2.21311e-06     -3.01403 
          50      34.4663  3.86556e-05  2.28314e-06     -3.01399 
          50      34.6465  3.86155e-05  2.33306e-06     -3.01396 
          50      34.8272  3.85878e-05  2.36331e-06     -3.01392 
          50      35.0083  3.85834e-05  2.37933e-06     -3.01388 
          50        35.19  3.86168e-05  2.39353e-06     -3.01384 
          50      35.3721  3.87068e-05  2.42714e-06     -3.01381 
          50      35.5546  3.86866e-05  2.51616e-06     -3.01377 
          50      35.7377   3.8534e-05  2.62777e-06     -3.01373 
          50      35.9211  3.84293e-05  2.73144e-06     -3.01369 
          50      36.1052  3.83572e-05  2.82207e-06     -3.01365 
          50      36.2895  3.83069e-05  2.89772e-06     -3.01361 
          50      36.4745  3.82707e-05  2.95913e-06     -3.01357 
          50      36.6598  3.82438e-05  3.00837e-06     -3.01353 
          50      36.8457  3.82235e-05   3.0484e-06     -3.01349 
          50      37.0321  3.82087e-05  3.08212e-06     -3.01345 
          50      37.2188  3.81997e-05  3.11198e-06     -3.01341 
          50      37.4062   3.8197e-05  3.13967e-06     -3.01337 
          50      37.5938  3.82016e-05  3.16572e-06     -3.01333 
          50      37.7821  3.82143e-05  3.18963e-06     -3.01329 
          50      37.9707  3.82353e-05  3.20987e-06     -3.01324 
          50      38.1599  3.82638e-05  3.22427e-06      -3.0132 
          50      38.3496  3.82982e-05  3.23045e-06     -3.01316 
          50      38.5396  3.83353e-05  3.22661e-06     -3.01312 
          50      38.7302  3.83705e-05  3.21239e-06     -3.01307 
          50      38.9211  3.83977e-05  3.19004e-06     -3.01303 
          50      39.1127  3.84093e-05  3.16578e-06     -3.01299 
          50      39.3046   3.8396e-05  3.15148e-06     -3.01294 
          50      39.4971  3.83471e-05  3.16648e-06      -3.0129 
          50      39.6899  3.82508e-05  3.23971e-06     -3.01286 
          50      39.8833  3.81512e-05  3.17898e-06     -3.01281 
          50      40.0772  3.80798e-05  3.10768e-06     -3.01277 
          50      40.2714  3.80305e-05  3.08301e-06     -3.01272 
          50      40.4663  3.80016e-05  3.09767e-06     -3.01268 
          50      40.6615  3.79892e-05  3.14299e-06     -3.01263 
          50      40.8573  3.79871e-05   3.2082e-06     -3.01259 
          50      41.0534  3.79875e-05   3.2793e-06     -3.01254 
          50      41.2501  3.79819e-05  3.33855e-06      -3.0125 
          50      41.4473  3.79618e-05  3.36311e-06     -3.01245 
          50      41.6448  3.79205e-05   3.3244e-06      -3.0124 
          50      41.8429  3.78539e-05  3.18677e-06     -3.01236 
          50      42.0414  3.77626e-05   2.9069e-06     -3.01231 
          50      42.2405  3.76539e-05  2.43164e-06     -3.01226 
          50      42.4399  3.79266e-05  2.40467e-06     -3.01221 
          50      42.6399  3.82801e-05  2.70785e-06     -3.01217 
          50      42.8404  3.84769e-05  2.94089e-06     -3.01212 
          50      43.0412  3.85568e-05  3.10424e-06     -3.01207 
          50      43.2426  3.85527e-05  3.20367e-06     -3.01202 
          50      43.4444  3.84915e-05  3.24833e-06     -3.01197 
          50      43.6467  3.83945e-05  3.25018e-06     -3.01192 
          50      43.8494  3.82788e-05  3.22253e-06     -3.01187 
          50      44.0527  3.81569e-05  3.17904e-06     -3.01183 
          50      44.2563  3.80382e-05   3.1328e-06     -3.01178 
          50      44.4606  3.79288e-05  3.09521e-06     -3.01173 
          50      44.6653  3.78331e-05  3.07529e-06     -3.01167 
          50      44.8704  3.77536e-05  3.07876e-06     -3.01162 
          50       45.076  3.76912e-05  3.10737e-06     -3.01157 
          50       45.282  3.76468e-05  3.15821e-06     -3.01152 
          50      45.4886  3.77539e-05  3.13866e-06     -3.01147 
          50      45.6955  3.78605e-05  3.12803e-06     -3.01142 
          50       45.903  3.79236e-05  3.14695e-06     -3.01137 
          50      46.1111  3.79515e-05  3.18552e-06     -3.01132 
          50      46.3194  3.79524e-05  3.23505e-06     -3.01126 
          50      46.5283  3.79339e-05   3.2882e-06     -3.01121 
          50      46.7376  3.79031e-05  3.33862e-06     -3.01116 
          50      46.9475  3.78656e-05  3.38122e-06      -3.0111 
          50      47.1577  3.78266e-05  3.41185e-06     -3.01105 
          50      47.3685  3.77897e-05  3.42751e-06       -3.011 
          50      47.5798   3.7758e-05  3.42617e-06     -3.01094 
          50      47.7914   3.7733e-05  3.40689e-06     -3.01089 
          50      48.0037  3.77156e-05   3.3698e-06     -3.01083 