Variables = x, y, u, v, p

Zone, I=800, F=POINT
          -5            0            0            0      14.1058 
          -5     0.000234  4.72832e-07 -9.98051e-11      14.1058 
          -5     0.000939  1.82246e-06 -3.09074e-10      14.1058 
          -5     0.002113  3.83373e-06 -3.66017e-10      14.1058 
          -5     0.003759   6.2015e-06  1.26121e-10      14.1058 
          -5     0.005872   8.5665e-06  1.65239e-09      14.1058 
          -5     0.008457  1.06026e-05  4.75665e-09      14.1058 
          -5      0.01151  1.20528e-05  1.00142e-08      14.1058 
          -5     0.015036  1.27846e-05  1.80695e-08      14.1058 
          -5     0.019031  1.27962e-05  2.96464e-08      14.1058 
          -5     0.023493  1.22058e-05  4.56065e-08      14.1058 
          -5     0.028429  1.12014e-05  6.69997e-08      14.1058 
          -5     0.033831  9.98016e-06  9.49042e-08      14.1058 
          -5     0.039706   8.6763e-06  1.30388e-07      14.1058 
          -5     0.046047  7.32158e-06  1.74103e-07      14.1058 
          -5     0.052863  5.84064e-06  2.26225e-07      14.1058 
          -5      0.06015  4.12595e-06  2.86314e-07      14.1058 
          -5       0.0679  2.17714e-06  3.54228e-07      14.1058 
          -5     0.076126  2.80794e-07  4.32992e-07      14.1058 
          -5     0.084816 -1.14922e-06  5.33028e-07      14.1058 
          -5     0.093982 -3.49466e-06  6.30459e-07      14.1058 
          -5     0.103611 -5.72472e-06  7.26724e-07      14.1058 
          -5     0.113718 -7.91968e-06  8.39836e-07      14.1058 
          -5     0.124286 -1.01198e-05  9.75748e-07      14.1058 
          -5     0.135333 -1.23384e-05  1.13073e-06      14.1058 
          -5      0.14685  -1.4553e-05  1.29445e-06      14.1058 
          -5     0.158827 -1.67219e-05    1.456e-06      14.1058 
          -5     0.171284 -1.88041e-05  1.61064e-06      14.1058 
          -5     0.184201  -2.0764e-05  1.76388e-06      14.1058 
          -5     0.197599 -2.25979e-05  1.93299e-06      14.1058 
          -5     0.211455 -2.43219e-05  2.13705e-06      14.1058 
          -5     0.225792 -2.59622e-05  2.37356e-06      14.1058 
          -5       0.2406 -2.74811e-05  2.56793e-06      14.1058 
          -5     0.255865 -2.87676e-05  2.63769e-06      14.1058 
          -5     0.271613 -2.99617e-05  2.79929e-06      14.1058 
          -5     0.287818 -3.10903e-05  2.99367e-06      14.1058 
          -5     0.304506 -3.21187e-05  3.20816e-06      14.1058 
          -5      0.32165 -3.30074e-05   3.4255e-06      14.1058 
          -5     0.339278 -3.37572e-05  3.64493e-06      14.1058 
          -5     0.357377 -3.43669e-05  3.86529e-06      14.1058 
          -5      0.37593 -3.48359e-05  4.08551e-06      14.1058 
          -5     0.394968 -3.51655e-05  4.30528e-06      14.1058 
          -5     0.414461 -3.53555e-05  4.52377e-06      14.1058 
          -5      0.43444  -3.5407e-05  4.74103e-06      14.1058 
          -5     0.454872 -3.53208e-05  4.95663e-06      14.1058 
          -5     0.475791 -3.50978e-05  5.17107e-06      14.1059 
          -5     0.497163 -3.47396e-05  5.38437e-06      14.1059 
          -5     0.519021 -3.42471e-05  5.59739e-06      14.1059 
          -5      0.54135 -3.36224e-05  5.81074e-06      14.1059 
          -5     0.564131 -3.28683e-05   6.0251e-06      14.1059 
          -5       0.5874 -3.19861e-05  6.24181e-06      14.1059 
          -5     0.611121 -3.09806e-05  6.46157e-06      14.1059 
          -5      0.63533 -2.98544e-05  6.68577e-06      14.1059 
          -5      0.65999 -2.86141e-05  6.91505e-06      14.1059 
          -5     0.685139  -2.7264e-05  7.15063e-06      14.1059 
          -5     0.710759 -2.58124e-05  7.39302e-06      14.1059 
          -5     0.736828 -2.42696e-05  7.64241e-06      14.1059 
          -5     0.763387 -2.26435e-05  7.89929e-06      14.1059 
          -5     0.790396 -2.09487e-05  8.16298e-06      14.1059 
          -5     0.817896 -1.91961e-05  8.43317e-06      14.1059 
          -5     0.845843 -1.74036e-05  8.70827e-06      14.1059 
          -5     0.874283 -1.55845e-05  8.98716e-06      14.1059 
          -5      0.90317 -1.37586e-05  9.26746e-06      14.1059 
          -5     0.932551 -1.19402e-05  9.54739e-06      14.1059 
          -5     0.962401 -1.01468e-05  9.82437e-06      14.1059 
          -5     0.992697 -8.39401e-06  1.00959e-05      14.1059 
          -5      1.02349 -6.68921e-06  1.03608e-05      14.1059 
          -5      1.05472 -5.03967e-06  1.06175e-05      14.1059 
          -5      1.08645 -3.43854e-06  1.08671e-05      14.1059 
          -5      1.11863 -1.87251e-06  1.11118e-05       14.106 
          -5       1.1513 -3.31442e-07   1.1358e-05       14.106 
          -5      1.18444  1.08831e-06  1.16011e-05       14.106 
          -5      1.21802  2.46601e-06  1.18325e-05       14.106 
          -5      1.25211    3.807e-06  1.20527e-05       14.106 
          -5      1.28663  5.11187e-06  1.22612e-05       14.106 
          -5      1.32165  6.38519e-06  1.24587e-05       14.106 
          -5      1.35712   7.6266e-06  1.26448e-05       14.106 
          -5      1.39308  8.83901e-06  1.28202e-05       14.106 
          -5      1.42951  1.00214e-05  1.29849e-05       14.106 
          -5      1.46638  1.11716e-05  1.31389e-05       14.106 
          -5      1.50375   1.2289e-05  1.32828e-05       14.106 
          -5      1.54156   1.3368e-05  1.34165e-05      14.1061 
          -5      1.57987   1.4405e-05    1.354e-05      14.1061 
          -5      1.61863  1.53919e-05  1.36531e-05      14.1061 
          -5      1.65788  1.63222e-05  1.37554e-05      14.1061 
          -5      1.69757  1.71855e-05  1.38459e-05      14.1061 
          -5      1.73776  1.79731e-05  1.39235e-05      14.1061 
          -5      1.77842   1.8674e-05  1.39862e-05      14.1061 
          -5      1.81952  1.92733e-05   1.4037e-05      14.1061 
          -5      1.86113  1.97839e-05  1.40793e-05      14.1062 
          -5      1.90316  2.02011e-05   1.4113e-05      14.1062 
          -5      1.94571   2.0524e-05  1.41366e-05      14.1062 
          -5      1.98869  2.07545e-05  1.41457e-05      14.1062 
          -5      2.03217  2.09004e-05  1.41318e-05      14.1062 
          -5      2.07612  2.09756e-05  1.40808e-05      14.1062 
          -5      2.12051  2.09699e-05  1.40059e-05      14.1062 
          -5       2.1654  2.09107e-05  1.39514e-05      14.1063 
          -5      2.21073  2.08447e-05  1.39036e-05      14.1063 
          -5      2.25656  2.07942e-05  1.38636e-05      14.1063 
          -5      2.30283  2.07855e-05  1.38337e-05      14.1063 
          -5       2.3496  2.08457e-05  1.38151e-05      14.1063 
          -5      2.39685  2.09877e-05  1.38334e-05      14.1063 
          -5      2.44452  2.12436e-05  1.39065e-05      14.1064 
          -5      2.49271  2.16489e-05  1.40251e-05      14.1064 
          -5      2.54132  2.22193e-05  1.41954e-05      14.1064 
          -5      2.59044  2.29659e-05  1.44217e-05      14.1064 
          -5         2.64  2.38908e-05  1.47054e-05      14.1064 
          -5      2.69006  2.49918e-05  1.50469e-05      14.1064 
          -5      2.74056  2.62563e-05  1.54446e-05      14.1065 
          -5      2.79156  2.76681e-05  1.58967e-05      14.1065 
          -5      2.84304  2.92006e-05     1.64e-05      14.1065 
          -5      2.89494  3.08203e-05  1.69501e-05      14.1065 
          -5      2.94735  3.24913e-05  1.75434e-05      14.1065 
          -5       3.0002  3.41674e-05  1.81736e-05      14.1066 
          -5      3.05355  3.58038e-05  1.88347e-05      14.1066 
          -5      3.10733  3.73482e-05  1.95166e-05      14.1066 
          -5      3.16163  3.87533e-05  2.02084e-05      14.1066 
          -5      3.21639  3.99708e-05  2.08927e-05      14.1066 
          -5      3.27158  4.09587e-05  2.15464e-05      14.1067 
          -5      3.32729  4.16868e-05  2.21392e-05      14.1067 
          -5      3.38342  4.21678e-05  2.26568e-05      14.1067 
          -5      3.44007   4.2305e-05  2.31332e-05      14.1067 
          -5      3.49714  4.21254e-05  2.35297e-05      14.1068 
          -5      3.55472  4.17539e-05  2.38429e-05      14.1068 
          -5      3.61273  4.12885e-05  2.40836e-05      14.1068 
          -5      3.67125  4.07994e-05  2.42761e-05      14.1068 
          -5      3.73025  4.03295e-05    2.445e-05      14.1068 
          -5      3.78967  3.98865e-05  2.46321e-05      14.1069 
          -5      3.84961  3.94301e-05  2.48339e-05      14.1069 
          -5      3.90996  3.88568e-05  2.50333e-05      14.1069 
          -5      3.97084  3.82649e-05  2.51437e-05      14.1069 
          -5      4.03214  3.76743e-05   2.5275e-05       14.107 
          -5      4.09395  3.70749e-05  2.54051e-05       14.107 
          -5      4.15624  3.64632e-05  2.55199e-05       14.107 
          -5      4.21895  3.58391e-05   2.5613e-05       14.107 
          -5      4.28217  3.52034e-05  2.56841e-05      14.1071 
          -5      4.34582  3.45614e-05   2.5736e-05      14.1071 
          -5      4.40998  3.39177e-05  2.57742e-05      14.1071 
          -5      4.47457  3.32801e-05  2.58039e-05      14.1071 
          -5      4.53968  3.26549e-05  2.58295e-05      14.1071 
          -5      4.60525  3.20497e-05  2.58533e-05      14.1072 
          -5      4.67125   3.1472e-05  2.58746e-05      14.1072 
          -5      4.73777  3.09268e-05  2.58895e-05      14.1072 
          -5       4.8047  3.04198e-05  2.58909e-05      14.1072 
          -5      4.87216  2.99536e-05  2.58693e-05      14.1072 
          -5      4.94003  2.95305e-05   2.5814e-05      14.1073 
          -5      5.00843  2.91498e-05  2.57152e-05      14.1073 
          -5      5.07724  2.88103e-05  2.55671e-05      14.1073 
          -5      5.14658  2.85079e-05  2.53708e-05      14.1073 
          -5      5.21639  2.81653e-05  2.51257e-05      14.1073 
          -5      5.28661  2.78711e-05  2.46832e-05      14.1074 
          -5      5.35736  2.76564e-05  2.46984e-05      14.1074 
          -5      5.42852  2.73603e-05  2.45738e-05      14.1074 
          -5      5.50021  2.70425e-05  2.43994e-05      14.1074 
          -5      5.57231  2.67143e-05  2.42156e-05      14.1074 
          -5      5.64493  2.63853e-05  2.40328e-05      14.1075 
          -5      5.71803  2.60611e-05   2.3857e-05      14.1075 
          -5      5.79154  2.57441e-05  2.36906e-05      14.1075 
          -5      5.86558  2.54336e-05  2.35332e-05      14.1075 
          -5      5.94003  2.51286e-05  2.33829e-05      14.1075 
          -5      6.01501  2.48266e-05  2.32362e-05      14.1075 
          -5       6.0904  2.45264e-05  2.30899e-05      14.1075 
          -5      6.16632  2.42269e-05  2.29404e-05      14.1076 
          -5      6.24271  2.39288e-05  2.27848e-05      14.1076 
          -5       6.3195  2.36345e-05  2.26212e-05      14.1076 
          -5      6.39683  2.33468e-05  2.24479e-05      14.1076 
          -5      6.47457  2.30708e-05  2.22641e-05      14.1076 
          -5      6.55284  2.28108e-05  2.20686e-05      14.1076 
          -5      6.63152  2.25716e-05    2.186e-05      14.1076 
          -5      6.71073  2.23548e-05   2.1634e-05      14.1076 
          -5      6.79034   2.2159e-05   2.1384e-05      14.1076 
          -5      6.87049  2.19759e-05  2.10971e-05      14.1076 
          -5      6.95111  2.17884e-05  2.07533e-05      14.1076 
          -5      7.03214  2.15673e-05  2.03388e-05      14.1076 
          -5       7.1137  2.13811e-05  2.02352e-05      14.1076 
          -5      7.19566  2.12781e-05  2.00591e-05      14.1076 
          -5      7.27816  2.12298e-05  1.98488e-05      14.1076 
          -5      7.36106  2.12129e-05  1.96313e-05      14.1076 
          -5      7.44451  2.12091e-05  1.94239e-05      14.1076 
          -5      7.52842  2.12038e-05  1.92365e-05      14.1076 
          -5      7.61273  2.11865e-05  1.90733e-05      14.1076 
          -5      7.69758  2.11495e-05  1.89338e-05      14.1076 
          -5      7.78283  2.10884e-05  1.88151e-05      14.1076 
          -5      7.86862  2.10009e-05   1.8712e-05      14.1076 
          -5      7.95481  2.08873e-05  1.86184e-05      14.1076 
          -5      8.04155    2.075e-05  1.85271e-05      14.1076 
          -5      8.12868  2.05935e-05  1.84303e-05      14.1076 
          -5      8.21635  2.04245e-05  1.83187e-05      14.1076 
          -5      8.30449   2.0252e-05  1.81803e-05      14.1075 
          -5      8.39303  2.00882e-05  1.79997e-05      14.1075 
          -5      8.48211  1.99479e-05  1.77542e-05      14.1075 
          -5      8.57159  1.97618e-05  1.76677e-05      14.1075 
          -5      8.66161   1.9509e-05  1.77844e-05      14.1075 
          -5      8.75203  1.92497e-05  1.78108e-05      14.1075 
          -5      8.84299  1.89722e-05  1.76648e-05      14.1074 
          -5      8.93443  1.86667e-05  1.73063e-05      14.1074 
          -5      9.02626  1.83271e-05  1.67615e-05      14.1074 
          -5      9.11863  1.79788e-05  1.66956e-05      14.1074 
          -5      9.21139  1.77684e-05  1.68238e-05      14.1073 
          -5      9.30471  1.76654e-05  1.68225e-05      14.1073 
          -5      9.39841  1.76314e-05  1.67192e-05      14.1073 
          -5      9.49267  1.76448e-05  1.65665e-05      14.1072 
          -5      9.58739  1.76973e-05  1.64307e-05      14.1072 
          -5      9.68251  1.77708e-05  1.63581e-05      14.1072 
          -5      9.77817  1.77422e-05  1.62768e-05      14.1071 
          -5      9.87422  1.77128e-05  1.62781e-05      14.1071 
          -5      9.97083  1.76872e-05  1.62974e-05      14.1071 
          -5      10.0678  1.76719e-05  1.62859e-05       14.107 
          -5      10.1654  1.76723e-05  1.62153e-05       14.107 
          -5      10.2633  1.76909e-05  1.60801e-05      14.1069 
          -5      10.3618  1.77266e-05  1.58966e-05      14.1069 
          -5      10.4607  1.77737e-05  1.56995e-05      14.1068 
          -5      10.5601  1.78228e-05  1.55341e-05      14.1068 
          -5        10.66  1.78624e-05  1.54443e-05      14.1067 
          -5      10.7603  1.78812e-05  1.54582e-05      14.1067 
          -5      10.8611  1.78722e-05  1.55667e-05      14.1066 
          -5      10.9623  1.78377e-05  1.56982e-05      14.1066 
          -5      11.0641  1.77953e-05  1.56888e-05      14.1065 
          -5      11.1663  1.77865e-05  1.52441e-05      14.1064 
          -5       11.269  1.77586e-05  1.46898e-05      14.1064 
          -5      11.3721   1.7578e-05  1.52357e-05      14.1063 
          -5      11.4757  1.74896e-05   1.5494e-05      14.1062 
          -5      11.5798  1.74636e-05  1.55657e-05      14.1062 
          -5      11.6844  1.74748e-05  1.55268e-05      14.1061 
          -5      11.7894  1.75024e-05  1.54329e-05       14.106 
          -5       11.895  1.75299e-05   1.5322e-05       14.106 
          -5      12.0009  1.75455e-05  1.52175e-05      14.1059 
          -5      12.1073  1.75423e-05  1.51311e-05      14.1058 
          -5      12.2142  1.75178e-05  1.50652e-05      14.1057 
          -5      12.3216  1.74741e-05  1.50153e-05      14.1056 
          -5      12.4294  1.74182e-05  1.49712e-05      14.1055 
          -5      12.5378  1.73613e-05  1.49189e-05      14.1055 
          -5      12.6465  1.73194e-05  1.48413e-05      14.1054 
          -5      12.7558  1.73121e-05  1.47183e-05      14.1053 
          -5      12.8656  1.73525e-05  1.46313e-05      14.1052 
          -5      12.9757  1.73385e-05  1.44613e-05      14.1051 
          -5      13.0864  1.72808e-05  1.42338e-05       14.105 
          -5      13.1975   1.7194e-05  1.39864e-05      14.1049 
          -5      13.3092  1.70916e-05  1.37515e-05      14.1048 
          -5      13.4212  1.69858e-05  1.35554e-05      14.1047 
          -5      13.5338   1.6888e-05  1.34128e-05      14.1046 
          -5      13.6468  1.68091e-05  1.33244e-05      14.1045 
          -5      13.7603  1.67599e-05  1.32715e-05      14.1044 
          -5      13.8743  1.67522e-05  1.32107e-05      14.1042 
          -5      13.9886  1.67995e-05  1.30683e-05      14.1041 
          -5      14.1036  1.69182e-05  1.27333e-05       14.104 
          -5      14.2189  1.69697e-05  1.24959e-05      14.1039 
          -5      14.3348  1.68327e-05  1.26437e-05      14.1038 
          -5       14.451  1.67141e-05  1.26521e-05      14.1036 
          -5      14.5678  1.66121e-05  1.25746e-05      14.1035 
          -5      14.6851  1.65245e-05   1.2454e-05      14.1034 
          -5      14.8028  1.64494e-05  1.23232e-05      14.1032 
          -5       14.921  1.63843e-05  1.22052e-05      14.1031 
          -5      15.0396  1.63272e-05  1.21144e-05       14.103 
          -5      15.1588   1.6276e-05  1.20567e-05      14.1028 
          -5      15.2783  1.62291e-05  1.20304e-05      14.1027 
          -5      15.3984  1.61853e-05   1.2027e-05      14.1025 
          -5       15.519  1.61438e-05   1.2032e-05      14.1024 
          -5        15.64  1.61044e-05  1.20257e-05      14.1023 
          -5      15.7615  1.60676e-05   1.1984e-05      14.1021 
          -5      15.8834  1.60345e-05  1.18802e-05      14.1019 
          -5      16.0058  1.60068e-05  1.16849e-05      14.1018 
          -5      16.1286  1.59312e-05  1.15953e-05      14.1016 
          -5       16.252  1.58893e-05  1.16405e-05      14.1015 
          -5      16.3759  1.59197e-05   1.1698e-05      14.1013 
          -5      16.5002  1.60062e-05  1.17503e-05      14.1011 
          -5       16.625  1.61278e-05  1.17806e-05       14.101 
          -5      16.7501  1.62599e-05  1.17746e-05      14.1008 
          -5      16.8759  1.63774e-05  1.17222e-05      14.1006 
          -5       17.002  1.64557e-05  1.16203e-05      14.1004 
          -5      17.1287  1.64752e-05  1.14756e-05      14.1003 
          -5      17.2557  1.64232e-05  1.13075e-05      14.1001 
          -5      17.3834  1.62984e-05  1.11515e-05      14.0999 
          -5      17.5115  1.61151e-05  1.10637e-05      14.0997 
          -5      17.6399   1.5908e-05  1.11243e-05      14.0995 
          -5       17.769   1.5737e-05   1.1443e-05      14.0993 
          -5      17.8984  1.54612e-05  1.08975e-05      14.0991 
          -5      18.0284   1.5265e-05  1.05551e-05      14.0989 
          -5      18.1587  1.51793e-05  1.04476e-05      14.0987 
          -5      18.2896  1.51966e-05  1.04841e-05      14.0985 
          -5       18.421  1.52967e-05   1.0589e-05      14.0983 
          -5      18.5528    1.545e-05  1.07012e-05      14.0981 
          -5      18.6851  1.56217e-05  1.07734e-05      14.0979 
          -5      18.8178  1.57745e-05  1.07717e-05      14.0977 
          -5      18.9511  1.58725e-05  1.06745e-05      14.0975 
          -5      19.0847  1.58841e-05  1.04721e-05      14.0972 
          -5      19.2189  1.57879e-05  1.03488e-05       14.097 
          -5      19.3535  1.56437e-05  1.05033e-05      14.0968 
          -5      19.4886  1.54985e-05  1.06137e-05      14.0966 
          -5      19.6242  1.53717e-05  1.06584e-05      14.0963 
          -5      19.7602  1.52736e-05  1.06274e-05      14.0961 
          -5      19.8968  1.52057e-05  1.05224e-05      14.0959 
          -5      20.0337  1.51629e-05  1.03558e-05      14.0956 
          -5      20.1712   1.5134e-05  1.01494e-05      14.0954 
          -5      20.3091  1.51048e-05  9.93186e-06      14.0951 
          -5      20.4475  1.50596e-05   9.7343e-06      14.0949 
          -5      20.5864  1.49847e-05  9.58614e-06      14.0946 
          -5      20.7257  1.48718e-05  9.50822e-06      14.0944 
          -5      20.8655  1.47217e-05  9.50508e-06      14.0941 
          -5      21.0058  1.45494e-05  9.55623e-06      14.0938 
          -5      21.1465  1.43884e-05  9.60535e-06      14.0936 
          -5      21.2877  1.42974e-05  9.54799e-06      14.0933 
          -5      21.4294   1.4366e-05   9.2175e-06       14.093 
          -5      21.5716  1.47227e-05  8.36935e-06      14.0928 
          -5      21.7142  1.44576e-05  8.74836e-06      14.0925 
          -5      21.8573  1.42182e-05  9.13524e-06      14.0922 
          -5      22.0008  1.41727e-05  9.20049e-06      14.0919 
          -5      22.1449  1.42488e-05  9.06692e-06      14.0916 
          -5      22.2893  1.43837e-05  8.83553e-06      14.0914 
          -5      22.4344  1.45253e-05  8.58412e-06      14.0911 
          -5      22.5797  1.46338e-05  8.36874e-06      14.0908 
          -5      22.7257  1.46833e-05  8.22355e-06      14.0905 
          -5      22.8721  1.46624e-05  8.16454e-06      14.0902 
          -5      23.0189  1.45756e-05  8.19255e-06      14.0899 
          -5      23.1663  1.44435e-05  8.29866e-06      14.0896 
          -5       23.314  1.43037e-05   8.4705e-06      14.0893 
          -5      23.4623   1.4225e-05  8.64828e-06      14.0889 
          -5       23.611  1.42947e-05  8.56574e-06      14.0886 
          -5      23.7602  1.44321e-05  8.41282e-06      14.0883 
          -5        23.91  1.46123e-05   8.2164e-06       14.088 
          -5        24.06  1.48099e-05  7.99947e-06      14.0877 
          -5      24.2107  1.50013e-05  7.78044e-06      14.0873 
          -5      24.3617   1.5165e-05  7.57428e-06       14.087 
          -5      24.5133  1.52841e-05  7.39126e-06      14.0867 
          -5      24.6653  1.53465e-05  7.23819e-06      14.0863 
          -5      24.8178  1.53466e-05  7.11747e-06       14.086 
          -5      24.9708  1.52854e-05   7.0281e-06      14.0856 
          -5      25.1242  1.51716e-05  6.96542e-06      14.0853 
          -5      25.2781  1.50212e-05  6.92132e-06      14.0849 
          -5      25.4324  1.48582e-05  6.88487e-06      14.0846 
          -5      25.5873  1.47136e-05  6.84237e-06      14.0842 
          -5      25.7426  1.46255e-05  6.77807e-06      14.0839 
          -5      25.8984  1.46376e-05  6.67433e-06      14.0835 
          -5      26.0546  1.47982e-05  6.51268e-06      14.0831 
          -5      26.2114  1.47862e-05  6.48356e-06      14.0828 
          -5      26.3686  1.45901e-05  6.49488e-06      14.0824 
          -5      26.5262  1.44112e-05  6.44021e-06       14.082 
          -5      26.6844  1.42477e-05  6.34996e-06      14.0816 
          -5      26.8429     1.41e-05  6.24647e-06      14.0813 
          -5       27.002  1.39693e-05  6.14472e-06      14.0809 
          -5      27.1615  1.38576e-05  6.05409e-06      14.0805 
          -5      27.3216   1.3767e-05  5.97894e-06      14.0801 
          -5      27.4821  1.36994e-05  5.92012e-06      14.0797 
          -5       27.643  1.36562e-05   5.8757e-06      14.0793 
          -5      27.8044  1.36377e-05  5.84187e-06      14.0789 
          -5      27.9663  1.36434e-05  5.81394e-06      14.0785 
          -5      28.1287  1.36715e-05  5.78691e-06      14.0781 
          -5      28.2914  1.37188e-05  5.75626e-06      14.0777 
          -5      28.4548  1.37813e-05  5.71833e-06      14.0772 
          -5      28.6185  1.38534e-05  5.67093e-06      14.0768 
          -5      28.7828  1.39293e-05  5.61344e-06      14.0764 
          -5      28.9475   1.4002e-05  5.54719e-06       14.076 
          -5      29.1126   1.4065e-05  5.47549e-06      14.0755 
          -5      29.2784  1.41119e-05  5.40325e-06      14.0751 
          -5      29.4444  1.41377e-05  5.33721e-06      14.0747 
          -5       29.611  1.41392e-05  5.28504e-06      14.0742 
          -5       29.778  1.41164e-05  5.25518e-06      14.0738 
          -5      29.9456  1.40729e-05  5.25577e-06      14.0733 
          -5      30.1137  1.40177e-05  5.29393e-06      14.0729 
          -5      30.2821  1.39664e-05  5.37437e-06      14.0724 
          -5      30.4511  1.39467e-05  5.48664e-06       14.072 
          -5      30.6204  1.40283e-05  5.41069e-06      14.0715 
          -5      30.7903  1.40942e-05   5.3936e-06       14.071 
          -5      30.9606   1.4143e-05  5.40749e-06      14.0706 
          -5      31.1315  1.41748e-05  5.42783e-06      14.0701 
          -5      31.3028  1.41903e-05  5.43482e-06      14.0696 
          -5      31.4745  1.41902e-05  5.41481e-06      14.0692 
          -5      31.6468  1.41752e-05  5.36155e-06      14.0687 
          -5      31.8194  1.41454e-05  5.27781e-06      14.0682 
          -5      31.9926  1.40992e-05  5.17642e-06      14.0677 
          -5      32.1662  1.40336e-05  5.08219e-06      14.0672 
          -5      32.3404  1.39423e-05  5.03286e-06      14.0667 
          -5      32.5149  1.38163e-05  5.08095e-06      14.0662 
          -5        32.69  1.36419e-05  5.29518e-06      14.0657 
          -5      32.8655  1.35983e-05  5.15538e-06      14.0652 
          -5      33.0414  1.36571e-05  4.74971e-06      14.0647 
          -5       33.218  1.36805e-05  4.51565e-06      14.0642 
          -5      33.3948  1.36849e-05  4.41868e-06      14.0637 
          -5      33.5723  1.36825e-05  4.42733e-06      14.0632 
          -5        33.75  1.36823e-05  4.51384e-06      14.0626 
          -5      33.9284  1.36903e-05    4.654e-06      14.0621 
          -5      34.1073  1.37095e-05   4.8267e-06      14.0616 
          -5      34.2865  1.37408e-05  5.01392e-06       14.061 
          -5      34.4663  1.37832e-05  5.20113e-06      14.0605 
          -5      34.6465  1.38337e-05  5.37615e-06        14.06 
          -5      34.8272  1.38887e-05  5.53008e-06      14.0594 
          -5      35.0083  1.39431e-05  5.65615e-06      14.0589 
          -5        35.19  1.39915e-05  5.75045e-06      14.0583 
          -5      35.3721  1.40282e-05  5.81104e-06      14.0578 
          -5      35.5546  1.40475e-05  5.83815e-06      14.0572 
          -5      35.7377   1.4044e-05  5.83398e-06      14.0566 
          -5      35.9211  1.40131e-05  5.80241e-06      14.0561 
          -5      36.1052  1.39506e-05  5.74873e-06      14.0555 
          -5      36.2895  1.38538e-05  5.67968e-06      14.0549 
          -5      36.4745  1.37211e-05  5.60285e-06      14.0544 
          -5      36.6598  1.35523e-05  5.52688e-06      14.0538 
          -5      36.8457  1.33488e-05  5.46079e-06      14.0532 
          -5      37.0321  1.31141e-05  5.41409e-06      14.0526 
          -5      37.2188  1.28534e-05  5.39633e-06       14.052 
          -5      37.4062  1.25735e-05  5.41681e-06      14.0514 
          -5      37.5938   1.2284e-05  5.48434e-06      14.0509 
          -5      37.7821  1.19958e-05  5.60711e-06      14.0503 
          -5      37.9707  1.17225e-05  5.79194e-06      14.0496 
          -5      38.1599  1.20589e-05   5.7735e-06       14.049 
          -5      38.3496  1.24124e-05  5.76657e-06      14.0484 
          -5      38.5396  1.27646e-05  5.75976e-06      14.0478 
          -5      38.7302  1.30995e-05  5.74289e-06      14.0472 
          -5      38.9211  1.34006e-05  5.70768e-06      14.0466 
          -5      39.1127  1.36534e-05  5.64764e-06       14.046 
          -5      39.3046  1.38443e-05  5.55836e-06      14.0453 
          -5      39.4971  1.39621e-05  5.43702e-06      14.0447 
          -5      39.6899  1.39982e-05   5.2829e-06      14.0441 
          -5      39.8833  1.39471e-05  5.09637e-06      14.0434 
          -5      40.0772  1.38072e-05  4.87951e-06      14.0428 
          -5      40.2714   1.3582e-05  4.63551e-06      14.0422 
          -5      40.4663  1.32795e-05  4.36763e-06      14.0415 
          -5      40.6615  1.29151e-05  4.08017e-06      14.0409 
          -5      40.8573    1.251e-05  3.77622e-06      14.0402 
          -5      41.0534  1.27325e-05  3.54913e-06      14.0395 
          -5      41.2501   1.3063e-05  3.42248e-06      14.0389 
          -5      41.4473  1.32536e-05  3.39447e-06      14.0382 
          -5      41.6448  1.32675e-05  3.47709e-06      14.0376 
          -5      41.8429  1.30675e-05  3.67873e-06      14.0369 
          -5      42.0414  1.26166e-05  4.00396e-06      14.0362 
          -5      42.2405  1.18774e-05  4.45535e-06      14.0355 
          -5      42.4399  1.11176e-05  4.88844e-06      14.0349 
          -5      42.6399   1.1353e-05  4.82704e-06      14.0342 
          -5      42.8404  1.15872e-05  4.75652e-06      14.0335 
          -5      43.0412  1.18137e-05   4.6791e-06      14.0328 
          -5      43.2426  1.20276e-05  4.59656e-06      14.0321 
          -5      43.4444  1.22244e-05  4.51073e-06      14.0314 
          -5      43.6467  1.24011e-05  4.42297e-06      14.0307 
          -5      43.8494   1.2555e-05  4.33471e-06        14.03 
          -5      44.0527  1.26852e-05  4.24691e-06      14.0293 
          -5      44.2563  1.27905e-05  4.16066e-06      14.0286 
          -5      44.4606  1.28714e-05  4.07659e-06      14.0279 
          -5      44.6653  1.29285e-05  3.99538e-06      14.0271 
          -5      44.8704  1.29631e-05  3.91759e-06      14.0264 
          -5       45.076  1.29772e-05  3.84344e-06      14.0257 
          -5       45.282  1.29731e-05  3.77331e-06       14.025 
          -5      45.4886  1.29535e-05  3.70723e-06      14.0242 
          -5      45.6955  1.29214e-05  3.64537e-06      14.0235 
          -5       45.903  1.28799e-05  3.58761e-06      14.0228 
          -5      46.1111  1.28324e-05  3.53396e-06       14.022 
          -5      46.3194  1.27822e-05  3.48433e-06      14.0213 
          -5      46.5283  1.27323e-05  3.43853e-06      14.0206 
          -5      46.7376   1.2686e-05  3.39647e-06      14.0198 
          -5      46.9475  1.26457e-05  3.35797e-06      14.0191 
          -5      47.1577  1.26139e-05  3.32297e-06      14.0183 
          -5      47.3685  1.25924e-05  3.29135e-06      14.0175 
          -5      47.5798  1.25821e-05  3.26311e-06      14.0168 
          -5      47.7914  1.25835e-05  3.23834e-06       14.016 
          -5      48.0037  1.25961e-05  3.21715e-06      14.0152 