Variables = x, y, u, v, p

Zone, I=800, F=POINT
         -25            0 -1.28386e-19 -1.19811e-24      6.33116 
         -25     0.000234  -6.3643e-06 -6.66094e-11      6.33116 
         -25     0.000939  -2.4023e-05 -3.39143e-10      6.33116 
         -25     0.002113 -4.87841e-05 -1.02708e-09      6.33116 
         -25     0.003759  -7.5048e-05  -2.4664e-09      6.33116 
         -25     0.005872  -9.7117e-05 -5.08705e-09      6.33116 
         -25     0.008457 -0.000111006 -9.40494e-09      6.33116 
         -25      0.01151 -0.000115339 -1.59741e-08      6.33116 
         -25     0.015036 -0.000111775 -2.53973e-08      6.33116 
         -25     0.019031 -0.000104301 -3.82741e-08      6.33116 
         -25     0.023493 -9.76958e-05 -5.52152e-08      6.33116 
         -25     0.028429   -9.552e-05 -7.68814e-08      6.33116 
         -25     0.033831  -9.8449e-05 -1.03885e-07      6.33116 
         -25     0.039706 -0.000103749 -1.36923e-07      6.33116 
         -25     0.046047 -0.000106679 -1.76619e-07      6.33116 
         -25     0.052863 -0.000103901 -2.23689e-07      6.33116 
         -25      0.06015 -9.75087e-05 -2.78751e-07      6.33116 
         -25       0.0679 -9.58866e-05 -3.42398e-07      6.33116 
         -25     0.076126 -0.000103532 -4.15549e-07      6.33116 
         -25     0.084816 -9.56564e-05  -4.9912e-07      6.33116 
         -25     0.093982 -9.73826e-05 -5.92363e-07      6.33116 
         -25     0.103611  -9.7166e-05 -6.96233e-07      6.33116 
         -25     0.113718 -9.59611e-05 -8.11149e-07      6.33116 
         -25     0.124286 -9.44557e-05  -9.3709e-07      6.33116 
         -25     0.135333 -9.30355e-05 -1.07436e-06      6.33116 
         -25      0.14685 -9.18125e-05 -1.22286e-06      6.33116 
         -25     0.158827 -9.06939e-05 -1.38238e-06      6.33116 
         -25     0.171284 -8.94975e-05 -1.55308e-06      6.33116 
         -25     0.184201 -8.80948e-05 -1.73451e-06      6.33116 
         -25     0.197599 -8.65187e-05 -1.92673e-06      6.33116 
         -25     0.211455 -8.50005e-05 -2.12917e-06      6.33115 
         -25     0.225792 -8.38036e-05 -2.34191e-06      6.33115 
         -25       0.2406 -8.27568e-05 -2.56452e-06      6.33115 
         -25     0.255865 -8.11715e-05 -2.79668e-06      6.33115 
         -25     0.271613 -8.00489e-05 -3.03829e-06      6.33115 
         -25     0.287818 -7.89388e-05 -3.28853e-06      6.33115 
         -25     0.304506 -7.78703e-05 -3.54783e-06      6.33115 
         -25      0.32165 -7.68698e-05 -3.81568e-06      6.33115 
         -25     0.339278 -7.59545e-05 -4.09239e-06      6.33115 
         -25     0.357377  -7.5138e-05 -4.37752e-06      6.33115 
         -25      0.37593 -7.44289e-05 -4.67051e-06      6.33115 
         -25     0.394968 -7.38296e-05 -4.97147e-06      6.33115 
         -25     0.414461 -7.33423e-05 -5.27953e-06      6.33115 
         -25      0.43444 -7.29663e-05 -5.59472e-06      6.33115 
         -25     0.454872 -7.27025e-05 -5.91605e-06      6.33115 
         -25     0.475791 -7.25524e-05 -6.24364e-06      6.33115 
         -25     0.497163 -7.25204e-05 -6.57655e-06      6.33115 
         -25     0.519021 -7.26123e-05 -6.91499e-06      6.33115 
         -25      0.54135  -7.2834e-05 -7.25854e-06      6.33114 
         -25     0.564131 -7.31866e-05 -7.60689e-06      6.33114 
         -25       0.5874  -7.3661e-05 -7.96079e-06      6.33114 
         -25     0.611121 -7.42295e-05 -8.31885e-06      6.33114 
         -25      0.63533 -7.49397e-05 -8.67259e-06      6.33114 
         -25      0.65999 -7.57585e-05 -9.03676e-06      6.33114 
         -25     0.685139 -7.66784e-05 -9.41288e-06      6.33114 
         -25     0.710759 -7.76882e-05 -9.80109e-06      6.33114 
         -25     0.736828 -7.87743e-05 -1.02009e-05      6.33113 
         -25     0.763387 -7.99247e-05 -1.06122e-05      6.33113 
         -25     0.790396 -8.11222e-05 -1.10332e-05      6.33113 
         -25     0.817896 -8.23523e-05 -1.14629e-05      6.33113 
         -25     0.845843 -8.35962e-05 -1.18987e-05      6.33113 
         -25     0.874283 -8.48387e-05  -1.2339e-05      6.33112 
         -25      0.90317 -8.60605e-05 -1.27807e-05      6.33112 
         -25     0.932551 -8.72471e-05 -1.32218e-05      6.33112 
         -25     0.962401 -8.83817e-05 -1.36597e-05      6.33112 
         -25     0.992697 -8.94492e-05 -1.40914e-05      6.33112 
         -25      1.02349  -9.0439e-05 -1.45158e-05      6.33111 
         -25      1.05472 -9.13393e-05 -1.49302e-05      6.33111 
         -25      1.08645 -9.21439e-05 -1.53341e-05      6.33111 
         -25      1.11863 -9.28467e-05 -1.57259e-05       6.3311 
         -25       1.1513 -9.34469e-05  -1.6106e-05       6.3311 
         -25      1.18444 -9.39451e-05  -1.6474e-05       6.3311 
         -25      1.21802 -9.43446e-05 -1.68303e-05      6.33109 
         -25      1.25211 -9.46521e-05  -1.7176e-05      6.33109 
         -25      1.28663 -9.48748e-05 -1.75112e-05      6.33109 
         -25      1.32165  -9.5021e-05 -1.78365e-05      6.33108 
         -25      1.35712 -9.50976e-05 -1.81506e-05      6.33108 
         -25      1.39308 -9.51089e-05 -1.84514e-05      6.33108 
         -25      1.42951 -9.50536e-05 -1.87334e-05      6.33107 
         -25      1.46638 -9.49219e-05 -1.89878e-05      6.33107 
         -25      1.50375 -9.46914e-05 -1.92009e-05      6.33106 
         -25      1.54156  -9.4598e-05 -1.95445e-05      6.33106 
         -25      1.57987 -9.43816e-05 -1.98246e-05      6.33105 
         -25      1.61863 -9.40498e-05 -2.00404e-05      6.33105 
         -25      1.65788 -9.36294e-05 -2.02055e-05      6.33104 
         -25      1.69757 -9.31467e-05  -2.0332e-05      6.33104 
         -25      1.73776 -9.26254e-05 -2.04312e-05      6.33103 
         -25      1.77842 -9.20884e-05 -2.05127e-05      6.33102 
         -25      1.81952 -9.15571e-05 -2.05848e-05      6.33102 
         -25      1.86113 -9.10495e-05 -2.06547e-05      6.33101 
         -25      1.90316 -9.05833e-05 -2.07279e-05      6.33101 
         -25      1.94571 -9.01726e-05 -2.08089e-05        6.331 
         -25      1.98869 -8.98305e-05 -2.09003e-05      6.33099 
         -25      2.03217  -8.9567e-05 -2.10041e-05      6.33098 
         -25      2.07612 -8.93903e-05 -2.11205e-05      6.33098 
         -25      2.12051 -8.93063e-05 -2.12485e-05      6.33097 
         -25       2.1654 -8.93182e-05 -2.13865e-05      6.33096 
         -25      2.21073 -8.94273e-05 -2.15312e-05      6.33095 
         -25      2.25656 -8.96326e-05 -2.16792e-05      6.33095 
         -25      2.30283 -8.99308e-05 -2.18254e-05      6.33094 
         -25       2.3496  -9.0317e-05 -2.19649e-05      6.33093 
         -25      2.39685 -9.07839e-05 -2.20919e-05      6.33092 
         -25      2.44452 -9.13223e-05 -2.22002e-05      6.33091 
         -25      2.49271 -9.19224e-05 -2.22837e-05       6.3309 
         -25      2.54132 -9.25716e-05 -2.23362e-05      6.33089 
         -25      2.59044 -9.32579e-05 -2.23518e-05      6.33088 
         -25         2.64 -9.39665e-05 -2.23249e-05      6.33087 
         -25      2.69006  -9.4684e-05 -2.22504e-05      6.33086 
         -25      2.74056 -9.53948e-05 -2.21243e-05      6.33085 
         -25      2.79156 -9.60854e-05 -2.19432e-05      6.33083 
         -25      2.84304 -9.67411e-05 -2.17049e-05      6.33082 
         -25      2.89494 -9.73484e-05 -2.14089e-05      6.33081 
         -25      2.94735 -9.78961e-05 -2.10551e-05       6.3308 
         -25       3.0002 -9.83734e-05 -2.06462e-05      6.33078 
         -25      3.05355  -9.8773e-05 -2.01851e-05      6.33077 
         -25      3.10733 -9.90889e-05 -1.96778e-05      6.33076 
         -25      3.16163 -9.93196e-05 -1.91301e-05      6.33074 
         -25      3.21639 -9.94664e-05 -1.85509e-05      6.33073 
         -25      3.27158 -9.95352e-05 -1.79505e-05      6.33072 
         -25      3.32729 -9.95367e-05 -1.73387e-05       6.3307 
         -25      3.38342 -9.94867e-05 -1.67286e-05      6.33068 
         -25      3.44007 -9.94069e-05 -1.61317e-05      6.33067 
         -25      3.49714 -9.93256e-05 -1.55616e-05      6.33065 
         -25      3.55472 -9.92776e-05 -1.50297e-05      6.33064 
         -25      3.61273 -9.93053e-05 -1.45478e-05      6.33062 
         -25      3.67125 -9.94591e-05 -1.41243e-05       6.3306 
         -25      3.73025 -9.97974e-05 -1.37658e-05      6.33058 
         -25      3.78967 -0.000100012 -1.34379e-05      6.33057 
         -25      3.84961 -9.99814e-05 -1.31291e-05      6.33055 
         -25      3.90996 -9.98733e-05 -1.28697e-05      6.33053 
         -25      3.97084  -9.9729e-05 -1.26706e-05      6.33051 
         -25      4.03214 -9.95793e-05 -1.25359e-05      6.33049 
         -25      4.09395 -9.94452e-05 -1.24631e-05      6.33047 
         -25      4.15624 -9.93395e-05 -1.24453e-05      6.33045 
         -25      4.21895 -9.92687e-05  -1.2472e-05      6.33043 
         -25      4.28217 -9.92334e-05 -1.25307e-05       6.3304 
         -25      4.34582 -9.92307e-05  -1.2608e-05      6.33038 
         -25      4.40998 -9.92555e-05 -1.26908e-05      6.33036 
         -25      4.47457 -9.93012e-05  -1.2767e-05      6.33034 
         -25      4.53968 -9.93617e-05  -1.2827e-05      6.33031 
         -25      4.60525 -9.94319e-05 -1.28635e-05      6.33029 
         -25      4.67125 -9.95088e-05 -1.28723e-05      6.33026 
         -25      4.73777 -9.95923e-05 -1.28524e-05      6.33024 
         -25       4.8047 -9.96856e-05 -1.28054e-05      6.33021 
         -25      4.87216 -9.97954e-05 -1.27353e-05      6.33019 
         -25      4.94003 -9.99313e-05 -1.26471e-05      6.33016 
         -25      5.00843 -0.000100106 -1.25449e-05      6.33013 
         -25      5.07724 -0.000100334 -1.24308e-05       6.3301 
         -25      5.14658 -0.000100629 -1.23006e-05      6.33007 
         -25      5.21639 -0.000101004 -1.21419e-05      6.33005 
         -25      5.28661 -0.000101465 -1.19286e-05      6.33002 
         -25      5.35736 -0.000102014 -1.16164e-05      6.32999 
         -25      5.42852 -0.000102248 -1.12866e-05      6.32995 
         -25      5.50021 -0.000101963 -1.10569e-05      6.32992 
         -25      5.57231 -0.000101602 -1.07803e-05      6.32989 
         -25      5.64493 -0.000101182 -1.09718e-05      6.32986 
         -25      5.71803 -0.000100813 -1.16533e-05      6.32982 
         -25      5.79154 -0.000100475  -1.2071e-05      6.32979 
         -25      5.86558 -0.000100165 -1.22767e-05      6.32975 
         -25      5.94003 -9.98819e-05 -1.23198e-05      6.32972 
         -25      6.01501 -9.96249e-05 -1.22478e-05      6.32968 
         -25       6.0904 -9.93969e-05 -1.21045e-05      6.32965 
         -25      6.16632 -9.92013e-05  -1.1929e-05      6.32961 
         -25      6.24271 -9.90427e-05 -1.17549e-05      6.32957 
         -25       6.3195 -9.89319e-05 -1.16305e-05      6.32953 
         -25      6.39683 -9.88479e-05 -1.16486e-05      6.32949 
         -25      6.47457 -9.87811e-05 -1.17834e-05      6.32945 
         -25      6.55284 -9.87421e-05 -1.19938e-05      6.32941 
         -25      6.63152   -9.874e-05 -1.22335e-05      6.32937 
         -25      6.71073   -9.878e-05 -1.24575e-05      6.32933 
         -25      6.79034 -9.88636e-05 -1.26261e-05      6.32928 
         -25      6.87049 -9.89874e-05 -1.27107e-05      6.32924 
         -25      6.95111 -9.91433e-05 -1.26953e-05      6.32919 
         -25      7.03214 -9.93186e-05 -1.25799e-05      6.32915 
         -25       7.1137 -9.94974e-05   -1.238e-05       6.3291 
         -25      7.19566 -9.96617e-05 -1.21267e-05      6.32906 
         -25      7.27816 -9.97942e-05 -1.18628e-05      6.32901 
         -25      7.36106 -9.98802e-05 -1.16396e-05      6.32896 
         -25      7.44451  -9.9913e-05 -1.15087e-05      6.32891 
         -25      7.52842 -9.98971e-05 -1.15141e-05      6.32886 
         -25      7.61273  -9.9855e-05 -1.16792e-05      6.32881 
         -25      7.69758 -9.98332e-05 -1.19935e-05      6.32875 
         -25      7.78283 -9.99107e-05 -1.23934e-05       6.3287 
         -25      7.86862  -9.9715e-05 -1.25372e-05      6.32865 
         -25      7.95481 -9.92382e-05 -1.21547e-05      6.32859 
         -25      8.04155 -9.91944e-05 -1.19594e-05      6.32854 
         -25      8.12868 -9.95124e-05 -1.21246e-05      6.32848 
         -25      8.21635 -9.96092e-05  -1.2013e-05      6.32842 
         -25      8.30449 -9.95761e-05 -1.20082e-05      6.32837 
         -25      8.39303 -9.94236e-05 -1.21222e-05      6.32831 
         -25      8.48211 -9.91629e-05 -1.23608e-05      6.32825 
         -25      8.57159 -9.88067e-05 -1.27239e-05      6.32818 
         -25      8.66161 -9.83661e-05 -1.32082e-05      6.32812 
         -25      8.75203 -9.78528e-05 -1.38066e-05      6.32806 
         -25      8.84299 -9.78223e-05 -1.37572e-05        6.328 
         -25      8.93443 -9.80784e-05 -1.34451e-05      6.32793 
         -25      9.02626 -9.83492e-05 -1.32179e-05      6.32786 
         -25      9.11863 -9.86119e-05 -1.30588e-05       6.3278 
         -25      9.21139 -9.88462e-05 -1.29535e-05      6.32773 
         -25      9.30471  -9.9037e-05   -1.289e-05      6.32766 
         -25      9.39841 -9.91727e-05 -1.28587e-05      6.32759 
         -25      9.49267 -9.92474e-05 -1.28518e-05      6.32752 
         -25      9.58739 -9.92597e-05 -1.28639e-05      6.32745 
         -25      9.68251 -9.92131e-05  -1.2891e-05      6.32738 
         -25      9.77817 -9.91158e-05 -1.29311e-05       6.3273 
         -25      9.87422 -9.89799e-05 -1.29834e-05      6.32723 
         -25      9.97083 -9.88207e-05 -1.30482e-05      6.32715 
         -25      10.0678 -9.86557e-05 -1.31265e-05      6.32707 
         -25      10.1654 -9.85026e-05 -1.32196e-05      6.32699 
         -25      10.2633 -9.83787e-05 -1.33286e-05      6.32691 
         -25      10.3618 -9.82975e-05 -1.34542e-05      6.32683 
         -25      10.4607  -9.8267e-05 -1.35956e-05      6.32675 
         -25      10.5601 -9.82865e-05 -1.37501e-05      6.32667 
         -25        10.66 -9.83434e-05 -1.39126e-05      6.32658 
         -25      10.7603 -9.84089e-05 -1.40744e-05       6.3265 
         -25      10.8611  -9.8434e-05 -1.42228e-05      6.32641 
         -25      10.9623 -9.83446e-05 -1.43395e-05      6.32632 
         -25      11.0641 -9.80354e-05 -1.44002e-05      6.32623 
         -25      11.1663  -9.7742e-05 -1.43796e-05      6.32614 
         -25       11.269 -9.79017e-05 -1.43642e-05      6.32605 
         -25      11.3721 -9.80051e-05 -1.43609e-05      6.32596 
         -25      11.4757 -9.80859e-05 -1.43429e-05      6.32587 
         -25      11.5798 -9.81656e-05 -1.42953e-05      6.32577 
         -25      11.6844 -9.82549e-05 -1.42138e-05      6.32567 
         -25      11.7894 -9.83566e-05 -1.41033e-05      6.32558 
         -25       11.895 -9.84675e-05 -1.39771e-05      6.32548 
         -25      12.0009 -9.85799e-05 -1.38554e-05      6.32538 
         -25      12.1073 -9.86845e-05 -1.37638e-05      6.32528 
         -25      12.2142 -9.87716e-05 -1.37327e-05      6.32517 
         -25      12.3216 -9.88328e-05 -1.37957e-05      6.32507 
         -25      12.4294 -9.88628e-05 -1.39883e-05      6.32496 
         -25      12.5378 -9.88607e-05 -1.43474e-05      6.32486 
         -25      12.6465  -9.8831e-05 -1.49091e-05      6.32475 
         -25      12.7558 -9.87661e-05 -1.53268e-05      6.32464 
         -25      12.8656 -9.86256e-05 -1.51768e-05      6.32453 
         -25      12.9757 -9.84527e-05 -1.51611e-05      6.32442 
         -25      13.0864 -9.82703e-05 -1.52582e-05       6.3243 
         -25      13.1975 -9.80967e-05  -1.5444e-05      6.32419 
         -25      13.3092 -9.79444e-05  -1.5694e-05      6.32407 
         -25      13.4212 -9.78221e-05 -1.59828e-05      6.32395 
         -25      13.5338 -9.77343e-05 -1.62868e-05      6.32383 
         -25      13.6468 -9.76829e-05  -1.6584e-05      6.32371 
         -25      13.7603 -9.76679e-05 -1.68554e-05      6.32359 
         -25      13.8743 -9.76883e-05 -1.70873e-05      6.32347 
         -25      13.9886 -9.77434e-05 -1.72708e-05      6.32334 
         -25      14.1036 -9.78346e-05 -1.74044e-05      6.32322 
         -25      14.2189 -9.79659e-05 -1.74946e-05      6.32309 
         -25      14.3348  -9.8147e-05 -1.75577e-05      6.32296 
         -25       14.451 -9.83936e-05 -1.76205e-05      6.32283 
         -25      14.5678  -9.8731e-05 -1.77225e-05       6.3227 
         -25      14.6851 -9.84228e-05  -1.7862e-05      6.32256 
         -25      14.8028 -9.79964e-05 -1.79689e-05      6.32243 
         -25       14.921 -9.77135e-05 -1.80659e-05      6.32229 
         -25      15.0396 -9.75377e-05 -1.81706e-05      6.32215 
         -25      15.1588 -9.74378e-05 -1.82946e-05      6.32201 
         -25      15.2783 -9.73887e-05 -1.84436e-05      6.32187 
         -25      15.3984 -9.73702e-05 -1.86194e-05      6.32172 
         -25       15.519  -9.7367e-05 -1.88202e-05      6.32158 
         -25        15.64 -9.73679e-05 -1.90412e-05      6.32143 
         -25      15.7615 -9.73654e-05 -1.92767e-05      6.32128 
         -25      15.8834 -9.73553e-05 -1.95192e-05      6.32113 
         -25      16.0058 -9.73362e-05 -1.97616e-05      6.32098 
         -25      16.1286 -9.73089e-05 -1.99965e-05      6.32083 
         -25       16.252 -9.72759e-05 -2.02177e-05      6.32067 
         -25      16.3759 -9.72411e-05   -2.042e-05      6.32052 
         -25      16.5002 -9.72092e-05 -2.05995e-05      6.32036 
         -25       16.625 -9.71851e-05 -2.07544e-05       6.3202 
         -25      16.7501 -9.71739e-05 -2.08837e-05      6.32004 
         -25      16.8759 -9.71798e-05 -2.09886e-05      6.31987 
         -25       17.002 -9.72062e-05  -2.1071e-05      6.31971 
         -25      17.1287 -9.72549e-05 -2.11338e-05      6.31954 
         -25      17.2557 -9.73259e-05 -2.11795e-05      6.31937 
         -25      17.3834 -9.74173e-05   -2.121e-05       6.3192 
         -25      17.5115 -9.75243e-05 -2.12253e-05      6.31903 
         -25      17.6399 -9.76392e-05  -2.1222e-05      6.31886 
         -25       17.769 -9.77514e-05 -2.11921e-05      6.31868 
         -25      17.8984 -9.77638e-05 -2.13721e-05      6.31851 
         -25      18.0284  -9.7632e-05 -2.17926e-05      6.31833 
         -25      18.1587 -9.74331e-05 -2.21925e-05      6.31815 
         -25      18.2896  -9.7181e-05 -2.25127e-05      6.31796 
         -25       18.421 -9.68898e-05 -2.26772e-05      6.31778 
         -25      18.5528 -9.65726e-05  -2.2594e-05      6.31759 
         -25      18.6851 -9.62387e-05 -2.21535e-05       6.3174 
         -25      18.8178  -9.5894e-05 -2.12289e-05      6.31721 
         -25      18.9511 -9.58562e-05 -2.13325e-05      6.31702 
         -25      19.0847 -9.58611e-05 -2.17371e-05      6.31683 
         -25      19.2189 -9.57692e-05 -2.19164e-05      6.31663 
         -25      19.3535  -9.5577e-05 -2.19158e-05      6.31643 
         -25      19.4886 -9.52841e-05 -2.17772e-05      6.31623 
         -25      19.6242 -9.51889e-05 -2.16705e-05      6.31603 
         -25      19.7602 -9.54954e-05 -2.17003e-05      6.31583 
         -25      19.8968  -9.5681e-05 -2.16577e-05      6.31562 
         -25      20.0337 -9.57648e-05 -2.15782e-05      6.31542 
         -25      20.1712 -9.57666e-05 -2.14889e-05      6.31521 
         -25      20.3091 -9.57057e-05 -2.14102e-05        6.315 
         -25      20.4475 -9.56005e-05 -2.13554e-05      6.31479 
         -25      20.5864 -9.54678e-05 -2.13327e-05      6.31457 
         -25      20.7257 -9.53227e-05 -2.13449e-05      6.31435 
         -25      20.8655 -9.51775e-05 -2.13909e-05      6.31413 
         -25      21.0058 -9.50422e-05 -2.14661e-05      6.31391 
         -25      21.1465 -9.49237e-05 -2.15634e-05      6.31369 
         -25      21.2877 -9.48263e-05 -2.16738e-05      6.31347 
         -25      21.4294  -9.4751e-05 -2.17879e-05      6.31324 
         -25      21.5716 -9.46963e-05 -2.18956e-05      6.31301 
         -25      21.7142 -9.46581e-05 -2.19877e-05      6.31278 
         -25      21.8573 -9.46301e-05 -2.20566e-05      6.31255 
         -25      22.0008 -9.46043e-05 -2.20969e-05      6.31231 
         -25      22.1449 -9.45721e-05 -2.21064e-05      6.31207 
         -25      22.2893 -9.45246e-05 -2.20869e-05      6.31184 
         -25      22.4344 -9.44538e-05 -2.20448e-05      6.31159 
         -25      22.5797 -9.43542e-05 -2.19918e-05      6.31135 
         -25      22.7257 -9.42233e-05  -2.1946e-05      6.31111 
         -25      22.8721 -9.40643e-05 -2.19326e-05      6.31086 
         -25      23.0189 -9.38871e-05 -2.19842e-05      6.31061 
         -25      23.1663 -9.37103e-05 -2.21419e-05      6.31036 
         -25       23.314 -9.35641e-05 -2.24555e-05      6.31011 
         -25      23.4623 -9.34923e-05 -2.29854e-05      6.30985 
         -25       23.611  -9.3555e-05 -2.38004e-05      6.30959 
         -25      23.7602 -9.35095e-05 -2.39927e-05      6.30933 
         -25        23.91 -9.32759e-05 -2.33777e-05      6.30907 
         -25        24.06 -9.31528e-05 -2.30444e-05      6.30881 
         -25      24.2107 -9.30816e-05  -2.2911e-05      6.30854 
         -25      24.3617 -9.30213e-05 -2.29121e-05      6.30827 
         -25      24.5133 -9.29455e-05 -2.29961e-05        6.308 
         -25      24.6653 -9.28402e-05 -2.31238e-05      6.30773 
         -25      24.8178 -9.27008e-05 -2.32666e-05      6.30745 
         -25      24.9708 -9.25305e-05 -2.34051e-05      6.30718 
         -25      25.1242 -9.23379e-05 -2.35272e-05       6.3069 
         -25      25.2781 -9.21346e-05 -2.36272e-05      6.30662 
         -25      25.4324 -9.19344e-05 -2.37039e-05      6.30633 
         -25      25.5873 -9.17504e-05 -2.37597e-05      6.30605 
         -25      25.7426 -9.15948e-05 -2.37994e-05      6.30576 
         -25      25.8984 -9.14769e-05 -2.38288e-05      6.30547 
         -25      26.0546 -9.14027e-05 -2.38542e-05      6.30518 
         -25      26.2114 -9.13735e-05 -2.38814e-05      6.30488 
         -25      26.3686 -9.13865e-05 -2.39151e-05      6.30459 
         -25      26.5262 -9.14337e-05 -2.39581e-05      6.30429 
         -25      26.6844 -9.15025e-05 -2.40115e-05      6.30399 
         -25      26.8429 -9.15762e-05  -2.4074e-05      6.30368 
         -25       27.002  -9.1635e-05 -2.41423e-05      6.30338 
         -25      27.1615 -9.16568e-05 -2.42108e-05      6.30307 
         -25      27.3216 -9.16193e-05 -2.42728e-05      6.30276 
         -25      27.4821 -9.15016e-05 -2.43202e-05      6.30245 
         -25       27.643 -9.12874e-05 -2.43452e-05      6.30213 
         -25      27.8044 -9.09665e-05 -2.43408e-05      6.30182 
         -25      27.9663 -9.05403e-05 -2.43027e-05       6.3015 
         -25      28.1287 -9.00232e-05 -2.42302e-05      6.30118 
         -25      28.2914 -8.94499e-05 -2.41291e-05      6.30085 
         -25      28.4548 -8.88774e-05 -2.40132e-05      6.30053 
         -25      28.6185 -8.83937e-05 -2.39071e-05       6.3002 
         -25      28.7828 -8.86577e-05 -2.39363e-05      6.29987 
         -25      28.9475 -9.01213e-05  -2.4446e-05      6.29954 
         -25      29.1126 -9.17746e-05 -2.54312e-05       6.2992 
         -25      29.2784 -9.08016e-05 -2.50268e-05      6.29886 
         -25      29.4444  -9.0067e-05  -2.4651e-05      6.29853 
         -25       29.611 -8.99199e-05 -2.44914e-05      6.29818 
         -25       29.778 -8.97754e-05 -2.43573e-05      6.29784 
         -25      29.9456 -8.96211e-05 -2.42873e-05      6.29749 
         -25      30.1137 -8.94599e-05 -2.42884e-05      6.29715 
         -25      30.2821 -8.92947e-05 -2.43578e-05      6.29679 
         -25      30.4511 -8.91278e-05  -2.4486e-05      6.29644 
         -25      30.6204  -8.8962e-05 -2.46586e-05      6.29609 
         -25      30.7903 -8.87996e-05 -2.48588e-05      6.29573 
         -25      30.9606 -8.86431e-05 -2.50687e-05      6.29537 
         -25      31.1315 -8.84946e-05 -2.52718e-05      6.29501 
         -25      31.3028 -8.83561e-05 -2.54533e-05      6.29464 
         -25      31.4745 -8.82297e-05 -2.56019e-05      6.29428 
         -25      31.6468 -8.81166e-05 -2.57109e-05      6.29391 
         -25      31.8194 -8.80184e-05 -2.57779e-05      6.29354 
         -25      31.9926 -8.79353e-05  -2.5806e-05      6.29316 
         -25      32.1662 -8.78676e-05 -2.58029e-05      6.29279 
         -25      32.3404 -8.78144e-05 -2.57811e-05      6.29241 
         -25      32.5149  -8.7774e-05 -2.57567e-05      6.29203 
         -25        32.69 -8.77434e-05 -2.57482e-05      6.29165 
         -25      32.8655 -8.77183e-05 -2.57754e-05      6.29126 
         -25      33.0414 -8.76928e-05 -2.58564e-05      6.29088 
         -25       33.218 -8.76589e-05 -2.60062e-05      6.29049 
         -25      33.3948 -8.76064e-05 -2.62329e-05       6.2901 
         -25      33.5723 -8.75226e-05 -2.65347e-05       6.2897 
         -25        33.75 -8.73919e-05 -2.68953e-05      6.28931 
         -25      33.9284  -8.7195e-05 -2.72806e-05      6.28891 
         -25      34.1073 -8.69092e-05  -2.7632e-05      6.28851 
         -25      34.2865 -8.65077e-05 -2.78614e-05       6.2881 
         -25      34.4663  -8.5975e-05 -2.77971e-05       6.2877 
         -25      34.6465 -8.55845e-05 -2.75093e-05      6.28729 
         -25      34.8272 -8.54016e-05   -2.737e-05      6.28688 
         -25      35.0083 -8.53865e-05 -2.73333e-05      6.28647 
         -25        35.19 -8.54952e-05 -2.73615e-05      6.28605 
         -25      35.3721 -8.56826e-05 -2.74247e-05      6.28564 
         -25      35.5546 -8.59044e-05    -2.75e-05      6.28522 
         -25      35.7377 -8.61196e-05 -2.75717e-05       6.2848 
         -25      35.9211 -8.62914e-05 -2.76295e-05      6.28438 
         -25      36.1052 -8.63901e-05 -2.76691e-05      6.28395 
         -25      36.2895 -8.63929e-05 -2.76906e-05      6.28352 
         -25      36.4745 -8.62863e-05 -2.76983e-05      6.28309 
         -25      36.6598 -8.60663e-05    -2.77e-05      6.28266 
         -25      36.8457 -8.57389e-05 -2.77061e-05      6.28223 
         -25      37.0321 -8.53208e-05 -2.77286e-05      6.28179 
         -25      37.2188 -8.48394e-05 -2.77809e-05      6.28135 
         -25      37.4062  -8.4331e-05 -2.78765e-05      6.28091 
         -25      37.5938 -8.38428e-05 -2.80281e-05      6.28047 
         -25      37.7821 -8.34285e-05 -2.82471e-05      6.28002 
         -25      37.9707 -8.31501e-05 -2.85419e-05      6.27957 
         -25      38.1599 -8.30734e-05 -2.89183e-05      6.27913 
         -25      38.3496 -8.32675e-05 -2.93769e-05      6.27867 
         -25      38.5396 -8.35904e-05 -2.92584e-05      6.27822 
         -25      38.7302 -8.36104e-05 -2.85954e-05      6.27776 
         -25      38.9211 -8.34999e-05 -2.83046e-05       6.2773 
         -25      39.1127 -8.33123e-05 -2.82858e-05      6.27684 
         -25      39.3046 -8.30959e-05 -2.84402e-05      6.27638 
         -25      39.4971 -8.28891e-05 -2.86745e-05      6.27592 
         -25      39.6899  -8.2719e-05 -2.89051e-05      6.27545 
         -25      39.8833 -8.25962e-05 -2.90647e-05      6.27498 
         -25      40.0772 -8.25122e-05 -2.91065e-05      6.27451 
         -25      40.2714 -8.24345e-05 -2.90123e-05      6.27404 
         -25      40.4663 -8.23026e-05  -2.8799e-05      6.27356 
         -25      40.6615 -8.20231e-05 -2.85268e-05      6.27308 
         -25      40.8573 -8.14643e-05 -2.83066e-05       6.2726 
         -25      41.0534 -8.11803e-05 -2.82763e-05      6.27212 
         -25      41.2501 -8.15714e-05 -2.83462e-05      6.27164 
         -25      41.4473 -8.17826e-05 -2.84741e-05      6.27115 
         -25      41.6448 -8.18498e-05 -2.86456e-05      6.27066 
         -25      41.8429 -8.18053e-05 -2.88485e-05      6.27017 
         -25      42.0414 -8.16776e-05  -2.9071e-05      6.26968 
         -25      42.2405 -8.14915e-05 -2.93033e-05      6.26919 
         -25      42.4399 -8.12686e-05 -2.95362e-05      6.26869 
         -25      42.6399 -8.10266e-05 -2.97624e-05      6.26819 
         -25      42.8404 -8.07808e-05 -2.99752e-05      6.26769 
         -25      43.0412 -8.05432e-05 -3.01691e-05      6.26719 
         -25      43.2426 -8.03226e-05   -3.034e-05      6.26669 
         -25      43.4444 -8.01259e-05 -3.04845e-05      6.26618 
         -25      43.6467 -7.99568e-05 -3.06002e-05      6.26567 
         -25      43.8494 -7.98174e-05 -3.06857e-05      6.26516 
         -25      44.0527 -7.97071e-05 -3.07404e-05      6.26465 
         -25      44.2563  -7.9624e-05 -3.07644e-05      6.26413 
         -25      44.4606 -7.95642e-05 -3.07587e-05      6.26362 
         -25      44.6653 -7.95226e-05 -3.07246e-05       6.2631 
         -25      44.8704 -7.94927e-05 -3.06645e-05      6.26258 
         -25       45.076 -7.94673e-05 -3.05807e-05      6.26206 
         -25       45.282 -7.94384e-05 -3.04765e-05      6.26153 
         -25      45.4886 -7.93975e-05 -3.03549e-05      6.26101 
         -25      45.6955 -7.93362e-05 -3.02198e-05      6.26048 
         -25       45.903 -7.92458e-05 -3.00747e-05      6.25995 
         -25      46.1111 -7.91185e-05 -2.99234e-05      6.25942 
         -25      46.3194 -7.89469e-05   -2.977e-05      6.25889 
         -25      46.5283 -7.87245e-05 -2.96177e-05      6.25835 
         -25      46.7376 -7.84467e-05 -2.94702e-05      6.25782 
         -25      46.9475 -7.81098e-05 -2.93303e-05      6.25728 
         -25      47.1577 -7.77129e-05 -2.92009e-05      6.25674 
         -25      47.3685 -7.72565e-05 -2.90836e-05      6.25619 
         -25      47.5798 -7.67446e-05 -2.89799e-05      6.25565 
         -25      47.7914 -7.61845e-05 -2.88903e-05       6.2551 
         -25      48.0037 -7.56061e-05 -2.88263e-05      6.25456 