Variables = x, y, u, v, p

Zone, I=800, F=POINT
         -70            0           -0           -0     -40.2335 
         -70     0.000234 -2.65021e-07 -2.42468e-09     -40.2335 
         -70     0.000939 -5.95563e-07 -9.12299e-09     -40.2335 
         -70     0.002113  2.25699e-07 -1.84086e-08     -40.2335 
         -70     0.003759  3.66305e-06  -2.7996e-08     -40.2335 
         -70     0.005872  1.07442e-05 -3.55035e-08     -40.2335 
         -70     0.008457  2.15072e-05 -3.91498e-08     -40.2335 
         -70      0.01151  3.46467e-05 -3.81314e-08     -40.2335 
         -70     0.015036  4.77503e-05 -3.28207e-08     -40.2335 
         -70     0.019031  5.79074e-05 -2.45781e-08     -40.2335 
         -70     0.023493  6.28195e-05 -1.52308e-08     -40.2335 
         -70     0.028429  6.18671e-05 -6.35587e-09     -40.2335 
         -70     0.033831  5.67209e-05  1.28612e-09     -40.2335 
         -70     0.039706  5.09741e-05  8.03001e-09     -40.2335 
         -70     0.046047  4.84684e-05  1.48404e-08     -40.2335 
         -70     0.052863  5.05292e-05   2.2256e-08     -40.2335 
         -70      0.06015  5.35537e-05  2.90725e-08     -40.2335 
         -70       0.0679   5.0229e-05  3.22546e-08     -40.2335 
         -70     0.076126  4.06723e-05  3.07948e-08     -40.2335 
         -70     0.084816  5.20667e-05  3.47554e-08     -40.2335 
         -70     0.093982  4.58702e-05  3.08373e-08     -40.2335 
         -70     0.103611  4.37814e-05  2.30892e-08     -40.2335 
         -70     0.113718  4.36281e-05  1.29936e-08     -40.2335 
         -70     0.124286  4.38724e-05  9.24926e-10     -40.2334 
         -70     0.135333   4.3672e-05 -1.37132e-08     -40.2334 
         -70      0.14685  4.28281e-05 -3.19763e-08     -40.2334 
         -70     0.158827  4.16143e-05 -5.47615e-08     -40.2334 
         -70     0.171284  4.04979e-05  -8.2169e-08     -40.2334 
         -70     0.184201  3.98264e-05 -1.12799e-07     -40.2334 
         -70     0.197599  3.95541e-05 -1.43839e-07     -40.2334 
         -70     0.211455  3.91841e-05 -1.71768e-07     -40.2334 
         -70     0.225792  3.81346e-05 -1.95105e-07     -40.2334 
         -70       0.2406  3.68564e-05 -2.19407e-07     -40.2334 
         -70     0.255865  3.69754e-05 -2.37048e-07     -40.2333 
         -70     0.271613  3.61031e-05 -2.30886e-07     -40.2333 
         -70     0.287818  3.53559e-05 -2.21949e-07     -40.2333 
         -70     0.304506  3.46738e-05 -1.97991e-07     -40.2333 
         -70      0.32165  3.40171e-05 -1.58475e-07     -40.2333 
         -70     0.339278  3.33617e-05 -1.13001e-07     -40.2332 
         -70     0.357377  3.27016e-05 -7.91695e-08     -40.2332 
         -70      0.37593  3.20438e-05 -7.92375e-08     -40.2332 
         -70     0.394968  3.14034e-05 -1.36219e-07     -40.2332 
         -70     0.414461   3.0802e-05 -2.69354e-07     -40.2331 
         -70      0.43444  3.02589e-05 -4.89949e-07     -40.2331 
         -70     0.454872   2.9789e-05 -7.96229e-07     -40.2331 
         -70     0.475791   2.9396e-05 -1.17151e-06      -40.233 
         -70     0.497163  2.90725e-05 -1.58079e-06      -40.233 
         -70     0.519021  2.87985e-05 -1.97438e-06     -40.2329 
         -70      0.54135  2.85494e-05 -2.29127e-06     -40.2329 
         -70     0.564131  2.83074e-05 -2.47145e-06     -40.2328 
         -70       0.5874  2.80834e-05 -2.47491e-06     -40.2328 
         -70     0.611121   2.7924e-05 -2.29923e-06     -40.2327 
         -70      0.63533   2.7659e-05 -2.06095e-06     -40.2327 
         -70      0.65999  2.75732e-05 -1.97679e-06     -40.2326 
         -70     0.685139  2.76615e-05 -2.00853e-06     -40.2325 
         -70     0.710759   2.7916e-05  -2.1222e-06     -40.2325 
         -70     0.736828  2.83251e-05 -2.28797e-06     -40.2324 
         -70     0.763387  2.88757e-05 -2.48103e-06     -40.2323 
         -70     0.790396  2.95509e-05 -2.68076e-06     -40.2322 
         -70     0.817896  3.03341e-05 -2.87178e-06     -40.2322 
         -70     0.845843  3.12056e-05 -3.04266e-06     -40.2321 
         -70     0.874283  3.21476e-05  -3.1868e-06      -40.232 
         -70      0.90317  3.31403e-05  -3.3009e-06     -40.2319 
         -70     0.932551  3.41677e-05 -3.38546e-06     -40.2318 
         -70     0.962401  3.52137e-05 -3.44333e-06     -40.2317 
         -70     0.992697  3.62649e-05 -3.47945e-06     -40.2315 
         -70      1.02349  3.73138e-05 -3.50005e-06     -40.2314 
         -70      1.05472  3.83534e-05  -3.5116e-06     -40.2313 
         -70      1.08645  3.93849e-05 -3.52024e-06     -40.2312 
         -70      1.11863  4.04105e-05 -3.53084e-06      -40.231 
         -70       1.1513  4.14406e-05 -3.54644e-06     -40.2309 
         -70      1.18444  4.24869e-05 -3.56772e-06     -40.2307 
         -70      1.21802  4.35645e-05 -3.59272e-06     -40.2306 
         -70      1.25211  4.46929e-05 -3.61703e-06     -40.2304 
         -70      1.28663  4.58872e-05 -3.63413e-06     -40.2302 
         -70      1.32165  4.71629e-05 -3.63661e-06     -40.2301 
         -70      1.35712  4.85239e-05 -3.61785e-06     -40.2299 
         -70      1.39308  4.99658e-05 -3.57452e-06     -40.2297 
         -70      1.42951  5.14617e-05 -3.51023e-06     -40.2295 
         -70      1.46638  5.29572e-05  -3.4403e-06     -40.2293 
         -70      1.50375  5.43651e-05  -3.3976e-06     -40.2291 
         -70      1.54156  5.58523e-05 -3.80262e-06     -40.2288 
         -70      1.57987  5.73699e-05 -3.99087e-06     -40.2286 
         -70      1.61863  5.88482e-05 -3.98707e-06     -40.2284 
         -70      1.65788   6.0242e-05 -3.85106e-06     -40.2281 
         -70      1.69757  6.15099e-05 -3.63519e-06     -40.2278 
         -70      1.73776  6.26233e-05 -3.38345e-06     -40.2276 
         -70      1.77842  6.35591e-05 -3.13257e-06     -40.2273 
         -70      1.81952  6.43027e-05 -2.91154e-06      -40.227 
         -70      1.86113  6.48496e-05 -2.74129e-06     -40.2267 
         -70      1.90316  6.52002e-05 -2.63609e-06     -40.2264 
         -70      1.94571  6.53638e-05  -2.6029e-06     -40.2261 
         -70      1.98869  6.53549e-05 -2.64245e-06     -40.2258 
         -70      2.03217   6.5194e-05 -2.74964e-06     -40.2254 
         -70      2.07612  6.49064e-05 -2.91407e-06     -40.2251 
         -70      2.12051  6.45216e-05 -3.12067e-06     -40.2247 
         -70       2.1654  6.40712e-05 -3.35119e-06     -40.2243 
         -70      2.21073  6.35899e-05 -3.58392e-06      -40.224 
         -70      2.25656  6.31118e-05 -3.79594e-06     -40.2236 
         -70      2.30283  6.26721e-05 -3.96277e-06     -40.2232 
         -70       2.3496   6.2303e-05 -4.06056e-06     -40.2227 
         -70      2.39685  6.20353e-05 -4.06617e-06     -40.2223 
         -70      2.44452  6.18955e-05 -3.95882e-06     -40.2219 
         -70      2.49271   6.1905e-05 -3.72058e-06     -40.2214 
         -70      2.54132  6.20796e-05 -3.33806e-06     -40.2209 
         -70      2.59044  6.24285e-05 -2.80175e-06     -40.2204 
         -70         2.64  6.29526e-05 -2.10923e-06     -40.2199 
         -70      2.69006  6.36459e-05 -1.26231e-06     -40.2194 
         -70      2.74056  6.44924e-05  -2.7181e-07     -40.2189 
         -70      2.79156  6.54698e-05  8.47543e-07     -40.2184 
         -70      2.84304  6.65456e-05  2.07202e-06     -40.2178 
         -70      2.89494  6.76796e-05   3.3713e-06     -40.2172 
         -70      2.94735  6.88278e-05  4.71268e-06     -40.2166 
         -70       3.0002  6.99381e-05  6.05502e-06      -40.216 
         -70      3.05355   7.0959e-05   7.3588e-06     -40.2154 
         -70      3.10733  7.18365e-05  8.58014e-06     -40.2148 
         -70      3.16163  7.25234e-05  9.68171e-06     -40.2141 
         -70      3.21639  7.29788e-05  1.06295e-05     -40.2134 
         -70      3.27158  7.31769e-05  1.14007e-05     -40.2128 
         -70      3.32729  7.31127e-05  1.19903e-05     -40.2121 
         -70      3.38342  7.28093e-05  1.24138e-05     -40.2113 
         -70      3.44007  7.23267e-05  1.27179e-05     -40.2106 
         -70      3.49714  7.17737e-05  1.29869e-05     -40.2098 
         -70      3.55472  7.13175e-05  1.33545e-05     -40.2091 
         -70      3.61273     7.12e-05  1.40135e-05     -40.2083 
         -70      3.67125  7.17517e-05  1.52315e-05     -40.2075 
         -70      3.73025  7.34104e-05  1.73632e-05     -40.2066 
         -70      3.78967  7.40437e-05  1.65936e-05     -40.2058 
         -70      3.84961  7.36329e-05  1.49225e-05     -40.2049 
         -70      3.90996  7.31608e-05  1.38809e-05      -40.204 
         -70      3.97084  7.26123e-05  1.29399e-05     -40.2031 
         -70      4.03214  7.19954e-05   1.1655e-05     -40.2022 
         -70      4.09395  7.13323e-05   9.6609e-06     -40.2012 
         -70      4.15624  7.14911e-05  9.02245e-06     -40.2002 
         -70      4.21895  7.20615e-05  9.61159e-06     -40.1992 
         -70      4.28217  7.24309e-05  1.00593e-05     -40.1982 
         -70      4.34582  7.26065e-05  1.04073e-05     -40.1972 
         -70      4.40998   7.2601e-05  1.06763e-05     -40.1961 
         -70      4.47457  7.24313e-05  1.08709e-05      -40.195 
         -70      4.53968  7.21182e-05  1.09877e-05     -40.1939 
         -70      4.60525  7.16861e-05  1.10209e-05     -40.1928 
         -70      4.67125  7.11624e-05  1.09681e-05     -40.1916 
         -70      4.73777  7.05757e-05  1.08347e-05     -40.1905 
         -70       4.8047   6.9957e-05  1.06375e-05     -40.1892 
         -70      4.87216   6.9336e-05  1.04059e-05      -40.188 
         -70      4.94003  6.87431e-05  1.01838e-05     -40.1868 
         -70      5.00843   6.8205e-05  1.00264e-05     -40.1855 
         -70      5.07724  6.77462e-05  9.99796e-06     -40.1842 
         -70      5.14658  6.73849e-05  1.01653e-05     -40.1829 
         -70      5.21639  6.71333e-05  1.05893e-05     -40.1815 
         -70      5.28661  6.69947e-05  1.13118e-05     -40.1801 
         -70      5.35736  6.69614e-05  1.23436e-05     -40.1787 
         -70      5.42852  6.70125e-05  1.36407e-05     -40.1773 
         -70      5.50021  6.71121e-05  1.50873e-05     -40.1758 
         -70      5.57231  6.72053e-05  1.64606e-05     -40.1743 
         -70      5.64493  6.72167e-05  1.74062e-05     -40.1728 
         -70      5.71803  6.70457e-05  1.73917e-05     -40.1713 
         -70      5.79154  6.65648e-05  1.56696e-05     -40.1697 
         -70      5.86558  6.63482e-05  1.56152e-05     -40.1681 
         -70      5.94003  6.66679e-05  1.81593e-05     -40.1665 
         -70      6.01501  6.68053e-05  1.91046e-05     -40.1648 
         -70       6.0904  6.68289e-05  1.91633e-05     -40.1631 
         -70      6.16632   6.6792e-05  1.88504e-05     -40.1614 
         -70      6.24271  6.67325e-05  1.85089e-05     -40.1597 
         -70       6.3195  6.66745e-05  1.83384e-05     -40.1579 
         -70      6.39683  6.66286e-05  1.84224e-05     -40.1561 
         -70      6.47457  6.65945e-05  1.87561e-05     -40.1542 
         -70      6.55284  6.65622e-05  1.92736e-05     -40.1524 
         -70      6.63152  6.65152e-05  1.98713e-05     -40.1505 
         -70      6.71073  6.64326e-05  2.04342e-05     -40.1485 
         -70      6.79034  6.62931e-05  2.08544e-05     -40.1466 
         -70      6.87049  6.60784e-05  2.10535e-05     -40.1446 
         -70      6.95111  6.57782e-05   2.0996e-05     -40.1426 
         -70      7.03214  6.53955e-05  2.07043e-05     -40.1405 
         -70       7.1137  6.49508e-05   2.0266e-05     -40.1384 
         -70      7.19566  6.44913e-05  1.98395e-05     -40.1363 
         -70      7.27816  6.40952e-05  1.96516e-05     -40.1341 
         -70      7.36106  6.38822e-05  1.99921e-05     -40.1319 
         -70      7.44451  6.40211e-05  2.12009e-05     -40.1297 
         -70      7.52842  6.47403e-05   2.3647e-05     -40.1274 
         -70      7.61273   6.3751e-05  2.16352e-05     -40.1251 
         -70      7.69758  6.27706e-05  1.97102e-05     -40.1228 
         -70      7.78283  6.20906e-05  1.86682e-05     -40.1204 
         -70      7.86862  6.18385e-05  1.89641e-05      -40.118 
         -70      7.95481  6.10381e-05  1.93362e-05     -40.1156 
         -70      8.04155  5.95871e-05  1.78717e-05     -40.1131 
         -70      8.12868  5.95557e-05  1.74731e-05     -40.1106 
         -70      8.21635  6.03543e-05  1.77081e-05     -40.1081 
         -70      8.30449  6.15321e-05  1.82562e-05     -40.1055 
         -70      8.39303  6.27635e-05  1.88969e-05     -40.1029 
         -70      8.48211  6.37825e-05  1.94605e-05     -40.1002 
         -70      8.57159  6.35538e-05  1.93133e-05     -40.0975 
         -70      8.66161  6.30741e-05  1.91616e-05     -40.0948 
         -70      8.75203  6.24728e-05  1.89948e-05      -40.092 
         -70      8.84299  6.18707e-05  1.88504e-05     -40.0892 
         -70      8.93443  6.13645e-05  1.87844e-05     -40.0864 
         -70      9.02626  6.10115e-05  1.88455e-05     -40.0835 
         -70      9.11863  6.08215e-05  1.90571e-05     -40.0806 
         -70      9.21139  6.07556e-05  1.94053e-05     -40.0776 
         -70      9.30471  6.07309e-05  1.98372e-05     -40.0746 
         -70      9.39841  6.06329e-05  2.02656e-05     -40.0716 
         -70      9.49267  6.03363e-05  2.05873e-05     -40.0685 
         -70      9.58739  5.97355e-05  2.07085e-05     -40.0654 
         -70      9.68251  5.87851e-05  2.05865e-05     -40.0622 
         -70      9.77817  5.75481e-05  2.02822e-05      -40.059 
         -70      9.87422  5.62642e-05  2.00286e-05     -40.0558 
         -70      9.97083  5.54187e-05  2.03138e-05     -40.0525 
         -70      10.0678  5.58379e-05  2.19818e-05     -40.0492 
         -70      10.1654  5.74527e-05  2.39314e-05     -40.0458 
         -70      10.2633  5.75556e-05  2.30143e-05     -40.0425 
         -70      10.3618  5.75913e-05  2.26595e-05      -40.039 
         -70      10.4607  5.75817e-05  2.25329e-05     -40.0355 
         -70      10.5601   5.7542e-05  2.24179e-05      -40.032 
         -70        10.66  5.74827e-05  2.22113e-05     -40.0285 
         -70      10.7603  5.74131e-05   2.1919e-05     -40.0249 
         -70      10.8611  5.73436e-05  2.16496e-05     -40.0212 
         -70      10.9623  5.72891e-05  2.16105e-05     -40.0175 
         -70      11.0641  5.72722e-05   2.2101e-05     -40.0138 
         -70      11.1663  5.72893e-05  2.22876e-05       -40.01 
         -70       11.269  5.72677e-05  2.16004e-05     -40.0062 
         -70      11.3721   5.7221e-05  2.11724e-05     -40.0024 
         -70      11.4757  5.71531e-05  2.09684e-05     -39.9985 
         -70      11.5798  5.70679e-05  2.09562e-05     -39.9945 
         -70      11.6844  5.69688e-05  2.11061e-05     -39.9906 
         -70      11.7894  5.68584e-05  2.13875e-05     -39.9865 
         -70       11.895  5.67382e-05  2.17679e-05     -39.9825 
         -70      12.0009  5.66088e-05   2.2212e-05     -39.9784 
         -70      12.1073  5.64689e-05  2.26834e-05     -39.9742 
         -70      12.2142  5.63167e-05  2.31431e-05       -39.97 
         -70      12.3216  5.61486e-05  2.35551e-05     -39.9658 
         -70      12.4294  5.59603e-05  2.38866e-05     -39.9615 
         -70      12.5378  5.57468e-05  2.41154e-05     -39.9572 
         -70      12.6465   5.5503e-05  2.42338e-05     -39.9528 
         -70      12.7558  5.52238e-05  2.42575e-05     -39.9484 
         -70      12.8656  5.49059e-05  2.42336e-05      -39.944 
         -70      12.9757  5.45477e-05  2.42517e-05     -39.9395 
         -70      13.0864  5.41504e-05  2.44564e-05     -39.9349 
         -70      13.1975  5.37204e-05  2.50606e-05     -39.9304 
         -70      13.3092  5.32685e-05  2.63645e-05     -39.9257 
         -70      13.4212  5.35369e-05  2.71186e-05     -39.9211 
         -70      13.5338  5.40491e-05  2.67994e-05     -39.9164 
         -70      13.6468  5.41888e-05  2.64714e-05     -39.9116 
         -70      13.7603  5.40447e-05  2.61482e-05     -39.9068 
         -70      13.8743  5.36932e-05  2.58434e-05      -39.902 
         -70      13.9886  5.32005e-05  2.55711e-05     -39.8971 
         -70      14.1036  5.26211e-05   2.5344e-05     -39.8922 
         -70      14.2189  5.20013e-05  2.51742e-05     -39.8872 
         -70      14.3348  5.13767e-05  2.50715e-05     -39.8822 
         -70       14.451  5.07766e-05  2.50442e-05     -39.8771 
         -70      14.5678   5.0221e-05  2.50975e-05      -39.872 
         -70      14.6851  4.97246e-05  2.52341e-05     -39.8669 
         -70      14.8028  4.92961e-05  2.54533e-05     -39.8617 
         -70       14.921  4.89381e-05  2.57517e-05     -39.8565 
         -70      15.0396  4.86503e-05  2.61215e-05     -39.8512 
         -70      15.1588   4.8428e-05  2.65529e-05     -39.8459 
         -70      15.2783  4.82649e-05  2.70312e-05     -39.8405 
         -70      15.3984  4.81525e-05  2.75401e-05     -39.8351 
         -70       15.519  4.80818e-05  2.80593e-05     -39.8297 
         -70        15.64   4.8044e-05   2.8566e-05     -39.8242 
         -70      15.7615  4.80313e-05  2.90367e-05     -39.8186 
         -70      15.8834   4.8038e-05   2.9445e-05     -39.8131 
         -70      16.0058  4.80611e-05  2.97655e-05     -39.8075 
         -70      16.1286  4.81012e-05  2.99722e-05     -39.8018 
         -70       16.252  4.81638e-05  3.00412e-05     -39.7961 
         -70      16.3759  4.82598e-05  2.99514e-05     -39.7903 
         -70      16.5002  4.84059e-05  2.96862e-05     -39.7846 
         -70       16.625  4.86268e-05  2.92345e-05     -39.7787 
         -70      16.7501  4.89542e-05  2.85942e-05     -39.7729 
         -70      16.8759  4.94294e-05  2.77714e-05      -39.767 
         -70       17.002   5.0102e-05  2.67871e-05      -39.761 
         -70      17.1287  5.10334e-05  2.56739e-05      -39.755 
         -70      17.2557  4.95548e-05  2.65923e-05      -39.749 
         -70      17.3834  4.73105e-05  2.80139e-05     -39.7429 
         -70      17.5115  4.51556e-05  3.02389e-05     -39.7368 
         -70      17.6399  4.36188e-05  3.38755e-05     -39.7306 
         -70       17.769  4.39725e-05   3.3212e-05     -39.7244 
         -70      17.8984  4.46497e-05  3.32288e-05     -39.7182 
         -70      18.0284   4.5477e-05  3.41717e-05     -39.7119 
         -70      18.1587  4.64056e-05  3.57404e-05     -39.7056 
         -70      18.2896  4.73896e-05   3.7678e-05     -39.6992 
         -70       18.421  4.77235e-05  3.83293e-05     -39.6928 
         -70      18.5528  4.62723e-05  3.50671e-05     -39.6864 
         -70      18.6851   4.5068e-05  3.23115e-05     -39.6799 
         -70      18.8178  4.40994e-05  3.00735e-05     -39.6734 
         -70      18.9511  4.33478e-05  2.83346e-05     -39.6668 
         -70      19.0847  4.27936e-05  2.70646e-05     -39.6602 
         -70      19.2189  4.24128e-05  2.62148e-05     -39.6536 
         -70      19.3535   4.2181e-05  2.57297e-05     -39.6469 
         -70      19.4886  4.20718e-05  2.55455e-05     -39.6402 
         -70      19.6242  4.20594e-05  2.55964e-05     -39.6334 
         -70      19.7602  4.21179e-05  2.58157e-05     -39.6266 
         -70      19.8968  4.22228e-05  2.61404e-05     -39.6198 
         -70      20.0337  4.23511e-05  2.65118e-05     -39.6129 
         -70      20.1712  4.24822e-05  2.68796e-05      -39.606 
         -70      20.3091  4.25979e-05  2.72015e-05     -39.5991 
         -70      20.4475  4.26831e-05  2.74467e-05     -39.5921 
         -70      20.5864  4.27255e-05  2.75948e-05     -39.5851 
         -70      20.7257  4.27166e-05  2.76377e-05      -39.578 
         -70      20.8655  4.26509e-05  2.75786e-05     -39.5709 
         -70      21.0058  4.25265e-05  2.74317e-05     -39.5638 
         -70      21.1465  4.23443e-05  2.72205e-05     -39.5566 
         -70      21.2877  4.21086e-05  2.69767e-05     -39.5494 
         -70      21.4294  4.18251e-05  2.67363e-05     -39.5422 
         -70      21.5716  4.15022e-05  2.65377e-05     -39.5349 
         -70      21.7142  4.11493e-05   2.6417e-05     -39.5276 
         -70      21.8573  4.07749e-05  2.64026e-05     -39.5203 
         -70      22.0008  4.03879e-05  2.65101e-05     -39.5129 
         -70      22.1449  3.99939e-05  2.67359e-05     -39.5055 
         -70      22.2893  3.95957e-05  2.70485e-05     -39.4981 
         -70      22.4344  3.91898e-05  2.73814e-05     -39.4906 
         -70      22.5797  3.87667e-05  2.76217e-05     -39.4831 
         -70      22.7257  3.83064e-05  2.76011e-05     -39.4755 
         -70      22.8721  3.82185e-05  2.73041e-05     -39.4679 
         -70      23.0189  3.84969e-05   2.7163e-05     -39.4603 
         -70      23.1663  3.86632e-05  2.71268e-05     -39.4527 
         -70       23.314  3.87312e-05  2.71856e-05      -39.445 
         -70      23.4623  3.87125e-05  2.73257e-05     -39.4373 
         -70       23.611  3.86166e-05  2.75306e-05     -39.4296 
         -70      23.7602  3.84518e-05  2.77821e-05     -39.4218 
         -70        23.91  3.82258e-05  2.80606e-05      -39.414 
         -70        24.06  3.79469e-05  2.83463e-05     -39.4062 
         -70      24.2107  3.76229e-05  2.86206e-05     -39.3983 
         -70      24.3617  3.72642e-05  2.88654e-05     -39.3905 
         -70      24.5133  3.68817e-05  2.90658e-05     -39.3825 
         -70      24.6653    3.649e-05  2.92091e-05     -39.3746 
         -70      24.8178  3.61052e-05  2.92867e-05     -39.3666 
         -70      24.9708  3.57479e-05   2.9294e-05     -39.3586 
         -70      25.1242  3.54423e-05  2.92315e-05     -39.3506 
         -70      25.2781  3.52161e-05   2.9105e-05     -39.3425 
         -70      25.4324  3.51027e-05  2.89265e-05     -39.3344 
         -70      25.5873  3.51396e-05  2.87141e-05     -39.3263 
         -70      25.7426  3.53698e-05   2.8493e-05     -39.3182 
         -70      25.8984  3.58424e-05  2.82951e-05       -39.31 
         -70      26.0546  3.66109e-05  2.81603e-05     -39.3018 
         -70      26.2114  3.77365e-05  2.81353e-05     -39.2936 
         -70      26.3686  3.67624e-05  2.87264e-05     -39.2853 
         -70      26.5262  3.56903e-05  2.93113e-05      -39.277 
         -70      26.6844  3.48262e-05  2.97978e-05     -39.2687 
         -70      26.8429  3.41343e-05  3.01797e-05     -39.2604 
         -70       27.002  3.35812e-05  3.04589e-05     -39.2521 
         -70      27.1615  3.31406e-05  3.06415e-05     -39.2437 
         -70      27.3216   3.2789e-05   3.0739e-05     -39.2353 
         -70      27.4821  3.25089e-05  3.07657e-05     -39.2268 
         -70       27.643  3.22865e-05  3.07389e-05     -39.2184 
         -70      27.8044  3.21117e-05  3.06771e-05     -39.2099 
         -70      27.9663  3.19784e-05  3.05996e-05     -39.2014 
         -70      28.1287  3.18834e-05   3.0525e-05     -39.1929 
         -70      28.2914  3.18263e-05  3.04708e-05     -39.1844 
         -70      28.4548  3.18087e-05  3.04517e-05     -39.1758 
         -70      28.6185  3.18335e-05   3.0479e-05     -39.1672 
         -70      28.7828  3.19044e-05  3.05597e-05     -39.1586 
         -70      28.9475  3.20249e-05  3.06951e-05       -39.15 
         -70      29.1126  3.21972e-05  3.08799e-05     -39.1413 
         -70      29.2784   3.2422e-05  3.11019e-05     -39.1327 
         -70      29.4444   3.2696e-05  3.13396e-05      -39.124 
         -70       29.611  3.30127e-05   3.1563e-05     -39.1153 
         -70       29.778  3.33569e-05  3.18968e-05     -39.1065 
         -70      29.9456  3.34151e-05  3.24899e-05     -39.0978 
         -70      30.1137  3.31107e-05  3.26125e-05      -39.089 
         -70      30.2821   3.2576e-05  3.24028e-05     -39.0802 
         -70      30.4511  3.19165e-05  3.19752e-05     -39.0714 
         -70      30.6204   3.1216e-05  3.14238e-05     -39.0626 
         -70      30.7903  3.05359e-05  3.08215e-05     -39.0538 
         -70      30.9606  2.99209e-05   3.0226e-05     -39.0449 
         -70      31.1315   2.9398e-05   2.9677e-05      -39.036 
         -70      31.3028  2.89815e-05  2.92021e-05     -39.0271 
         -70      31.4745  2.86744e-05  2.88164e-05     -39.0182 
         -70      31.6468  2.84694e-05  2.85239e-05     -39.0093 
         -70      31.8194   2.8353e-05  2.83214e-05     -39.0004 
         -70      31.9926  2.83062e-05  2.81982e-05     -38.9914 
         -70      32.1662  2.83074e-05  2.81388e-05     -38.9824 
         -70      32.3404   2.8334e-05  2.81244e-05     -38.9734 
         -70      32.5149   2.8364e-05  2.81345e-05     -38.9644 
         -70        32.69  2.83784e-05  2.81486e-05     -38.9554 
         -70      32.8655  2.83624e-05  2.81475e-05     -38.9464 
         -70      33.0414  2.83073e-05  2.81149e-05     -38.9373 
         -70       33.218  2.82115e-05  2.80388e-05     -38.9283 
         -70      33.3948  2.80826e-05  2.79129e-05     -38.9192 
         -70      33.5723  2.79377e-05  2.77376e-05     -38.9101 
         -70        33.75  2.78054e-05  2.75218e-05      -38.901 
         -70      33.9284  2.77258e-05  2.72829e-05     -38.8919 
         -70      34.1073  2.77519e-05   2.7049e-05     -38.8828 
         -70      34.2865  2.79499e-05  2.68593e-05     -38.8737 
         -70      34.4663  2.83997e-05  2.67641e-05     -38.8645 
         -70      34.6465  2.91944e-05  2.68268e-05     -38.8554 
         -70      34.8272  3.04427e-05  2.71238e-05     -38.8462 
         -70      35.0083  2.69464e-05  2.59005e-05      -38.837 
         -70        35.19   2.2803e-05  2.46563e-05     -38.8278 
         -70      35.3721  2.50712e-05  2.56699e-05     -38.8186 
         -70      35.5546  2.62482e-05  2.63166e-05     -38.8094 
         -70      35.7377  2.66505e-05  2.67462e-05     -38.8002 
         -70      35.9211  2.65352e-05  2.70663e-05      -38.791 
         -70      36.1052  2.61089e-05   2.7351e-05     -38.7818 
         -70      36.2895  2.55338e-05  2.76444e-05     -38.7725 
         -70      36.4745  2.49296e-05  2.79679e-05     -38.7633 
         -70      36.6598   2.4383e-05   2.8323e-05      -38.754 
         -70      36.8457  2.39483e-05  2.86987e-05     -38.7447 
         -70      37.0321  2.36555e-05  2.90731e-05     -38.7355 
         -70      37.2188   2.3513e-05   2.9419e-05     -38.7262 
         -70      37.4062   2.3512e-05  2.97079e-05     -38.7169 
         -70      37.5938  2.36313e-05  2.99116e-05     -38.7076 
         -70      37.7821  2.38405e-05  3.00066e-05     -38.6983 
         -70      37.9707  2.41037e-05  2.99756e-05      -38.689 
         -70      38.1599   2.4383e-05  2.98092e-05     -38.6797 
         -70      38.3496  2.46408e-05  2.95076e-05     -38.6704 
         -70      38.5396  2.48428e-05  2.90816e-05     -38.6611 
         -70      38.7302  2.49605e-05  2.85514e-05     -38.6517 
         -70      38.9211  2.49721e-05  2.79485e-05     -38.6424 
         -70      39.1127  2.48648e-05  2.73113e-05     -38.6331 
         -70      39.3046  2.46356e-05  2.66875e-05     -38.6237 
         -70      39.4971  2.42913e-05   2.6127e-05     -38.6144 
         -70      39.6899  2.38498e-05   2.5683e-05      -38.605 
         -70      39.8833  2.33375e-05  2.54044e-05     -38.5957 
         -70      40.0772  2.27909e-05  2.53337e-05     -38.5863 
         -70      40.2714  2.22541e-05  2.54995e-05      -38.577 
         -70      40.4663  2.17751e-05  2.59108e-05     -38.5676 
         -70      40.6615  2.14059e-05  2.65486e-05     -38.5582 
         -70      40.8573  2.11967e-05  2.73595e-05     -38.5489 
         -70      41.0534  2.11939e-05  2.82426e-05     -38.5395 
         -70      41.2501  2.14339e-05  2.90437e-05     -38.5301 
         -70      41.4473  2.19385e-05  2.95387e-05     -38.5208 
         -70      41.6448  2.27079e-05  2.94241e-05     -38.5114 
         -70      41.8429    2.328e-05  2.90124e-05      -38.502 
         -70      42.0414  2.30446e-05  2.87346e-05     -38.4926 
         -70      42.2405  2.18088e-05  2.87763e-05     -38.4833 
         -70      42.4399   2.0774e-05  2.88218e-05     -38.4739 
         -70      42.6399  1.99294e-05  2.88624e-05     -38.4645 
         -70      42.8404  1.92644e-05  2.88906e-05     -38.4552 
         -70      43.0412  1.87667e-05  2.88998e-05     -38.4458 
         -70      43.2426   1.8421e-05  2.88845e-05     -38.4364 
         -70      43.4444  1.82126e-05  2.88402e-05      -38.427 
         -70      43.6467  1.81251e-05  2.87633e-05     -38.4177 
         -70      43.8494   1.8142e-05  2.86514e-05     -38.4083 
         -70      44.0527  1.82466e-05  2.85029e-05     -38.3989 
         -70      44.2563  1.84218e-05  2.83175e-05     -38.3896 
         -70      44.4606  1.86513e-05  2.80954e-05     -38.3802 
         -70      44.6653  1.89189e-05  2.78381e-05     -38.3709 
         -70      44.8704  1.92091e-05  2.75483e-05     -38.3615 
         -70       45.076  1.95078e-05  2.72285e-05     -38.3522 
         -70       45.282  1.98011e-05  2.68834e-05     -38.3428 
         -70      45.4886  2.00773e-05   2.6517e-05     -38.3335 
         -70      45.6955  2.03251e-05  2.61352e-05     -38.3241 
         -70       45.903  2.05355e-05  2.57435e-05     -38.3148 
         -70      46.1111  2.07006e-05  2.53485e-05     -38.3054 
         -70      46.3194  2.07963e-05  2.49679e-05     -38.2961 
         -70      46.5283  2.07365e-05  2.46653e-05     -38.2868 
         -70      46.7376  2.06016e-05  2.44104e-05     -38.2775 
         -70      46.9475   2.0399e-05  2.42093e-05     -38.2682 
         -70      47.1577  2.01389e-05  2.40671e-05     -38.2588 
         -70      47.3685  1.98323e-05  2.39865e-05     -38.2495 
         -70      47.5798  1.94923e-05   2.3968e-05     -38.2402 
         -70      47.7914   1.9133e-05    2.401e-05     -38.2309 
         -70      48.0037   1.8768e-05  2.41087e-05     -38.2216 