Variables = x, y, u, v, p

Zone, I=800, F=POINT
         -50            0            0            0     -38.4176 
         -50     0.000234 -6.00754e-08 -7.56507e-10     -38.4176 
         -50     0.000939  4.98181e-08 -2.82107e-09     -38.4176 
         -50     0.002113  1.08513e-06 -5.59176e-09     -38.4176 
         -50     0.003759  3.95546e-06 -8.22892e-09     -38.4176 
         -50     0.005872  9.29228e-06 -9.81538e-09     -38.4176 
         -50     0.008457  1.71116e-05 -9.57027e-09     -38.4176 
         -50      0.01151  2.65848e-05 -6.97486e-09     -38.4176 
         -50     0.015036  3.61936e-05  -1.8258e-09     -38.4176 
         -50     0.019031  4.41022e-05    5.809e-09     -38.4176 
         -50     0.023493  4.88549e-05  1.57597e-08     -38.4176 
         -50     0.028429  5.00441e-05  2.79978e-08     -38.4176 
         -50     0.033831  4.86841e-05  4.27754e-08     -38.4176 
         -50     0.039706  4.69932e-05   6.0778e-08     -38.4176 
         -50     0.046047  4.73423e-05  8.29206e-08     -38.4176 
         -50     0.052863  5.05398e-05  1.10103e-07     -38.4176 
         -50      0.06015  5.43196e-05  1.42695e-07     -38.4176 
         -50       0.0679  5.41013e-05  1.80463e-07     -38.4176 
         -50     0.076126   4.9937e-05  2.23776e-07     -38.4176 
         -50     0.084816  5.87431e-05  2.75988e-07     -38.4176 
         -50     0.093982  5.65079e-05  3.34866e-07     -38.4176 
         -50     0.103611  5.67271e-05  4.02244e-07     -38.4176 
         -50     0.113718  5.80432e-05  4.78391e-07     -38.4176 
         -50     0.124286  5.94921e-05  5.63479e-07     -38.4176 
         -50     0.135333  6.05504e-05  6.58055e-07     -38.4175 
         -50      0.14685   6.1095e-05  7.62483e-07     -38.4175 
         -50     0.158827     6.13e-05   8.7703e-07     -38.4175 
         -50     0.171284  6.14653e-05  1.00208e-06     -38.4175 
         -50     0.184201  6.18153e-05  1.13738e-06     -38.4175 
         -50     0.197599  6.23343e-05  1.28284e-06     -38.4175 
         -50     0.211455  6.27247e-05  1.43781e-06     -38.4175 
         -50     0.225792  6.26395e-05  1.60252e-06     -38.4175 
         -50       0.2406  6.23737e-05  1.77804e-06     -38.4175 
         -50     0.255865  6.29531e-05  1.96609e-06     -38.4175 
         -50     0.271613  6.29112e-05  2.15755e-06     -38.4175 
         -50     0.287818  6.29583e-05  2.35363e-06     -38.4175 
         -50     0.304506  6.30664e-05  2.55813e-06     -38.4175 
         -50      0.32165  6.32152e-05  2.77293e-06     -38.4175 
         -50     0.339278   6.3393e-05  2.99951e-06     -38.4175 
         -50     0.357377  6.35952e-05    3.238e-06     -38.4175 
         -50      0.37593  6.38228e-05  3.48786e-06     -38.4175 
         -50     0.394968  6.40817e-05  3.74897e-06     -38.4175 
         -50     0.414461  6.43791e-05  4.02037e-06     -38.4175 
         -50      0.43444  6.47225e-05  4.30216e-06     -38.4174 
         -50     0.454872  6.51159e-05  4.59372e-06     -38.4174 
         -50     0.475791  6.55597e-05  4.89519e-06     -38.4174 
         -50     0.497163  6.60475e-05  5.20475e-06     -38.4174 
         -50     0.519021  6.65695e-05  5.51901e-06     -38.4174 
         -50      0.54135  6.71128e-05  5.82903e-06     -38.4174 
         -50     0.564131  6.76684e-05  6.11737e-06     -38.4174 
         -50       0.5874  6.82434e-05   6.3538e-06     -38.4173 
         -50     0.611121  6.88655e-05  6.50217e-06     -38.4173 
         -50      0.63533  6.94414e-05  6.76572e-06     -38.4173 
         -50      0.65999  6.99969e-05  7.06935e-06     -38.4173 
         -50     0.685139  7.05208e-05  7.40198e-06     -38.4173 
         -50     0.710759  7.10014e-05  7.75306e-06     -38.4172 
         -50     0.736828   7.1428e-05  8.11327e-06     -38.4172 
         -50     0.763387   7.1792e-05  8.47552e-06     -38.4172 
         -50     0.790396   7.2085e-05  8.83305e-06     -38.4172 
         -50     0.817896  7.23011e-05  9.18153e-06     -38.4171 
         -50     0.845843  7.24352e-05  9.51686e-06     -38.4171 
         -50     0.874283  7.24847e-05   9.8373e-06     -38.4171 
         -50      0.90317  7.24483e-05  1.01411e-05      -38.417 
         -50     0.932551  7.23271e-05  1.04286e-05      -38.417 
         -50     0.962401  7.21238e-05  1.06999e-05      -38.417 
         -50     0.992697  7.18435e-05   1.0956e-05     -38.4169 
         -50      1.02349  7.14925e-05  1.11988e-05     -38.4169 
         -50      1.05472  7.10797e-05  1.14294e-05     -38.4169 
         -50      1.08645  7.06143e-05  1.16497e-05     -38.4168 
         -50      1.11863   7.0108e-05  1.18608e-05     -38.4168 
         -50       1.1513  6.95718e-05   1.2064e-05     -38.4167 
         -50      1.18444  6.90179e-05  1.22597e-05     -38.4167 
         -50      1.21802  6.84582e-05  1.24481e-05     -38.4166 
         -50      1.25211  6.79019e-05  1.26298e-05     -38.4166 
         -50      1.28663   6.7358e-05   1.2805e-05     -38.4165 
         -50      1.32165  6.68301e-05  1.29752e-05     -38.4165 
         -50      1.35712   6.6319e-05  1.31429e-05     -38.4164 
         -50      1.39308  6.58174e-05  1.33142e-05     -38.4163 
         -50      1.42951  6.53115e-05  1.34987e-05     -38.4163 
         -50      1.46638  6.47774e-05  1.37121e-05     -38.4162 
         -50      1.50375  6.41777e-05  1.39793e-05     -38.4161 
         -50      1.54156  6.39812e-05  1.39905e-05     -38.4161 
         -50      1.57987  6.36057e-05  1.39817e-05      -38.416 
         -50      1.61863  6.30545e-05  1.39747e-05     -38.4159 
         -50      1.65788  6.23685e-05  1.39683e-05     -38.4158 
         -50      1.69757  6.15861e-05   1.3961e-05     -38.4158 
         -50      1.73776  6.07384e-05  1.39509e-05     -38.4157 
         -50      1.77842  5.98537e-05  1.39356e-05     -38.4156 
         -50      1.81952  5.89556e-05  1.39127e-05     -38.4155 
         -50      1.86113  5.80608e-05  1.38794e-05     -38.4154 
         -50      1.90316  5.71846e-05   1.3833e-05     -38.4153 
         -50      1.94571   5.6335e-05  1.37703e-05     -38.4152 
         -50      1.98869  5.55191e-05  1.36886e-05     -38.4151 
         -50      2.03217  5.47374e-05  1.35847e-05      -38.415 
         -50      2.07612  5.39893e-05  1.34561e-05     -38.4149 
         -50      2.12051  5.32712e-05  1.33003e-05     -38.4147 
         -50       2.1654  5.25757e-05  1.31149e-05     -38.4146 
         -50      2.21073  5.18957e-05  1.28983e-05     -38.4145 
         -50      2.25656  5.12207e-05  1.26489e-05     -38.4144 
         -50      2.30283  5.05419e-05  1.23663e-05     -38.4142 
         -50       2.3496  4.98483e-05  1.20499e-05     -38.4141 
         -50      2.39685  4.91312e-05  1.17006e-05      -38.414 
         -50      2.44452  4.83829e-05  1.13198e-05     -38.4138 
         -50      2.49271   4.7596e-05  1.09093e-05     -38.4137 
         -50      2.54132   4.6768e-05  1.04726e-05     -38.4135 
         -50      2.59044  4.58964e-05  1.00129e-05     -38.4134 
         -50         2.64  4.49849e-05  9.53562e-06     -38.4132 
         -50      2.69006  4.40379e-05  9.04555e-06      -38.413 
         -50      2.74056  4.30665e-05  8.54978e-06     -38.4129 
         -50      2.79156  4.20829e-05  8.05452e-06     -38.4127 
         -50      2.84304   4.1105e-05  7.56772e-06     -38.4125 
         -50      2.89494  4.01545e-05  7.09768e-06     -38.4123 
         -50      2.94735  3.92533e-05  6.65172e-06     -38.4121 
         -50       3.0002  3.84286e-05  6.23855e-06     -38.4119 
         -50      3.05355  3.77055e-05  5.86505e-06     -38.4117 
         -50      3.10733  3.71109e-05  5.53845e-06     -38.4115 
         -50      3.16163  3.66668e-05  5.26362e-06     -38.4113 
         -50      3.21639  3.63919e-05  5.04427e-06     -38.4111 
         -50      3.27158  3.62961e-05  4.88144e-06     -38.4109 
         -50      3.32729  3.63777e-05  4.77247e-06     -38.4107 
         -50      3.38342  3.66191e-05  4.71098e-06     -38.4104 
         -50      3.44007  3.69829e-05  4.68519e-06     -38.4102 
         -50      3.49714  3.74043e-05  4.67717e-06     -38.4099 
         -50      3.55472  3.77868e-05   4.6614e-06     -38.4097 
         -50      3.61273  3.79927e-05   4.6035e-06     -38.4094 
         -50      3.67125   3.7836e-05  4.45839e-06     -38.4092 
         -50      3.73025  3.70716e-05  4.16877e-06     -38.4089 
         -50      3.78967  3.78862e-05  3.73622e-06     -38.4086 
         -50      3.84961  3.91749e-05  3.10129e-06     -38.4083 
         -50      3.90996  3.99057e-05  2.21748e-06      -38.408 
         -50      3.97084  3.98922e-05   2.8056e-06     -38.4077 
         -50      4.03214   3.9768e-05  3.47112e-06     -38.4074 
         -50      4.09395  3.96529e-05  3.92854e-06     -38.4071 
         -50      4.15624  3.95756e-05  4.16786e-06     -38.4068 
         -50      4.21895  3.95454e-05   4.2002e-06     -38.4065 
         -50      4.28217  3.95571e-05  4.05236e-06     -38.4062 
         -50      4.34582  3.95947e-05  3.76222e-06     -38.4058 
         -50      4.40998  3.96359e-05  3.37338e-06     -38.4055 
         -50      4.47457  3.96562e-05  2.93255e-06     -38.4051 
         -50      4.53968  3.96319e-05  2.48327e-06     -38.4048 
         -50      4.60525  3.95435e-05  2.06476e-06     -38.4044 
         -50      4.67125  3.93788e-05  1.70781e-06      -38.404 
         -50      4.73777  3.91338e-05  1.43179e-06     -38.4036 
         -50       4.8047  3.88152e-05  1.24506e-06     -38.4032 
         -50      4.87216  3.84394e-05  1.14277e-06     -38.4028 
         -50      4.94003  3.80332e-05  1.10879e-06     -38.4024 
         -50      5.00843  3.76301e-05   1.1169e-06      -38.402 
         -50      5.07724  3.72694e-05  1.13452e-06     -38.4016 
         -50      5.14658  3.69887e-05  1.12778e-06     -38.4011 
         -50      5.21639  3.68197e-05   1.0683e-06     -38.4007 
         -50      5.28661  3.67785e-05  9.42438e-07     -38.4002 
         -50      5.35736  3.68553e-05  7.62137e-07     -38.3998 
         -50      5.42852  3.70016e-05  5.79473e-07     -38.3993 
         -50      5.50021   3.7115e-05  5.02339e-07     -38.3988 
         -50      5.57231  3.70202e-05  7.14886e-07     -38.3983 
         -50      5.64493   3.6448e-05  1.50022e-06     -38.3978 
         -50      5.71803  3.64937e-05  1.90212e-07     -38.3973 
         -50      5.79154  3.69397e-05 -1.52605e-07     -38.3968 
         -50      5.86558  3.75142e-05 -8.60546e-08     -38.3963 
         -50      5.94003  3.80351e-05  2.02885e-08     -38.3957 
         -50      6.01501   3.8399e-05 -4.07288e-08     -38.3952 
         -50       6.0904  3.85651e-05 -3.40912e-07     -38.3946 
         -50      6.16632  3.85432e-05 -8.46913e-07     -38.3941 
         -50      6.24271  3.83788e-05 -1.45075e-06     -38.3935 
         -50       6.3195  3.81401e-05 -2.00443e-06     -38.3929 
         -50      6.39683  3.79036e-05 -2.35836e-06     -38.3923 
         -50      6.47457  3.77418e-05 -2.39757e-06     -38.3917 
         -50      6.55284  3.77099e-05 -2.08511e-06     -38.3911 
         -50      6.63152  3.78342e-05 -1.50569e-06     -38.3904 
         -50      6.71073  3.81017e-05 -9.10417e-07     -38.3898 
         -50      6.79034  3.77074e-05 -6.63084e-07     -38.3891 
         -50      6.87049  3.70584e-05 -4.73219e-07     -38.3885 
         -50      6.95111  3.65009e-05 -2.99011e-07     -38.3878 
         -50      7.03214  3.60439e-05 -1.65206e-07     -38.3871 
         -50       7.1137  3.56888e-05  -9.3404e-08     -38.3864 
         -50      7.19566  3.54333e-05 -1.00401e-07     -38.3857 
         -50      7.27816  3.52703e-05 -1.95696e-07     -38.3849 
         -50      7.36106  3.51905e-05 -3.79583e-07     -38.3842 
         -50      7.44451  3.51821e-05   -6.422e-07     -38.3835 
         -50      7.52842  3.52316e-05 -9.61463e-07     -38.3827 
         -50      7.61273  3.53231e-05 -1.30246e-06     -38.3819 
         -50      7.69758  3.54387e-05  -1.6181e-06     -38.3811 
         -50      7.78283  3.55567e-05 -1.84733e-06     -38.3803 
         -50      7.86862  3.56503e-05 -1.91764e-06     -38.3795 
         -50      7.95481  3.56858e-05 -1.74505e-06     -38.3787 
         -50      8.04155  3.56191e-05 -1.23619e-06     -38.3779 
         -50      8.12868  3.61225e-05 -1.48915e-06      -38.377 
         -50      8.21635   3.6607e-05 -1.72811e-06     -38.3761 
         -50      8.30449  3.68666e-05 -1.73324e-06     -38.3753 
         -50      8.39303  3.69258e-05  -1.6046e-06     -38.3744 
         -50      8.48211  3.68232e-05 -1.42553e-06     -38.3735 
         -50      8.57159  3.66088e-05 -1.26377e-06     -38.3725 
         -50      8.66161  3.63384e-05 -1.16965e-06     -38.3716 
         -50      8.75203  3.60704e-05 -1.17485e-06     -38.3707 
         -50      8.84299  3.58573e-05 -1.28821e-06     -38.3697 
         -50      8.93443  3.57399e-05 -1.49067e-06     -38.3687 
         -50      9.02626  3.57375e-05 -1.72804e-06     -38.3677 
         -50      9.11863  3.58382e-05 -1.90296e-06     -38.3667 
         -50      9.21139  3.59865e-05 -1.86282e-06     -38.3657 
         -50      9.30471  3.60712e-05 -1.38708e-06     -38.3647 
         -50      9.39841  3.60522e-05 -8.76849e-07     -38.3636 
         -50      9.49267   3.6137e-05 -6.34169e-07     -38.3626 
         -50      9.58739  3.62616e-05 -2.39971e-07     -38.3615 
         -50      9.68251  3.63938e-05  2.15295e-07     -38.3604 
         -50      9.77817  3.65103e-05  6.66695e-07     -38.3593 
         -50      9.87422  3.65948e-05  1.06905e-06     -38.3582 
         -50      9.97083  3.66378e-05  1.39646e-06      -38.357 
         -50      10.0678  3.66357e-05  1.63673e-06     -38.3559 
         -50      10.1654  3.65894e-05   1.7904e-06     -38.3547 
         -50      10.2633  3.65039e-05  1.86629e-06     -38.3535 
         -50      10.3618  3.63873e-05  1.87983e-06     -38.3523 
         -50      10.4607  3.62496e-05  1.84981e-06     -38.3511 
         -50      10.5601  3.61027e-05  1.79648e-06     -38.3498 
         -50        10.66  3.59583e-05  1.73904e-06     -38.3486 
         -50      10.7603  3.58286e-05  1.69422e-06     -38.3473 
         -50      10.8611  3.57244e-05  1.67439e-06      -38.346 
         -50      10.9623  3.56551e-05  1.68671e-06     -38.3447 
         -50      11.0641  3.56278e-05  1.73227e-06     -38.3434 
         -50      11.1663  3.56471e-05  1.80581e-06     -38.3421 
         -50       11.269  3.57143e-05  1.89583e-06     -38.3407 
         -50      11.3721  3.58274e-05  1.98568e-06     -38.3394 
         -50      11.4757  3.59803e-05  2.05441e-06      -38.338 
         -50      11.5798  3.61637e-05  2.07927e-06     -38.3366 
         -50      11.6844  3.63638e-05  2.03804e-06     -38.3351 
         -50      11.7894  3.65638e-05  1.91259e-06     -38.3337 
         -50       11.895  3.67431e-05  1.69324e-06     -38.3322 
         -50      12.0009  3.68782e-05  1.38424e-06     -38.3308 
         -50      12.1073  3.69437e-05  1.00875e-06     -38.3293 
         -50      12.2142  3.69126e-05  6.17832e-07     -38.3278 
         -50      12.3216  3.67576e-05  2.96516e-07     -38.3262 
         -50      12.4294  3.64525e-05  1.75313e-07     -38.3247 
         -50      12.5378  3.59732e-05  4.39342e-07     -38.3231 
         -50      12.6465  3.55209e-05  1.37109e-06     -38.3215 
         -50      12.7558  3.49998e-05  2.82939e-06     -38.3199 
         -50      12.8656  3.42883e-05  2.45577e-06     -38.3183 
         -50      12.9757  3.34557e-05  2.31811e-06     -38.3166 
         -50      13.0864  3.33788e-05   2.0096e-06      -38.315 
         -50      13.1975  3.34684e-05  2.01837e-06     -38.3133 
         -50      13.3092  3.36441e-05  2.25951e-06     -38.3116 
         -50      13.4212  3.38445e-05  2.66101e-06     -38.3099 
         -50      13.5338  3.40258e-05  3.16409e-06     -38.3081 
         -50      13.6468  3.41588e-05   3.7203e-06     -38.3064 
         -50      13.7603  3.42277e-05   4.2913e-06     -38.3046 
         -50      13.8743  3.42272e-05  4.84939e-06     -38.3028 
         -50      13.9886  3.41612e-05  5.37332e-06      -38.301 
         -50      14.1036  3.40402e-05  5.85079e-06     -38.2992 
         -50      14.2189    3.388e-05  6.27411e-06     -38.2973 
         -50      14.3348  3.36991e-05  6.64226e-06     -38.2954 
         -50       14.451  3.35181e-05  6.95721e-06     -38.2935 
         -50      14.5678  3.33571e-05  7.22529e-06     -38.2916 
         -50      14.6851  3.32348e-05  7.45444e-06     -38.2897 
         -50      14.8028  3.31671e-05   7.6542e-06     -38.2877 
         -50       14.921  3.31658e-05  7.83516e-06     -38.2857 
         -50      15.0396  3.32377e-05  8.00712e-06     -38.2837 
         -50      15.1588  3.33843e-05  8.17951e-06     -38.2817 
         -50      15.2783  3.36004e-05  8.35956e-06     -38.2797 
         -50      15.3984  3.38748e-05   8.5528e-06     -38.2776 
         -50       15.519  3.41897e-05  8.76155e-06     -38.2755 
         -50        15.64  3.45205e-05  8.98481e-06     -38.2734 
         -50      15.7615  3.48382e-05  9.21846e-06     -38.2713 
         -50      15.8834  3.51081e-05   9.4538e-06     -38.2691 
         -50      16.0058  3.52929e-05  9.67878e-06      -38.267 
         -50      16.1286   3.5353e-05  9.87655e-06     -38.2648 
         -50       16.252  3.52497e-05  1.00269e-05     -38.2626 
         -50      16.3759  3.49471e-05  1.01055e-05     -38.2603 
         -50      16.5002  3.44159e-05  1.00848e-05     -38.2581 
         -50       16.625   3.3635e-05  9.93418e-06     -38.2558 
         -50      16.7501  3.30575e-05   9.8058e-06     -38.2535 
         -50      16.8759  3.29924e-05  9.89255e-06     -38.2512 
         -50       17.002  3.29826e-05  1.00007e-05     -38.2488 
         -50      17.1287  3.30305e-05  1.00952e-05     -38.2465 
         -50      17.2557  3.31309e-05  1.01536e-05     -38.2441 
         -50      17.3834  3.32735e-05  1.01647e-05     -38.2417 
         -50      17.5115  3.34436e-05  1.01262e-05     -38.2392 
         -50      17.6399  3.36241e-05  1.00433e-05     -38.2368 
         -50       17.769   3.3797e-05  9.92675e-06     -38.2343 
         -50      17.8984  3.39442e-05   9.7913e-06     -38.2318 
         -50      18.0284  3.40492e-05  9.65389e-06     -38.2293 
         -50      18.1587  3.40978e-05  9.53279e-06     -38.2268 
         -50      18.2896  3.40795e-05  9.44544e-06     -38.2242 
         -50       18.421  3.39879e-05  9.40798e-06     -38.2216 
         -50      18.5528  3.38218e-05   9.4337e-06      -38.219 
         -50      18.6851  3.35853e-05  9.53232e-06     -38.2164 
         -50      18.8178  3.32888e-05    9.709e-06     -38.2137 
         -50      18.9511  3.29482e-05  9.96435e-06      -38.211 
         -50      19.0847  3.25861e-05   1.0293e-05     -38.2083 
         -50      19.2189    3.223e-05   1.0685e-05     -38.2056 
         -50      19.3535  3.19139e-05  1.11238e-05     -38.2028 
         -50      19.4886  3.16749e-05  1.15891e-05     -38.2001 
         -50      19.6242  3.15548e-05  1.20551e-05     -38.1973 
         -50      19.7602  3.15971e-05  1.24923e-05     -38.1945 
         -50      19.8968  3.18461e-05  1.28696e-05     -38.1916 
         -50      20.0337  3.23443e-05   1.3154e-05     -38.1888 
         -50      20.1712  3.31316e-05   1.3314e-05     -38.1859 
         -50      20.3091   3.3997e-05  1.33524e-05      -38.183 
         -50      20.4475  3.39822e-05  1.37262e-05       -38.18 
         -50      20.5864  3.36688e-05  1.45573e-05     -38.1771 
         -50      20.7257  3.30811e-05   1.5774e-05     -38.1741 
         -50      20.8655  3.22502e-05   1.7248e-05     -38.1711 
         -50      21.0058  3.12173e-05  1.87748e-05     -38.1681 
         -50      21.1465  3.00283e-05  2.00702e-05      -38.165 
         -50      21.2877  2.97209e-05  1.91851e-05     -38.1619 
         -50      21.4294  3.08534e-05  1.71023e-05     -38.1589 
         -50      21.5716  3.20368e-05  1.62799e-05     -38.1557 
         -50      21.7142  3.31214e-05  1.64914e-05     -38.1526 
         -50      21.8573  3.40666e-05   1.7552e-05     -38.1494 
         -50      22.0008  3.44506e-05  1.85246e-05     -38.1462 
         -50      22.1449  3.38647e-05  1.80172e-05      -38.143 
         -50      22.2893  3.33124e-05  1.75012e-05     -38.1398 
         -50      22.4344  3.27939e-05  1.70092e-05     -38.1365 
         -50      22.5797  3.23176e-05  1.65673e-05     -38.1332 
         -50      22.7257  3.18937e-05  1.61926e-05     -38.1299 
         -50      22.8721  3.15346e-05  1.58966e-05     -38.1266 
         -50      23.0189  3.12514e-05  1.56843e-05     -38.1233 
         -50      23.1663  3.10513e-05   1.5555e-05     -38.1199 
         -50       23.314  3.09378e-05  1.55042e-05     -38.1165 
         -50      23.4623   3.0908e-05  1.55231e-05      -38.113 
         -50       23.611  3.09536e-05  1.56004e-05     -38.1096 
         -50      23.7602  3.10597e-05  1.57228e-05     -38.1061 
         -50        23.91  3.12054e-05  1.58756e-05     -38.1026 
         -50        24.06  3.13652e-05  1.60436e-05     -38.0991 
         -50      24.2107  3.15104e-05  1.62126e-05     -38.0956 
         -50      24.3617  3.16109e-05  1.63693e-05      -38.092 
         -50      24.5133  3.16388e-05  1.65032e-05     -38.0884 
         -50      24.6653  3.15713e-05  1.66065e-05     -38.0848 
         -50      24.8178  3.13954e-05  1.66759e-05     -38.0812 
         -50      24.9708  3.11131e-05  1.67127e-05     -38.0775 
         -50      25.1242  3.07471e-05  1.67244e-05     -38.0738 
         -50      25.2781  3.03473e-05  1.67251e-05     -38.0701 
         -50      25.4324  2.99997e-05  1.67369e-05     -38.0664 
         -50      25.5873  3.01053e-05  1.61492e-05     -38.0627 
         -50      25.7426  3.01802e-05  1.57367e-05     -38.0589 
         -50      25.8984  3.01645e-05  1.54747e-05     -38.0551 
         -50      26.0546  3.00694e-05  1.53158e-05     -38.0513 
         -50      26.2114   2.9928e-05  1.52395e-05     -38.0474 
         -50      26.3686  2.97832e-05  1.52384e-05     -38.0436 
         -50      26.5262  2.96755e-05  1.53058e-05     -38.0397 
         -50      26.6844  2.96317e-05  1.54279e-05     -38.0358 
         -50      26.8429  2.96558e-05  1.55785e-05     -38.0318 
         -50       27.002  2.97198e-05  1.57194e-05     -38.0279 
         -50      27.1615   2.9756e-05  1.58023e-05     -38.0239 
         -50      27.3216  2.96511e-05  1.57777e-05     -38.0199 
         -50      27.4821   2.9241e-05  1.56072e-05     -38.0159 
         -50       27.643  2.91526e-05  1.56536e-05     -38.0118 
         -50      27.8044  2.93517e-05  1.57873e-05     -38.0077 
         -50      27.9663  2.94719e-05  1.58318e-05     -38.0036 
         -50      28.1287  2.95299e-05  1.58164e-05     -37.9995 
         -50      28.2914  2.95395e-05  1.57647e-05     -37.9954 
         -50      28.4548  2.95125e-05  1.56953e-05     -37.9912 
         -50      28.6185  2.94585e-05  1.56225e-05     -37.9871 
         -50      28.7828  2.93855e-05  1.55563e-05     -37.9828 
         -50      28.9475  2.92995e-05  1.55037e-05     -37.9786 
         -50      29.1126  2.92056e-05  1.54683e-05     -37.9744 
         -50      29.2784  2.91072e-05  1.54515e-05     -37.9701 
         -50      29.4444  2.90068e-05  1.54526e-05     -37.9658 
         -50       29.611   2.8906e-05  1.54694e-05     -37.9615 
         -50       29.778  2.88058e-05  1.54983e-05     -37.9572 
         -50      29.9456  2.87063e-05  1.55353e-05     -37.9528 
         -50      30.1137  2.86075e-05  1.55757e-05     -37.9484 
         -50      30.2821  2.85092e-05  1.56147e-05      -37.944 
         -50      30.4511  2.84107e-05  1.56479e-05     -37.9396 
         -50      30.6204  2.83115e-05  1.56713e-05     -37.9352 
         -50      30.7903  2.82111e-05  1.56815e-05     -37.9307 
         -50      30.9606  2.81092e-05  1.56761e-05     -37.9262 
         -50      31.1315  2.80054e-05  1.56537e-05     -37.9217 
         -50      31.3028  2.79001e-05  1.56142e-05     -37.9172 
         -50      31.4745  2.77937e-05  1.55584e-05     -37.9126 
         -50      31.6468  2.76869e-05  1.54884e-05     -37.9081 
         -50      31.8194  2.75807e-05  1.54077e-05     -37.9035 
         -50      31.9926  2.74765e-05  1.53202e-05     -37.8989 
         -50      32.1662   2.7376e-05  1.52315e-05     -37.8942 
         -50      32.3404  2.72808e-05  1.51469e-05     -37.8896 
         -50      32.5149   2.7193e-05  1.50729e-05     -37.8849 
         -50        32.69  2.71141e-05  1.50151e-05     -37.8802 
         -50      32.8655   2.7046e-05  1.49794e-05     -37.8755 
         -50      33.0414  2.69899e-05    1.497e-05     -37.8708 
         -50       33.218  2.69465e-05    1.499e-05      -37.866 
         -50      33.3948  2.69157e-05  1.50398e-05     -37.8613 
         -50      33.5723  2.68963e-05  1.51168e-05     -37.8565 
         -50        33.75  2.68859e-05  1.52146e-05     -37.8517 
         -50      33.9284  2.68801e-05  1.53218e-05     -37.8468 
         -50      34.1073  2.68726e-05  1.54208e-05      -37.842 
         -50      34.2865  2.68545e-05  1.54871e-05     -37.8371 
         -50      34.4663   2.6814e-05  1.54875e-05     -37.8322 
         -50      34.6465  2.67359e-05  1.53792e-05     -37.8273 
         -50      34.8272  2.66005e-05  1.51077e-05     -37.8224 
         -50      35.0083  2.62607e-05   1.5043e-05     -37.8175 
         -50        35.19  2.59985e-05  1.53607e-05     -37.8125 
         -50      35.3721  2.59856e-05  1.58783e-05     -37.8075 
         -50      35.5546  2.61328e-05  1.64292e-05     -37.8025 
         -50      35.7377  2.59178e-05  1.59045e-05     -37.7975 
         -50      35.9211   2.5739e-05  1.54175e-05     -37.7925 
         -50      36.1052  2.55804e-05  1.49416e-05     -37.7874 
         -50      36.2895  2.54268e-05  1.44566e-05     -37.7824 
         -50      36.4745  2.52633e-05  1.39456e-05     -37.7773 
         -50      36.6598  2.50757e-05  1.33974e-05     -37.7722 
         -50      36.8457  2.48659e-05  1.28601e-05      -37.767 
         -50      37.0321  2.49056e-05  1.32748e-05     -37.7619 
         -50      37.2188  2.49365e-05   1.3654e-05     -37.7567 
         -50      37.4062  2.49619e-05  1.39965e-05     -37.7516 
         -50      37.5938  2.49842e-05  1.43008e-05     -37.7464 
         -50      37.7821  2.50049e-05  1.45675e-05     -37.7412 
         -50      37.9707  2.50249e-05  1.47972e-05      -37.736 
         -50      38.1599  2.50441e-05   1.4992e-05     -37.7307 
         -50      38.3496  2.50622e-05   1.5154e-05     -37.7255 
         -50      38.5396  2.50783e-05  1.52859e-05     -37.7202 
         -50      38.7302  2.50915e-05  1.53914e-05     -37.7149 
         -50      38.9211  2.51004e-05  1.54736e-05     -37.7096 
         -50      39.1127  2.51038e-05  1.55366e-05     -37.7043 
         -50      39.3046  2.51002e-05  1.55841e-05     -37.6989 
         -50      39.4971  2.50885e-05  1.56199e-05     -37.6936 
         -50      39.6899  2.50675e-05  1.56477e-05     -37.6882 
         -50      39.8833  2.50364e-05  1.56711e-05     -37.6828 
         -50      40.0772  2.49946e-05  1.56933e-05     -37.6774 
         -50      40.2714  2.49417e-05  1.57171e-05      -37.672 
         -50      40.4663  2.48778e-05   1.5745e-05     -37.6666 
         -50      40.6615  2.48031e-05  1.57789e-05     -37.6612 
         -50      40.8573  2.47183e-05  1.58202e-05     -37.6557 
         -50      41.0534  2.46245e-05  1.58694e-05     -37.6503 
         -50      41.2501  2.45227e-05  1.59268e-05     -37.6448 
         -50      41.4473  2.44145e-05  1.59915e-05     -37.6393 
         -50      41.6448  2.43017e-05   1.6062e-05     -37.6338 
         -50      41.8429  2.41859e-05  1.61362e-05     -37.6282 
         -50      42.0414  2.40689e-05  1.62106e-05     -37.6227 
         -50      42.2405  2.39522e-05  1.62817e-05     -37.6172 
         -50      42.4399  2.38374e-05  1.63443e-05     -37.6116 
         -50      42.6399  2.37252e-05   1.6393e-05      -37.606 
         -50      42.8404  2.36162e-05  1.64213e-05     -37.6004 
         -50      43.0412  2.35099e-05   1.6422e-05     -37.5948 
         -50      43.2426  2.34048e-05  1.63869e-05     -37.5892 
         -50      43.4444  2.32983e-05  1.63076e-05     -37.5836 
         -50      43.6467  2.31861e-05  1.61744e-05      -37.578 
         -50      43.8494  2.30623e-05  1.59776e-05     -37.5723 
         -50      44.0527  2.29186e-05  1.57066e-05     -37.5666 
         -50      44.2563  2.27477e-05  1.53606e-05      -37.561 
         -50      44.4606  2.26789e-05  1.53514e-05     -37.5553 
         -50      44.6653  2.25777e-05  1.52785e-05     -37.5496 
         -50      44.8704  2.24475e-05   1.5171e-05     -37.5439 
         -50       45.076  2.22913e-05  1.50528e-05     -37.5382 
         -50       45.282  2.21137e-05   1.4943e-05     -37.5324 
         -50      45.4886  2.19204e-05  1.48557e-05     -37.5267 
         -50      45.6955  2.17199e-05   1.4801e-05      -37.521 
         -50       45.903  2.15233e-05  1.47851e-05     -37.5152 
         -50      46.1111  2.13459e-05  1.48104e-05     -37.5094 
         -50      46.3194  2.12077e-05  1.48763e-05     -37.5036 
         -50      46.5283  2.11338e-05  1.49798e-05     -37.4979 
         -50      46.7376  2.11559e-05  1.51155e-05     -37.4921 
         -50      46.9475   2.1313e-05  1.52772e-05     -37.4863 
         -50      47.1577   2.1652e-05  1.54574e-05     -37.4804 
         -50      47.3685  2.18947e-05  1.54168e-05     -37.4746 
         -50      47.5798  2.16896e-05  1.50675e-05     -37.4688 
         -50      47.7914  2.15253e-05  1.48209e-05     -37.4629 
         -50      48.0037  2.13954e-05  1.46602e-05     -37.4571 