Variables = x, y, u, v, p

Zone, I=800, F=POINT
         400            0           -0           -0     -3.90324 
         400     0.000234 -1.44765e-06  3.45912e-11     -3.90324 
         400     0.000939 -5.55166e-06  5.58342e-10     -3.90324 
         400     0.002113 -1.15962e-05   2.8215e-09     -3.90324 
         400     0.003759 -1.86322e-05  8.89685e-09     -3.90324 
         400     0.005872 -2.56783e-05  2.16035e-08     -3.90324 
         400     0.008457 -3.20557e-05   4.4537e-08     -3.90324 
         400      0.01151  -3.7512e-05  8.18964e-08     -3.90324 
         400     0.015036 -4.23259e-05  1.38576e-07     -3.90324 
         400     0.019031 -4.71669e-05  2.19856e-07     -3.90324 
         400     0.023493 -5.28613e-05  3.31408e-07     -3.90324 
         400     0.028429  -6.0075e-05  4.79455e-07     -3.90324 
         400     0.033831 -6.90045e-05  6.69979e-07     -3.90324 
         400     0.039706 -7.93413e-05  9.09504e-07     -3.90324 
         400     0.046047 -9.04582e-05  1.20396e-06     -3.90324 
         400     0.052863 -0.000102011   1.5598e-06     -3.90324 
         400      0.06015 -0.000114516  1.98259e-06     -3.90324 
         400       0.0679 -0.000129401  2.47708e-06     -3.90324 
         400     0.076126 -0.000147157   3.0488e-06     -3.90324 
         400     0.084816 -0.000163045  3.70097e-06     -3.90324 
         400     0.093982 -0.000182703  4.43782e-06     -3.90324 
         400     0.103611 -0.000202969  5.26076e-06     -3.90324 
         400     0.113718 -0.000224031  6.17265e-06     -3.90324 
         400     0.124286 -0.000245908  7.17259e-06     -3.90324 
         400     0.135333 -0.000268582  8.26202e-06     -3.90324 
         400      0.14685 -0.000291878  9.43889e-06     -3.90324 
         400     0.158827  -0.00031555     1.07e-05     -3.90324 
         400     0.171284 -0.000339377  1.20445e-05     -3.90324 
         400     0.184201 -0.000363076  1.34664e-05     -3.90324 
         400     0.197599 -0.000386491  1.49636e-05     -3.90324 
         400     0.211455 -0.000409452  1.65285e-05     -3.90324 
         400     0.225792 -0.000431888  1.81581e-05     -3.90324 
         400       0.2406 -0.000453541  1.98455e-05     -3.90324 
         400     0.255865 -0.000474022  2.15832e-05     -3.90324 
         400     0.271613 -0.000493547  2.33675e-05     -3.90324 
         400     0.287818 -0.000511813  2.51895e-05     -3.90324 
         400     0.304506 -0.000528767  2.70465e-05     -3.90324 
         400      0.32165 -0.000544321  2.89301e-05     -3.90324 
         400     0.339278 -0.000558454  3.08382e-05     -3.90324 
         400     0.357377  -0.00057113  3.27647e-05     -3.90324 
         400      0.37593 -0.000582331  3.47037e-05     -3.90324 
         400     0.394968 -0.000592089  3.66549e-05     -3.90324 
         400     0.414461 -0.000600412  3.86127e-05     -3.90324 
         400      0.43444 -0.000607353  4.05781e-05     -3.90324 
         400     0.454872  -0.00061295  4.25469e-05     -3.90324 
         400     0.475791 -0.000617268   4.4522e-05     -3.90324 
         400     0.497163 -0.000620359  4.65006e-05     -3.90324 
         400     0.519021 -0.000622287  4.84869e-05     -3.90324 
         400      0.54135 -0.000623107  5.04811e-05     -3.90324 
         400     0.564131 -0.000622869  5.24832e-05     -3.90324 
         400       0.5874 -0.000621617  5.44979e-05     -3.90324 
         400     0.611121 -0.000619382   5.6524e-05     -3.90324 
         400      0.63533  -0.00061617  5.85731e-05     -3.90324 
         400      0.65999 -0.000612123  6.06418e-05     -3.90324 
         400     0.685139 -0.000607212   6.2737e-05     -3.90324 
         400     0.710759 -0.000601424  6.48604e-05     -3.90324 
         400     0.736828 -0.000594757  6.70132e-05     -3.90324 
         400     0.763387 -0.000587203  6.92013e-05     -3.90324 
         400     0.790396 -0.000578785  7.14236e-05     -3.90324 
         400     0.817896  -0.00056951  7.36849e-05     -3.90324 
         400     0.845843 -0.000559425  7.59824e-05     -3.90324 
         400     0.874283 -0.000548554  7.83199e-05     -3.90324 
         400      0.90317 -0.000536967  8.06931e-05     -3.90324 
         400     0.932551 -0.000524706  8.31041e-05     -3.90324 
         400     0.962401 -0.000511852  8.55487e-05     -3.90324 
         400     0.992697 -0.000498496  8.80215e-05     -3.90324 
         400      1.02349 -0.000484706  9.05225e-05     -3.90324 
         400      1.05472 -0.000470599  9.30424e-05     -3.90324 
         400      1.08645 -0.000456253  9.55795e-05     -3.90324 
         400      1.11863 -0.000441796  9.81232e-05     -3.90324 
         400       1.1513  -0.00042731   0.00010067     -3.90324 
         400      1.18444 -0.000412913  0.000103211     -3.90324 
         400      1.21802 -0.000398716  0.000105736     -3.90324 
         400      1.25211 -0.000384789  0.000108241     -3.90324 
         400      1.28663 -0.000371235  0.000110715     -3.90324 
         400      1.32165 -0.000358096  0.000113156     -3.90324 
         400      1.35712 -0.000345435  0.000115553     -3.90324 
         400      1.39308 -0.000333246  0.000117908     -3.90324 
         400      1.42951 -0.000321518  0.000120218     -3.90324 
         400      1.46638 -0.000310197  0.000122484     -3.90324 
         400      1.50375 -0.000299153  0.000124715     -3.90324 
         400      1.54156 -0.000288641  0.000126865     -3.90324 
         400      1.57987 -0.000278229  0.000128954     -3.90324 
         400      1.61863 -0.000267874  0.000130981     -3.90324 
         400      1.65788 -0.000257535  0.000132948     -3.90324 
         400      1.69757 -0.000247208  0.000134851     -3.90324 
         400      1.73776 -0.000236856  0.000136693     -3.90324 
         400      1.77842 -0.000226472  0.000138471     -3.90323 
         400      1.81952 -0.000216054  0.000140182     -3.90323 
         400      1.86113 -0.000205573  0.000141827     -3.90323 
         400      1.90316 -0.000195043  0.000143403     -3.90323 
         400      1.94571 -0.000184443  0.000144909     -3.90323 
         400      1.98869 -0.000173792  0.000146341     -3.90323 
         400      2.03217 -0.000163078    0.0001477     -3.90323 
         400      2.07612 -0.000152316  0.000148981     -3.90323 
         400      2.12051 -0.000141525  0.000150182     -3.90323 
         400       2.1654 -0.000130704  0.000151302     -3.90323 
         400      2.21073 -0.000119885  0.000152337     -3.90323 
         400      2.25656 -0.000109069  0.000153286     -3.90323 
         400      2.30283 -9.82967e-05  0.000154146     -3.90323 
         400       2.3496 -8.75732e-05  0.000154916     -3.90322 
         400      2.39685  -7.6932e-05  0.000155593     -3.90322 
         400      2.44452 -6.64082e-05  0.000156175     -3.90322 
         400      2.49271 -5.60125e-05  0.000156663     -3.90322 
         400      2.54132 -4.57891e-05  0.000157053     -3.90322 
         400      2.59044 -3.57502e-05  0.000157346     -3.90322 
         400         2.64 -2.59397e-05  0.000157541     -3.90322 
         400      2.69006 -1.63696e-05  0.000157638     -3.90322 
         400      2.74056 -7.08168e-06  0.000157638     -3.90322 
         400      2.79156  1.91372e-06  0.000157542     -3.90321 
         400      2.84304  1.05856e-05   0.00015735     -3.90321 
         400      2.89494  1.89062e-05  0.000157066     -3.90321 
         400      2.94735  2.68697e-05  0.000156689     -3.90321 
         400       3.0002  3.44472e-05  0.000156225     -3.90321 
         400      3.05355  4.16369e-05  0.000155674     -3.90321 
         400      3.10733  4.84173e-05  0.000155041     -3.90321 
         400      3.16163  5.47913e-05  0.000154329      -3.9032 
         400      3.21639  6.07488e-05   0.00015354      -3.9032 
         400      3.27158  6.62836e-05  0.000152679      -3.9032 
         400      3.32729  7.14051e-05  0.000151747      -3.9032 
         400      3.38342  7.61077e-05  0.000150749      -3.9032 
         400      3.44007  8.04024e-05  0.000149684      -3.9032 
         400      3.49714  8.42867e-05  0.000148553      -3.9032 
         400      3.55472  8.77699e-05  0.000147356     -3.90319 
         400      3.61273   9.0848e-05   0.00014609     -3.90319 
         400      3.67125  9.35235e-05  0.000144748     -3.90319 
         400      3.73025  9.57858e-05  0.000143324     -3.90319 
         400      3.78967  9.78312e-05  0.000141959     -3.90319 
         400      3.84961  9.96675e-05  0.000140614     -3.90319 
         400      3.90996  0.000101231   0.00013923     -3.90318 
         400      3.97084  0.000102545  0.000137811     -3.90318 
         400      4.03214  0.000103628  0.000136364     -3.90318 
         400      4.09395  0.000104497  0.000134893     -3.90318 
         400      4.15624  0.000105166  0.000133402     -3.90318 
         400      4.21895  0.000105646  0.000131897     -3.90318 
         400      4.28217  0.000105948  0.000130379     -3.90318 
         400      4.34582  0.000106081  0.000128852     -3.90317 
         400      4.40998  0.000106052  0.000127316     -3.90317 
         400      4.47457  0.000105868  0.000125776     -3.90317 
         400      4.53968  0.000105533  0.000124229     -3.90317 
         400      4.60525  0.000105053  0.000122679     -3.90317 
         400      4.67125  0.000104432  0.000121126     -3.90317 
         400      4.73777  0.000103676  0.000119568     -3.90316 
         400       4.8047  0.000102789  0.000118007     -3.90316 
         400      4.87216  0.000101775   0.00011644     -3.90316 
         400      4.94003  0.000100642  0.000114869     -3.90316 
         400      5.00843  9.93937e-05  0.000113291     -3.90316 
         400      5.07724    9.804e-05  0.000111707     -3.90316 
         400      5.14658  9.65863e-05  0.000110115     -3.90316 
         400      5.21639  9.50425e-05  0.000108515     -3.90315 
         400      5.28661  9.34195e-05   0.00010691     -3.90315 
         400      5.35736  9.17249e-05  0.000105296     -3.90315 
         400      5.42852  8.99719e-05  0.000103679     -3.90315 
         400      5.50021  8.81684e-05  0.000102056     -3.90315 
         400      5.57231  8.63273e-05  0.000100436     -3.90315 
         400      5.64493  8.44551e-05  9.88178e-05     -3.90315 
         400      5.71803  8.25612e-05  9.72099e-05     -3.90314 
         400      5.79154  8.06524e-05  9.56206e-05     -3.90314 
         400      5.86558  7.87577e-05  9.39652e-05     -3.90314 
         400      5.94003   7.6863e-05  9.23708e-05     -3.90314 
         400      6.01501  7.49729e-05  9.08707e-05     -3.90314 
         400       6.0904   7.3101e-05  8.95034e-05     -3.90314 
         400      6.16632  7.12554e-05   8.8313e-05     -3.90314 
         400      6.24271  6.93892e-05  8.68313e-05     -3.90313 
         400       6.3195  6.75264e-05  8.50612e-05     -3.90313 
         400      6.39683  6.57083e-05  8.34045e-05     -3.90313 
         400      6.47457  6.39267e-05  8.18414e-05     -3.90313 
         400      6.55284  6.21683e-05  8.03486e-05     -3.90313 
         400      6.63152  6.04267e-05  7.89091e-05     -3.90313 
         400      6.71073   5.8645e-05  7.76125e-05     -3.90313 
         400      6.79034  5.68728e-05   7.6334e-05     -3.90313 
         400      6.87049  5.51212e-05   7.5046e-05     -3.90312 
         400      6.95111  5.33948e-05  7.37487e-05     -3.90312 
         400      7.03214   5.1697e-05  7.24439e-05     -3.90312 
         400       7.1137  5.00261e-05  7.11318e-05     -3.90312 
         400      7.19566  4.83851e-05   6.9818e-05     -3.90312 
         400      7.27816   4.6771e-05  6.85045e-05     -3.90312 
         400      7.36106  4.51859e-05  6.71979e-05     -3.90312 
         400      7.44451  4.36265e-05  6.59007e-05     -3.90312 
         400      7.52842  4.20934e-05  6.46186e-05     -3.90311 
         400      7.61273  4.05872e-05  6.33564e-05     -3.90311 
         400      7.69758   3.9105e-05  6.21155e-05     -3.90311 
         400      7.78283  3.76491e-05  6.09004e-05     -3.90311 
         400      7.86862  3.62174e-05  5.97106e-05     -3.90311 
         400      7.95481  3.48127e-05  5.85483e-05     -3.90311 
         400      8.04155  3.34333e-05  5.74108e-05     -3.90311 
         400      8.12868  3.20823e-05  5.62979e-05     -3.90311 
         400      8.21635  3.07581e-05  5.52046e-05     -3.90311 
         400      8.30449  2.94621e-05  5.41278e-05      -3.9031 
         400      8.39303  2.81949e-05  5.30636e-05      -3.9031 
         400      8.48211  2.69529e-05  5.20051e-05      -3.9031 
         400      8.57159  2.57348e-05  5.09488e-05      -3.9031 
         400      8.66161  2.45334e-05  4.98885e-05      -3.9031 
         400      8.75203  2.33423e-05  4.88226e-05      -3.9031 
         400      8.84299  2.21474e-05  4.77481e-05      -3.9031 
         400      8.93443  2.09329e-05  4.66673e-05      -3.9031 
         400      9.02626  1.97826e-05  4.56761e-05      -3.9031 
         400      9.11863  1.86967e-05  4.47526e-05     -3.90309 
         400      9.21139  1.76318e-05  4.38488e-05     -3.90309 
         400      9.30471  1.65821e-05  4.29579e-05     -3.90309 
         400      9.39841   1.5547e-05  4.20788e-05     -3.90309 
         400      9.49267  1.45231e-05  4.12096e-05     -3.90309 
         400      9.58739  1.35104e-05  4.03516e-05     -3.90309 
         400      9.68251  1.25087e-05  3.95068e-05     -3.90309 
         400      9.77817  1.15156e-05  3.86748e-05     -3.90309 
         400      9.87422  1.05321e-05  3.78577e-05     -3.90309 
         400      9.97083   9.5561e-06  3.70538e-05     -3.90309 
         400      10.0678   8.5893e-06  3.62635e-05     -3.90309 
         400      10.1654   7.6316e-06  3.54835e-05     -3.90308 
         400      10.2633  6.68803e-06  3.47129e-05     -3.90308 
         400      10.3618  5.76372e-06  3.39481e-05     -3.90308 
         400      10.4607  4.87062e-06  3.31885e-05     -3.90308 
         400      10.5601  4.02675e-06  3.24355e-05     -3.90308 
         400        10.66  3.25628e-06  3.16922e-05     -3.90308 
         400      10.7603  2.56975e-06  3.09665e-05     -3.90308 
         400      10.8611  1.74224e-06  3.02633e-05     -3.90308 
         400      10.9623  9.41337e-07  2.96038e-05     -3.90308 
         400      11.0641  1.62071e-07  2.89694e-05     -3.90308 
         400      11.1663 -5.98159e-07   2.8347e-05     -3.90308 
         400       11.269 -1.34122e-06  2.77275e-05     -3.90307 
         400      11.3721  -2.0697e-06  2.71037e-05     -3.90307 
         400      11.4757 -2.78245e-06  2.64743e-05     -3.90307 
         400      11.5798 -3.47894e-06  2.58388e-05     -3.90307 
         400      11.6844 -4.15442e-06  2.52014e-05     -3.90307 
         400      11.7894 -4.80403e-06  2.45669e-05     -3.90307 
         400       11.895 -5.41867e-06  2.39431e-05     -3.90307 
         400      12.0009 -5.98648e-06  2.33392e-05     -3.90307 
         400      12.1073 -6.49373e-06  2.27634e-05     -3.90307 
         400      12.2142 -6.96245e-06  2.22442e-05     -3.90307 
         400      12.3216 -7.60683e-06   2.1814e-05     -3.90307 
         400      12.4294 -8.23062e-06  2.13403e-05     -3.90307 
         400      12.5378 -8.83555e-06  2.08375e-05     -3.90306 
         400      12.6465 -9.42137e-06   2.0319e-05     -3.90306 
         400      12.7558 -9.98969e-06  1.97944e-05     -3.90306 
         400      12.8656 -1.05407e-05  1.92723e-05     -3.90306 
         400      12.9757 -1.10744e-05  1.87594e-05     -3.90306 
         400      13.0864 -1.15924e-05  1.82597e-05     -3.90306 
         400      13.1975 -1.20943e-05  1.77772e-05     -3.90306 
         400      13.3092 -1.25815e-05  1.73129e-05     -3.90306 
         400      13.4212 -1.30535e-05  1.68685e-05     -3.90306 
         400      13.5338 -1.35117e-05  1.64432e-05     -3.90306 
         400      13.6468  -1.3956e-05  1.60365e-05     -3.90306 
         400      13.7603 -1.43867e-05  1.56474e-05     -3.90306 
         400      13.8743 -1.48047e-05  1.52736e-05     -3.90305 
         400      13.9886 -1.52099e-05  1.49137e-05     -3.90305 
         400      14.1036 -1.56033e-05  1.45651e-05     -3.90305 
         400      14.2189 -1.59848e-05  1.42264e-05     -3.90305 
         400      14.3348 -1.63553e-05   1.3895e-05     -3.90305 
         400       14.451 -1.67146e-05    1.357e-05     -3.90305 
         400      14.5678 -1.70639e-05  1.32495e-05     -3.90305 
         400      14.6851 -1.74032e-05  1.29329e-05     -3.90305 
         400      14.8028 -1.77328e-05  1.26197e-05     -3.90305 
         400       14.921 -1.80537e-05  1.23093e-05     -3.90305 
         400      15.0396 -1.83658e-05  1.20023e-05     -3.90305 
         400      15.1588 -1.86701e-05  1.16989e-05     -3.90305 
         400      15.2783 -1.89667e-05  1.14001e-05     -3.90304 
         400      15.3984 -1.92565e-05  1.11062e-05     -3.90304 
         400       15.519 -1.95398e-05  1.08181e-05     -3.90304 
         400        15.64  -1.9817e-05  1.05365e-05     -3.90304 
         400      15.7615 -2.00891e-05  1.02608e-05     -3.90304 
         400      15.8834  -2.0356e-05  9.99038e-06     -3.90304 
         400      16.0058 -2.06189e-05  9.72267e-06     -3.90304 
         400      16.1286 -2.08883e-05  9.46229e-06     -3.90304 
         400       16.252 -2.11767e-05  9.21018e-06     -3.90304 
         400      16.3759 -2.14611e-05  8.96242e-06     -3.90304 
         400      16.5002 -2.17372e-05  8.74315e-06     -3.90304 
         400       16.625  -2.1999e-05  8.58457e-06     -3.90304 
         400      16.7501 -2.22583e-05  8.34669e-06     -3.90303 
         400      16.8759 -2.24708e-05  7.86824e-06     -3.90303 
         400       17.002 -2.23521e-05   7.6944e-06     -3.90303 
         400      17.1287 -2.23743e-05  7.54778e-06     -3.90303 
         400      17.2557 -2.26724e-05  7.33466e-06     -3.90303 
         400      17.3834 -2.29661e-05  7.09642e-06     -3.90303 
         400      17.5115 -2.32469e-05  6.85032e-06     -3.90303 
         400      17.6399 -2.35085e-05  6.60928e-06     -3.90303 
         400       17.769 -2.37477e-05  6.38172e-06     -3.90303 
         400      17.8984 -2.39622e-05  6.17347e-06     -3.90303 
         400      18.0284  -2.4152e-05  5.98684e-06     -3.90303 
         400      18.1587 -2.43176e-05  5.82239e-06     -3.90302 
         400      18.2896 -2.44614e-05  5.67827e-06     -3.90302 
         400       18.421  -2.4586e-05   5.5516e-06     -3.90302 
         400      18.5528 -2.46947e-05  5.43843e-06     -3.90302 
         400      18.6851 -2.47915e-05  5.33399e-06     -3.90302 
         400      18.8178   -2.488e-05  5.23362e-06     -3.90302 
         400      18.9511 -2.49642e-05  5.13245e-06     -3.90302 
         400      19.0847 -2.50475e-05  5.02635e-06     -3.90302 
         400      19.2189 -2.51333e-05  4.91154e-06     -3.90302 
         400      19.3535 -2.52241e-05  4.78547e-06     -3.90302 
         400      19.4886 -2.53223e-05  4.64623e-06     -3.90302 
         400      19.6242  -2.5429e-05  4.49341e-06     -3.90301 
         400      19.7602  -2.5545e-05   4.3278e-06     -3.90301 
         400      19.8968 -2.56701e-05  4.15101e-06     -3.90301 
         400      20.0337 -2.58035e-05   3.9663e-06     -3.90301 
         400      20.1712 -2.59436e-05  3.77733e-06     -3.90301 
         400      20.3091 -2.60881e-05  3.58908e-06     -3.90301 
         400      20.4475 -2.62344e-05  3.40637e-06     -3.90301 
         400      20.5864 -2.63794e-05  3.23451e-06     -3.90301 
         400      20.7257 -2.65197e-05  3.07831e-06     -3.90301 
         400      20.8655 -2.66526e-05  2.94119e-06     -3.90301 
         400      21.0058 -2.67751e-05  2.82528e-06       -3.903 
         400      21.1465 -2.68856e-05   2.7298e-06       -3.903 
         400      21.2877 -2.69833e-05  2.65084e-06       -3.903 
         400      21.4294 -2.70696e-05  2.57975e-06       -3.903 
         400      21.5716 -2.71477e-05  2.50236e-06       -3.903 
         400      21.7142 -2.72238e-05  2.39762e-06       -3.903 
         400      21.8573 -2.73079e-05  2.23578e-06       -3.903 
         400      22.0008 -2.74132e-05  1.97971e-06       -3.903 
         400      22.1449 -2.74402e-05  1.98516e-06       -3.903 
         400      22.2893 -2.74747e-05  1.94972e-06     -3.90299 
         400      22.4344 -2.75149e-05  1.88787e-06     -3.90299 
         400      22.5797 -2.75592e-05  1.81153e-06     -3.90299 
         400      22.7257 -2.76063e-05  1.72991e-06     -3.90299 
         400      22.8721 -2.76552e-05   1.6502e-06     -3.90299 
         400      23.0189  -2.7705e-05  1.57754e-06     -3.90299 
         400      23.1663  -2.7755e-05  1.51516e-06     -3.90299 
         400       23.314 -2.78045e-05  1.46495e-06     -3.90299 
         400      23.4623 -2.78531e-05   1.4273e-06     -3.90298 
         400       23.611 -2.79005e-05  1.40167e-06     -3.90298 
         400      23.7602 -2.79462e-05  1.38652e-06     -3.90298 
         400        23.91 -2.79901e-05  1.37971e-06     -3.90298 
         400        24.06 -2.80316e-05  1.37859e-06     -3.90298 
         400      24.2107 -2.80708e-05  1.38023e-06     -3.90298 
         400      24.3617 -2.81071e-05  1.38158e-06     -3.90298 
         400      24.5133 -2.81405e-05  1.37965e-06     -3.90298 
         400      24.6653 -2.81706e-05  1.37166e-06     -3.90298 
         400      24.8178 -2.81972e-05  1.35516e-06     -3.90297 
         400      24.9708   -2.822e-05  1.32818e-06     -3.90297 
         400      25.1242 -2.82389e-05  1.28936e-06     -3.90297 
         400      25.2781 -2.82537e-05  1.23792e-06     -3.90297 
         400      25.4324 -2.82644e-05  1.17394e-06     -3.90297 
         400      25.5873  -2.8271e-05  1.09813e-06     -3.90297 
         400      25.7426 -2.82737e-05  1.01221e-06     -3.90297 
         400      25.8984 -2.82732e-05  9.18493e-07     -3.90296 
         400      26.0546 -2.82699e-05  8.20345e-07     -3.90296 
         400      26.2114 -2.82651e-05  7.21604e-07     -3.90296 
         400      26.3686 -2.82602e-05  6.27019e-07     -3.90296 
         400      26.5262 -2.82572e-05    5.419e-07     -3.90296 
         400      26.6844 -2.82586e-05  4.71797e-07     -3.90296 
         400      26.8429 -2.82676e-05   4.2277e-07     -3.90296 
         400       27.002 -2.82884e-05  4.00766e-07     -3.90295 
         400      27.1615 -2.83258e-05  4.11663e-07     -3.90295 
         400      27.3216 -2.83859e-05  4.60878e-07     -3.90295 
         400      27.4821  -2.8476e-05  5.53047e-07     -3.90295 
         400       27.643 -2.85981e-05  4.82745e-07     -3.90295 
         400      27.8044 -2.86336e-05  2.41786e-07     -3.90295 
         400      27.9663 -2.86379e-05  9.86329e-08     -3.90295 
         400      28.1287 -2.86219e-05  2.54323e-08     -3.90294 
         400      28.2914 -2.85946e-05 -4.98723e-10     -3.90294 
         400      28.4548 -2.85634e-05  2.34676e-09     -3.90294 
         400      28.6185 -2.85337e-05  1.94748e-08     -3.90294 
         400      28.7828 -2.85096e-05  3.99374e-08     -3.90294 
         400      28.9475 -2.84939e-05  5.58642e-08     -3.90294 
         400      29.1126 -2.84883e-05  6.21187e-08     -3.90293 
         400      29.2784 -2.84931e-05  5.59108e-08     -3.90293 
         400      29.4444 -2.85081e-05    3.641e-08     -3.90293 
         400       29.611 -2.85323e-05  4.34122e-09     -3.90293 
         400       29.778 -2.85639e-05 -3.82382e-08     -3.90293 
         400      29.9456 -2.86008e-05 -8.84619e-08     -3.90293 
         400      30.1137 -2.86406e-05 -1.42746e-07     -3.90292 
         400      30.2821 -2.86806e-05 -1.97166e-07     -3.90292 
         400      30.4511 -2.87183e-05 -2.47861e-07     -3.90292 
         400      30.6204  -2.8751e-05 -2.90986e-07     -3.90292 
         400      30.7903 -2.87764e-05  -3.2323e-07     -3.90292 
         400      30.9606 -2.87924e-05 -3.41739e-07     -3.90292 
         400      31.1315 -2.87974e-05 -3.44469e-07     -3.90291 
         400      31.3028 -2.87904e-05 -3.30182e-07     -3.90291 
         400      31.4745  -2.8771e-05 -2.98634e-07     -3.90291 
         400      31.6468 -2.87394e-05 -2.50496e-07     -3.90291 
         400      31.8194 -2.86968e-05 -1.87576e-07     -3.90291 
         400      31.9926 -2.86452e-05 -1.12488e-07      -3.9029 
         400      32.1662 -2.85877e-05 -2.89735e-08      -3.9029 
         400      32.3404 -2.85282e-05  5.86784e-08      -3.9029 
         400      32.5149 -2.84719e-05  1.45281e-07      -3.9029 
         400        32.69 -2.84249e-05  2.25506e-07      -3.9029 
         400      32.8655 -2.83945e-05  2.93665e-07      -3.9029 
         400      33.0414 -2.83891e-05  3.44291e-07     -3.90289 
         400       33.218 -2.84185e-05  3.72592e-07     -3.90289 
         400      33.3948 -2.84932e-05  3.74669e-07     -3.90289 
         400      33.5723 -2.86252e-05  3.48184e-07     -3.90289 
         400        33.75 -2.88272e-05  2.92938e-07     -3.90289 
         400      33.9284 -2.91084e-05   2.1189e-07     -3.90288 
         400      34.1073 -2.88781e-05  1.97508e-07     -3.90288 
         400      34.2865 -2.87131e-05  2.02821e-07     -3.90288 
         400      34.4663 -2.86034e-05  2.21022e-07     -3.90288 
         400      34.6465 -2.85395e-05  2.45766e-07     -3.90288 
         400      34.8272 -2.85125e-05  2.71366e-07     -3.90287 
         400      35.0083  -2.8514e-05  2.92766e-07     -3.90287 
         400        35.19  -2.8536e-05  3.05784e-07     -3.90287 
         400      35.3721 -2.85712e-05  3.07093e-07     -3.90287 
         400      35.5546 -2.86125e-05  2.94417e-07     -3.90287 
         400      35.7377 -2.86534e-05  2.66554e-07     -3.90286 
         400      35.9211 -2.86879e-05   2.2358e-07     -3.90286 
         400      36.1052 -2.87104e-05  1.66765e-07     -3.90286 
         400      36.2895 -2.87153e-05  9.89343e-08     -3.90286 
         400      36.4745 -2.86978e-05  2.42138e-08     -3.90285 
         400      36.6598  -2.8653e-05 -5.14681e-08     -3.90285 
         400      36.8457 -2.85763e-05 -1.20748e-07     -3.90285 
         400      37.0321 -2.85955e-05 -1.28473e-07     -3.90285 
         400      37.2188 -2.86068e-05 -9.50263e-08     -3.90285 
         400      37.4062  -2.8609e-05 -3.44907e-08     -3.90284 
         400      37.5938 -2.86052e-05  4.19878e-08     -3.90284 
         400      37.7821  -2.8598e-05   1.2531e-07     -3.90284 
         400      37.9707 -2.85892e-05  2.07945e-07     -3.90284 
         400      38.1599 -2.85801e-05  2.84388e-07     -3.90283 
         400      38.3496 -2.85716e-05  3.50627e-07     -3.90283 
         400      38.5396 -2.85641e-05  4.04276e-07     -3.90283 
         400      38.7302 -2.85574e-05  4.44547e-07     -3.90283 
         400      38.9211 -2.85514e-05  4.71817e-07     -3.90282 
         400      39.1127 -2.85453e-05  4.87705e-07     -3.90282 
         400      39.3046 -2.85386e-05  4.94677e-07     -3.90282 
         400      39.4971 -2.85307e-05  4.95911e-07     -3.90282 
         400      39.6899 -2.85209e-05  4.94962e-07     -3.90281 
         400      39.8833 -2.85094e-05  4.95465e-07     -3.90281 
         400      40.0772 -2.84963e-05  5.00784e-07     -3.90281 
         400      40.2714  -2.8483e-05  5.13608e-07     -3.90281 
         400      40.4663 -2.84714e-05  5.35564e-07      -3.9028 
         400      40.6615 -2.84648e-05  5.66661e-07      -3.9028 
         400      40.8573 -2.84681e-05  6.04921e-07      -3.9028 
         400      41.0534 -2.84877e-05   6.4563e-07      -3.9028 
         400      41.2501 -2.85323e-05   6.8096e-07     -3.90279 
         400      41.4473 -2.86128e-05  6.99102e-07     -3.90279 
         400      41.6448 -2.87431e-05  6.83724e-07     -3.90279 
         400      41.8429 -2.89403e-05   6.1312e-07     -3.90279 
         400      42.0414 -2.90573e-05  5.27208e-07     -3.90278 
         400      42.2405 -2.89528e-05  5.08271e-07     -3.90278 
         400      42.4399 -2.88618e-05   4.8121e-07     -3.90278 
         400      42.6399 -2.87864e-05  4.48503e-07     -3.90277 
         400      42.8404 -2.87276e-05   4.1231e-07     -3.90277 
         400      43.0412 -2.86857e-05  3.74435e-07     -3.90277 
         400      43.2426 -2.86597e-05  3.36249e-07     -3.90277 
         400      43.4444 -2.86485e-05  2.98926e-07     -3.90276 
         400      43.6467 -2.86499e-05  2.63226e-07     -3.90276 
         400      43.8494 -2.86619e-05  2.29754e-07     -3.90276 
         400      44.0527 -2.86817e-05  1.98765e-07     -3.90275 
         400      44.2563 -2.87069e-05  1.70398e-07     -3.90275 
         400      44.4606 -2.87347e-05   1.4451e-07     -3.90275 
         400      44.6653 -2.87628e-05  1.20866e-07     -3.90275 
         400      44.8704 -2.87886e-05  9.90954e-08     -3.90274 
         400       45.076 -2.88104e-05  7.86735e-08     -3.90274 
         400       45.282 -2.88264e-05  5.90774e-08     -3.90274 
         400      45.4886 -2.88353e-05  3.96828e-08     -3.90273 
         400      45.6955 -2.88367e-05  1.99263e-08     -3.90273 
         400       45.903 -2.88301e-05 -7.87563e-10     -3.90273 
         400      46.1111  -2.8816e-05 -2.29398e-08     -3.90272 
         400      46.3194 -2.87954e-05 -4.69033e-08     -3.90272 
         400      46.5283 -2.87696e-05 -7.29683e-08     -3.90272 
         400      46.7376 -2.87407e-05 -1.01166e-07     -3.90271 
         400      46.9475 -2.87112e-05 -1.31394e-07     -3.90271 
         400      47.1577 -2.86841e-05   -1.632e-07     -3.90271 
         400      47.3685 -2.86625e-05 -1.95928e-07     -3.90271 
         400      47.5798 -2.86501e-05 -2.28504e-07      -3.9027 
         400      47.7914 -2.86507e-05 -2.59466e-07      -3.9027 
         400      48.0037 -2.86678e-05 -2.86995e-07      -3.9027 