Variables = x, y, u, v, p

Zone, I=800, F=POINT
         550            0            0            0      27.8192 
         550     0.000234  1.58818e-06  1.57165e-11      27.8192 
         550     0.000939  6.00976e-06  2.54511e-10      27.8192 
         550     0.002113  1.22587e-05  1.28829e-09      27.8192 
         550     0.003759  1.89893e-05  4.06978e-09      27.8192 
         550     0.005872  2.48216e-05  9.90421e-09      27.8192 
         550     0.008457  2.87702e-05  2.04719e-08      27.8192 
         550      0.01151  3.04421e-05  3.77591e-08      27.8192 
         550     0.015036  3.01283e-05  6.41118e-08      27.8192 
         550     0.019031  2.86207e-05  1.02105e-07      27.8192 
         550     0.023493   2.6846e-05  1.54555e-07      27.8192 
         550     0.028429  2.54026e-05  2.24608e-07      27.8192 
         550     0.033831  2.42115e-05  3.15373e-07      27.8192 
         550     0.039706  2.24617e-05    4.303e-07      27.8192 
         550     0.046047  1.90475e-05  5.72644e-07      27.8192 
         550     0.052863  1.34347e-05  7.46001e-07      27.8192 
         550      0.06015  6.59666e-06  9.53618e-07      27.8192 
         550       0.0679   8.9626e-07  1.19842e-06      27.8192 
         550     0.076126 -3.21159e-06   1.4838e-06      27.8192 
         550     0.084816 -1.37997e-05  1.81205e-06      27.8192 
         550     0.093982 -2.04257e-05  2.18598e-06      27.8192 
         550     0.103611 -2.87547e-05  2.60702e-06      27.8192 
         550     0.113718 -3.82056e-05  3.07736e-06      27.8192 
         550     0.124286 -4.83118e-05  3.59719e-06      27.8192 
         550     0.135333    -5.88e-05  4.16787e-06      27.8192 
         550      0.14685 -6.95188e-05  4.78888e-06      27.8192 
         550     0.158827 -8.04215e-05  5.45897e-06      27.8192 
         550     0.171284 -9.15261e-05    6.178e-06      27.8192 
         550     0.184201 -0.000102774    6.943e-06      27.8192 
         550     0.197599 -0.000114037  7.75287e-06      27.8192 
         550     0.211455 -0.000125034  8.60337e-06      27.8192 
         550     0.225792 -0.000135504  9.49264e-06      27.8192 
         550       0.2406 -0.000145434  1.04164e-05      27.8192 
         550     0.255865 -0.000155115  1.13699e-05      27.8192 
         550     0.271613 -0.000163839  1.23505e-05      27.8192 
         550     0.287818 -0.000171788  1.33523e-05      27.8192 
         550     0.304506  -0.00017888  1.43728e-05      27.8192 
         550      0.32165 -0.000185024  1.54058e-05      27.8192 
         550     0.339278  -0.00019017   1.6449e-05      27.8192 
         550     0.357377 -0.000194269  1.74977e-05      27.8192 
         550      0.37593 -0.000197298  1.85474e-05      27.8192 
         550     0.394968 -0.000199253  1.95964e-05      27.8192 
         550     0.414461 -0.000200141  2.06403e-05      27.8192 
         550      0.43444 -0.000199987  2.16784e-05      27.8192 
         550     0.454872 -0.000198823  2.27069e-05      27.8192 
         550     0.475791 -0.000196688  2.37262e-05      27.8192 
         550     0.497163 -0.000193633  2.47336e-05      27.8192 
         550     0.519021 -0.000189701  2.57301e-05      27.8192 
         550      0.54135 -0.000184945  2.67148e-05      27.8192 
         550     0.564131 -0.000179426  2.76873e-05      27.8192 
         550       0.5874   -0.0001732  2.86496e-05      27.8192 
         550     0.611121 -0.000166346  2.96015e-05      27.8192 
         550      0.63533 -0.000158858  3.05468e-05      27.8192 
         550      0.65999 -0.000150893  3.14818e-05      27.8192 
         550     0.685139 -0.000142464    3.241e-05      27.8192 
         550     0.710759  -0.00013361  3.33329e-05      27.8192 
         550     0.736828 -0.000124378  3.42509e-05      27.8192 
         550     0.763387 -0.000114801  3.51665e-05      27.8192 
         550     0.790396 -0.000104944  3.60787e-05      27.8192 
         550     0.817896 -9.48522e-05  3.69888e-05      27.8192 
         550     0.845843 -8.46049e-05  3.78946e-05      27.8192 
         550     0.874283 -7.42552e-05  3.87962e-05      27.8192 
         550      0.90317 -6.38943e-05  3.96905e-05      27.8192 
         550     0.932551 -5.35837e-05  4.05765e-05      27.8192 
         550     0.962401 -4.34135e-05  4.14507e-05      27.8192 
         550     0.992697 -3.34744e-05  4.23091e-05      27.8192 
         550      1.02349  -2.3834e-05  4.31496e-05      27.8192 
         550      1.05472 -1.45911e-05  4.39668e-05      27.8192 
         550      1.08645 -5.81065e-06  4.47579e-05      27.8192 
         550      1.11863  2.41675e-06  4.55174e-05      27.8192 
         550       1.1513  1.00345e-05  4.62422e-05      27.8192 
         550      1.18444   1.6974e-05  4.69276e-05      27.8192 
         550      1.21802  2.31797e-05  4.75692e-05      27.8192 
         550      1.25211  2.86243e-05  4.81642e-05      27.8192 
         550      1.28663  3.32769e-05  4.87085e-05      27.8192 
         550      1.32165  3.71425e-05  4.92003e-05      27.8192 
         550      1.35712  4.02334e-05  4.96367e-05      27.8192 
         550      1.39308  4.25981e-05   5.0017e-05      27.8192 
         550      1.42951  4.43058e-05  5.03399e-05      27.8192 
         550      1.46638  4.54585e-05  5.06054e-05      27.8192 
         550      1.50375  4.61957e-05  5.08142e-05      27.8192 
         550      1.54156  4.61541e-05  5.09875e-05      27.8192 
         550      1.57987  4.60757e-05  5.11107e-05      27.8192 
         550      1.61863  4.60244e-05   5.1186e-05      27.8192 
         550      1.65788  4.60154e-05  5.12167e-05      27.8192 
         550      1.69757  4.60617e-05  5.12059e-05      27.8192 
         550      1.73776  4.61746e-05  5.11565e-05      27.8192 
         550      1.77842   4.6363e-05  5.10707e-05      27.8192 
         550      1.81952  4.66337e-05   5.0951e-05      27.8192 
         550      1.86113   4.6992e-05  5.07987e-05      27.8192 
         550      1.90316  4.74403e-05  5.06157e-05      27.8192 
         550      1.94571  4.79803e-05  5.04029e-05      27.8192 
         550      1.98869  4.86099e-05  5.01613e-05      27.8192 
         550      2.03217  4.93276e-05  4.98913e-05      27.8192 
         550      2.07612  5.01283e-05  4.95934e-05      27.8192 
         550      2.12051  5.10054e-05  4.92679e-05      27.8192 
         550       2.1654  5.19528e-05  4.89144e-05      27.8192 
         550      2.21073  5.29606e-05  4.85331e-05      27.8192 
         550      2.25656  5.40207e-05  4.81231e-05      27.8192 
         550      2.30283  5.51212e-05  4.76847e-05      27.8192 
         550       2.3496  5.62529e-05  4.72169e-05      27.8192 
         550      2.39685  5.74038e-05  4.67194e-05      27.8192 
         550      2.44452  5.85617e-05  4.61924e-05      27.8192 
         550      2.49271  5.97172e-05  4.56349e-05      27.8192 
         550      2.54132  6.08579e-05  4.50475e-05      27.8192 
         550      2.59044  6.19757e-05  4.44295e-05      27.8192 
         550         2.64  6.30597e-05   4.3782e-05      27.8192 
         550      2.69006  6.41035e-05  4.31047e-05      27.8192 
         550      2.74056   6.5099e-05  4.23994e-05      27.8192 
         550      2.79156  6.60424e-05   4.1666e-05      27.8192 
         550      2.84304  6.69293e-05  4.09065e-05      27.8192 
         550      2.89494  6.77572e-05  4.01231e-05      27.8192 
         550      2.94735  6.85269e-05  3.93163e-05      27.8192 
         550       3.0002  6.92387e-05  3.84896e-05      27.8192 
         550      3.05355  6.98963e-05  3.76439e-05      27.8192 
         550      3.10733  7.05027e-05  3.67825e-05      27.8192 
         550      3.16163  7.10638e-05  3.59064e-05      27.8192 
         550      3.21639  7.15844e-05  3.50181e-05      27.8192 
         550      3.27158  7.20692e-05  3.41198e-05      27.8192 
         550      3.32729  7.25231e-05   3.3211e-05      27.8192 
         550      3.38342  7.29478e-05   3.2293e-05      27.8192 
         550      3.44007  7.33431e-05  3.13631e-05      27.8192 
         550      3.49714  7.37034e-05  3.04199e-05      27.8192 
         550      3.55472  7.40181e-05  2.94572e-05      27.8192 
         550      3.61273  7.42678e-05  2.84691e-05      27.8192 
         550      3.67125  7.44241e-05  2.74438e-05      27.8192 
         550      3.73025  7.44454e-05  2.63678e-05      27.8192 
         550      3.78967  7.45427e-05  2.54139e-05      27.8192 
         550      3.84961  7.47484e-05   2.4516e-05      27.8192 
         550      3.90996  7.49613e-05  2.35943e-05      27.8192 
         550      3.97084  7.51009e-05  2.26754e-05      27.8192 
         550      4.03214  7.52269e-05  2.17332e-05      27.8192 
         550      4.09395  7.53514e-05  2.07675e-05      27.8192 
         550      4.15624  7.54664e-05  1.97873e-05      27.8192 
         550      4.21895  7.55649e-05  1.88004e-05      27.8192 
         550      4.28217  7.56412e-05  1.78111e-05      27.8192 
         550      4.34582  7.56905e-05  1.68256e-05      27.8192 
         550      4.40998  7.57088e-05  1.58462e-05      27.8192 
         550      4.47457  7.56931e-05  1.48773e-05      27.8192 
         550      4.53968  7.56412e-05  1.39195e-05      27.8192 
         550      4.60525  7.55516e-05  1.29749e-05      27.8192 
         550      4.67125  7.54238e-05  1.20451e-05      27.8192 
         550      4.73777  7.52574e-05  1.11288e-05      27.8192 
         550       4.8047  7.50531e-05  1.02273e-05      27.8192 
         550      4.87216  7.48115e-05   9.3389e-06      27.8192 
         550      4.94003  7.45344e-05  8.46432e-06      27.8192 
         550      5.00843  7.42229e-05   7.6015e-06      27.8192 
         550      5.07724  7.38796e-05  6.75116e-06      27.8192 
         550      5.14658  7.35059e-05  5.91133e-06      27.8192 
         550      5.21639  7.31044e-05  5.08231e-06      27.8192 
         550      5.28661  7.26777e-05  4.26457e-06      27.8192 
         550      5.35736  7.22273e-05  3.45694e-06      27.8192 
         550      5.42852  7.17561e-05  2.66119e-06      27.8192 
         550      5.50021  7.12654e-05  1.87686e-06      27.8192 
         550      5.57231  7.07579e-05   1.1064e-06      27.8192 
         550      5.64493  7.02344e-05  3.50132e-07      27.8192 
         550      5.71803  6.96969e-05 -3.89513e-07      27.8192 
         550      5.79154  6.91469e-05 -1.10994e-06      27.8192 
         550      5.86558  6.85848e-05 -1.81014e-06      27.8192 
         550      5.94003  6.80124e-05 -2.48693e-06      27.8192 
         550      6.01501  6.74295e-05 -3.13955e-06      27.8192 
         550       6.0904  6.68379e-05 -3.76559e-06      27.8192 
         550      6.16632  6.62376e-05 -4.36547e-06      27.8192 
         550      6.24271  6.56301e-05 -4.93922e-06      27.8192 
         550       6.3195  6.50175e-05 -5.48841e-06      27.8192 
         550      6.39683  6.44008e-05   -6.018e-06      27.8192 
         550      6.47457  6.37842e-05 -6.53366e-06      27.8192 
         550      6.55284  6.31706e-05 -7.04592e-06      27.8192 
         550      6.63152  6.25667e-05 -7.56752e-06      27.8192 
         550      6.71073  6.19789e-05 -8.11744e-06      27.8192 
         550      6.79034  6.14483e-05 -8.61314e-06      27.8192 
         550      6.87049  6.09324e-05 -8.94819e-06      27.8192 
         550      6.95111  6.03465e-05 -9.34148e-06      27.8192 
         550      7.03214  5.97219e-05 -9.76868e-06      27.8192 
         550       7.1137  5.90815e-05 -1.02116e-05      27.8192 
         550      7.19566  5.84432e-05 -1.06553e-05      27.8192 
         550      7.27816  5.78179e-05   -1.109e-05      27.8192 
         550      7.36106  5.72132e-05 -1.15084e-05      27.8192 
         550      7.44451   5.6631e-05 -1.19071e-05      27.8192 
         550      7.52842  5.60717e-05 -1.22843e-05      27.8192 
         550      7.61273  5.55329e-05 -1.26401e-05      27.8192 
         550      7.69758  5.50095e-05 -1.29769e-05      27.8192 
         550      7.78283  5.44971e-05 -1.32969e-05      27.8192 
         550      7.86862  5.39894e-05 -1.36037e-05      27.8192 
         550      7.95481   5.3482e-05 -1.39001e-05      27.8192 
         550      8.04155  5.29697e-05 -1.41897e-05      27.8192 
         550      8.12868  5.24501e-05 -1.44742e-05      27.8192 
         550      8.21635   5.1921e-05 -1.47558e-05      27.8192 
         550      8.30449  5.13827e-05 -1.50347e-05      27.8192 
         550      8.39303  5.08379e-05 -1.53102e-05      27.8192 
         550      8.48211  5.02893e-05 -1.55811e-05      27.8192 
         550      8.57159  4.97431e-05 -1.58444e-05      27.8192 
         550      8.66161  4.92048e-05  -1.6097e-05      27.8192 
         550      8.75203  4.86821e-05 -1.63347e-05      27.8192 
         550      8.84299  4.81806e-05 -1.65539e-05      27.8192 
         550      8.93443  4.77059e-05 -1.67512e-05      27.8192 
         550      9.02626  4.72606e-05 -1.69246e-05      27.8192 
         550      9.11863  4.68418e-05 -1.70751e-05      27.8192 
         550      9.21139  4.64419e-05 -1.72062e-05      27.8192 
         550      9.30471  4.59509e-05 -1.73752e-05      27.8192 
         550      9.39841  4.54976e-05 -1.75603e-05      27.8192 
         550      9.49267  4.50963e-05 -1.77649e-05      27.8192 
         550      9.58739  4.47399e-05 -1.80021e-05      27.8192 
         550      9.68251  4.44777e-05 -1.81452e-05      27.8192 
         550      9.77817  4.42076e-05 -1.82153e-05      27.8192 
         550      9.87422  4.38754e-05 -1.83171e-05      27.8192 
         550      9.97083  4.35039e-05 -1.84339e-05      27.8192 
         550      10.0678  4.31123e-05 -1.85527e-05      27.8192 
         550      10.1654  4.27139e-05 -1.86649e-05      27.8192 
         550      10.2633  4.23196e-05 -1.87644e-05      27.8192 
         550      10.3618  4.19356e-05 -1.88482e-05      27.8192 
         550      10.4607  4.15664e-05 -1.89152e-05      27.8192 
         550      10.5601  4.12141e-05 -1.89659e-05      27.8192 
         550        10.66  4.08785e-05 -1.90022e-05      27.8192 
         550      10.7603  4.05589e-05 -1.90265e-05      27.8192 
         550      10.8611  4.02529e-05 -1.90416e-05      27.8192 
         550      10.9623  3.99589e-05 -1.90504e-05      27.8192 
         550      11.0641   3.9674e-05 -1.90553e-05      27.8192 
         550      11.1663  3.93962e-05 -1.90583e-05      27.8192 
         550       11.269  3.91242e-05 -1.90604e-05      27.8192 
         550      11.3721  3.88563e-05 -1.90621e-05      27.8192 
         550      11.4757  3.85927e-05 -1.90627e-05      27.8192 
         550      11.5798  3.83332e-05 -1.90607e-05      27.8192 
         550      11.6844  3.80791e-05 -1.90541e-05      27.8192 
         550      11.7894  3.78312e-05 -1.90402e-05      27.8192 
         550       11.895  3.75911e-05 -1.90163e-05      27.8192 
         550      12.0009  3.73599e-05 -1.89801e-05      27.8192 
         550      12.1073  3.71373e-05 -1.89304e-05      27.8192 
         550      12.2142   3.6922e-05 -1.88676e-05      27.8192 
         550      12.3216  3.67095e-05 -1.87947e-05      27.8192 
         550      12.4294  3.64926e-05 -1.87188e-05      27.8192 
         550      12.5378  3.62584e-05 -1.86515e-05      27.8192 
         550      12.6465  3.59889e-05 -1.86112e-05      27.8192 
         550      12.7558  3.56573e-05 -1.86241e-05      27.8192 
         550      12.8656  3.53815e-05 -1.85937e-05      27.8192 
         550      12.9757  3.52586e-05  -1.8473e-05      27.8192 
         550      13.0864  3.51653e-05  -1.8359e-05      27.8192 
         550      13.1975  3.50851e-05 -1.82452e-05      27.8192 
         550      13.3092  3.50032e-05 -1.81278e-05      27.8192 
         550      13.4212  3.49076e-05 -1.80057e-05      27.8192 
         550      13.5338  3.47896e-05   -1.788e-05      27.8192 
         550      13.6468  3.46447e-05  -1.7754e-05      27.8192 
         550      13.7603   3.4445e-05 -1.76854e-05      27.8192 
         550      13.8743  3.41835e-05 -1.77136e-05      27.8192 
         550      13.9886  3.39395e-05 -1.77164e-05      27.8192 
         550      14.1036  3.37184e-05 -1.76937e-05      27.8192 
         550      14.2189  3.35235e-05 -1.76467e-05      27.8192 
         550      14.3348  3.33547e-05 -1.75769e-05      27.8192 
         550       14.451  3.32105e-05  -1.7487e-05      27.8192 
         550      14.5678  3.30875e-05 -1.73795e-05      27.8192 
         550      14.6851  3.29815e-05 -1.72577e-05      27.8192 
         550      14.8028  3.28878e-05 -1.71249e-05      27.8192 
         550       14.921  3.28012e-05  -1.6984e-05      27.8192 
         550      15.0396   3.2717e-05 -1.68384e-05      27.8192 
         550      15.1588  3.26309e-05 -1.66907e-05      27.8192 
         550      15.2783  3.25397e-05 -1.65434e-05      27.8192 
         550      15.3984  3.24407e-05 -1.63983e-05      27.8192 
         550       15.519   3.2333e-05  -1.6257e-05      27.8192 
         550        15.64  3.22166e-05 -1.61205e-05      27.8192 
         550      15.7615   3.2093e-05 -1.59888e-05      27.8192 
         550      15.8834  3.19649e-05  -1.5862e-05      27.8192 
         550      16.0058  3.18359e-05 -1.57389e-05      27.8192 
         550      16.1286   3.1711e-05 -1.56184e-05      27.8192 
         550       16.252   3.1595e-05 -1.54987e-05      27.8192 
         550      16.3759  3.14934e-05 -1.53778e-05      27.8192 
         550      16.5002   3.1411e-05 -1.52536e-05      27.8192 
         550       16.625  3.13514e-05  -1.5124e-05      27.8192 
         550      16.7501  3.13162e-05 -1.49873e-05      27.8192 
         550      16.8759  3.13043e-05 -1.48421e-05      27.8192 
         550       17.002  3.13103e-05 -1.46885e-05      27.8192 
         550      17.1287  3.13238e-05 -1.45271e-05      27.8192 
         550      17.2557  3.13275e-05 -1.43609e-05      27.8192 
         550      17.3834  3.12959e-05 -1.41946e-05      27.8192 
         550      17.5115  3.11936e-05  -1.4036e-05      27.8192 
         550      17.6399   3.0973e-05  -1.3896e-05      27.8192 
         550       17.769  3.08254e-05 -1.38079e-05      27.8192 
         550      17.8984  3.07852e-05 -1.37032e-05      27.8192 
         550      18.0284  3.07554e-05 -1.35674e-05      27.8192 
         550      18.1587  3.07334e-05 -1.34102e-05      27.8192 
         550      18.2896  3.07166e-05  -1.3239e-05      27.8192 
         550       18.421  3.07029e-05 -1.30606e-05      27.8192 
         550      18.5528  3.06904e-05 -1.28802e-05      27.8192 
         550      18.6851  3.06774e-05 -1.27015e-05      27.8192 
         550      18.8178  3.06624e-05 -1.25276e-05      27.8192 
         550      18.9511  3.06442e-05   -1.236e-05      27.8192 
         550      19.0847   3.0622e-05 -1.22001e-05      27.8192 
         550      19.2189  3.05951e-05 -1.20477e-05      27.8192 
         550      19.3535   3.0563e-05 -1.19026e-05      27.8192 
         550      19.4886  3.05258e-05 -1.17635e-05      27.8192 
         550      19.6242  3.04837e-05 -1.16289e-05      27.8192 
         550      19.7602  3.04376e-05  -1.1497e-05      27.8192 
         550      19.8968  3.03886e-05 -1.13653e-05      27.8192 
         550      20.0337  3.03385e-05 -1.12318e-05      27.8192 
         550      20.1712  3.02895e-05 -1.10935e-05      27.8192 
         550      20.3091  3.02447e-05 -1.09483e-05      27.8192 
         550      20.4475  3.02079e-05 -1.07935e-05      27.8192 
         550      20.5864  3.01837e-05 -1.06267e-05      27.8192 
         550      20.7257  3.01779e-05 -1.04461e-05      27.8192 
         550      20.8655  3.01971e-05 -1.02495e-05      27.8192 
         550      21.0058  3.02495e-05 -1.00357e-05      27.8192 
         550      21.1465  3.03445e-05  -9.8032e-06      27.8192 
         550      21.2877  3.03545e-05  -9.7206e-06      27.8192 
         550      21.4294  3.02655e-05 -9.73027e-06      27.8192 
         550      21.5716   3.0183e-05 -9.69383e-06      27.8192 
         550      21.7142  3.01129e-05 -9.61944e-06      27.8192 
         550      21.8573    3.006e-05 -9.51465e-06      27.8192 
         550      22.0008  3.00285e-05 -9.38677e-06      27.8192 
         550      22.1449  3.00208e-05 -9.24222e-06      27.8192 
         550      22.2893  3.00382e-05  -9.0873e-06      27.8192 
         550      22.4344  3.00802e-05 -8.92731e-06      27.8192 
         550      22.5797  3.01438e-05 -8.76756e-06      27.8192 
         550      22.7257  3.02239e-05 -8.61246e-06      27.8192 
         550      22.8721   3.0312e-05 -8.46651e-06      27.8192 
         550      23.0189  3.03963e-05 -8.33402e-06      27.8192 
         550      23.1663  3.04611e-05 -8.21905e-06      27.8192 
         550       23.314  3.04856e-05  -8.1263e-06      27.8192 
         550      23.4623  3.04442e-05 -8.06065e-06      27.8192 
         550       23.611   3.0305e-05 -8.02811e-06      27.8192 
         550      23.7602   3.0029e-05 -8.03568e-06      27.8192 
         550        23.91   3.0013e-05 -7.87882e-06      27.8192 
         550        24.06  3.00595e-05 -7.71166e-06      27.8192 
         550      24.2107  3.00971e-05 -7.56939e-06      27.8192 
         550      24.3617  3.01267e-05  -7.4474e-06      27.8192 
         550      24.5133  3.01493e-05 -7.34125e-06      27.8192 
         550      24.6653  3.01656e-05  -7.2474e-06      27.8192 
         550      24.8178  3.01767e-05 -7.16248e-06      27.8192 
         550      24.9708  3.01834e-05 -7.08383e-06      27.8192 
         550      25.1242  3.01867e-05 -7.00921e-06      27.8192 
         550      25.2781  3.01874e-05 -6.93661e-06      27.8192 
         550      25.4324  3.01863e-05 -6.86464e-06      27.8192 
         550      25.5873  3.01844e-05 -6.79201e-06      27.8192 
         550      25.7426  3.01823e-05 -6.71796e-06      27.8192 
         550      25.8984  3.01807e-05 -6.64179e-06      27.8192 
         550      26.0546  3.01804e-05 -6.56325e-06      27.8192 
         550      26.2114  3.01819e-05 -6.48209e-06      27.8193 
         550      26.3686  3.01857e-05 -6.39839e-06      27.8193 
         550      26.5262  3.01922e-05  -6.3124e-06      27.8193 
         550      26.6844  3.02018e-05 -6.22427e-06      27.8193 
         550      26.8429  3.02144e-05 -6.13451e-06      27.8193 
         550       27.002  3.02303e-05  -6.0434e-06      27.8193 
         550      27.1615  3.02492e-05 -5.95154e-06      27.8193 
         550      27.3216  3.02709e-05 -5.85922e-06      27.8193 
         550      27.4821  3.02949e-05 -5.76692e-06      27.8193 
         550       27.643  3.03205e-05 -5.67509e-06      27.8193 
         550      27.8044  3.03469e-05 -5.58384e-06      27.8193 
         550      27.9663  3.03728e-05 -5.49349e-06      27.8193 
         550      28.1287   3.0397e-05 -5.40396e-06      27.8193 
         550      28.2914  3.04176e-05  -5.3153e-06      27.8193 
         550      28.4548  3.04329e-05 -5.22711e-06      27.8193 
         550      28.6185  3.04405e-05 -5.13912e-06      27.8193 
         550      28.7828  3.04377e-05 -5.05057e-06      27.8193 
         550      28.9475  3.04217e-05 -4.96072e-06      27.8193 
         550      29.1126  3.03889e-05 -4.86864e-06      27.8193 
         550      29.2784  3.03854e-05 -4.76199e-06      27.8193 
         550      29.4444  3.04056e-05 -4.64401e-06      27.8193 
         550       29.611  3.04214e-05 -4.52311e-06      27.8193 
         550       29.778  3.04335e-05 -4.40182e-06      27.8193 
         550      29.9456  3.04433e-05 -4.28257e-06      27.8193 
         550      30.1137  3.04535e-05 -4.16833e-06      27.8193 
         550      30.2821  3.04682e-05 -4.06229e-06      27.8193 
         550      30.4511   3.0493e-05 -3.96755e-06      27.8193 
         550      30.6204   3.0535e-05 -3.88765e-06      27.8193 
         550      30.7903  3.06038e-05 -3.82593e-06      27.8193 
         550      30.9606  3.07107e-05 -3.78593e-06      27.8193 
         550      31.1315  3.08698e-05 -3.77098e-06      27.8193 
         550      31.3028  3.10521e-05  -3.7722e-06      27.8193 
         550      31.4745  3.08327e-05 -3.66089e-06      27.8193 
         550      31.6468  3.07176e-05 -3.56434e-06      27.8193 
         550      31.8194  3.06854e-05  -3.4852e-06      27.8193 
         550      31.9926  3.07166e-05 -3.42632e-06      27.8193 
         550      32.1662  3.07937e-05 -3.39121e-06      27.8193 
         550      32.3404  3.09008e-05  -3.3836e-06      27.8193 
         550      32.5149   3.1024e-05 -3.40762e-06      27.8193 
         550        32.69  3.11513e-05 -3.46774e-06      27.8193 
         550      32.8655  3.10732e-05 -3.31836e-06      27.8193 
         550      33.0414  3.09702e-05 -3.13494e-06      27.8193 
         550       33.218  3.08999e-05  -2.9832e-06      27.8193 
         550      33.3948   3.0857e-05 -2.85745e-06      27.8193 
         550      33.5723  3.08359e-05 -2.75262e-06      27.8193 
         550        33.75  3.08318e-05 -2.66494e-06      27.8193 
         550      33.9284    3.084e-05 -2.59107e-06      27.8193 
         550      34.1073  3.08565e-05  -2.5286e-06      27.8193 
         550      34.2865  3.08776e-05 -2.47561e-06      27.8193 
         550      34.4663  3.09004e-05 -2.43052e-06      27.8193 
         550      34.6465  3.09224e-05 -2.39226e-06      27.8193 
         550      34.8272  3.09416e-05 -2.35987e-06      27.8193 
         550      35.0083  3.09567e-05 -2.33272e-06      27.8193 
         550        35.19  3.09671e-05 -2.31015e-06      27.8193 
         550      35.3721  3.09723e-05 -2.29164e-06      27.8193 
         550      35.5546  3.09729e-05 -2.27664e-06      27.8193 
         550      35.7377  3.09695e-05 -2.26452e-06      27.8193 
         550      35.9211  3.09634e-05 -2.25464e-06      27.8193 
         550      36.1052  3.09561e-05  -2.2462e-06      27.8193 
         550      36.2895  3.09495e-05 -2.23838e-06      27.8193 
         550      36.4745  3.09455e-05 -2.23022e-06      27.8193 
         550      36.6598  3.09463e-05 -2.22075e-06      27.8193 
         550      36.8457  3.09537e-05 -2.20898e-06      27.8193 
         550      37.0321  3.09695e-05 -2.19397e-06      27.8193 
         550      37.2188  3.09951e-05 -2.17492e-06      27.8193 
         550      37.4062  3.10314e-05 -2.15123e-06      27.8193 
         550      37.5938  3.10783e-05 -2.12267e-06      27.8193 
         550      37.7821  3.11349e-05 -2.08945e-06      27.8193 
         550      37.9707   3.1199e-05 -2.05245e-06      27.8193 
         550      38.1599   3.1267e-05  -2.0133e-06      27.8193 
         550      38.3496  3.13335e-05 -1.97467e-06      27.8193 
         550      38.5396  3.13907e-05 -1.94049e-06      27.8193 
         550      38.7302  3.14289e-05 -1.91608e-06      27.8193 
         550      38.9211  3.14352e-05 -1.90859e-06      27.8193 
         550      39.1127  3.13938e-05 -1.92719e-06      27.8193 
         550      39.3046  3.12811e-05 -1.90721e-06      27.8193 
         550      39.4971  3.12047e-05  -1.8745e-06      27.8193 
         550      39.6899  3.11812e-05  -1.8646e-06      27.8193 
         550      39.8833  3.11969e-05 -1.86919e-06      27.8193 
         550      40.0772  3.12398e-05 -1.88139e-06      27.8193 
         550      40.2714  3.12992e-05 -1.89561e-06      27.8193 
         550      40.4663  3.13662e-05 -1.90754e-06      27.8193 
         550      40.6615  3.14332e-05 -1.91397e-06      27.8193 
         550      40.8573  3.14945e-05 -1.91281e-06      27.8193 
         550      41.0534  3.15458e-05 -1.90294e-06      27.8193 
         550      41.2501  3.15841e-05 -1.88419e-06      27.8193 
         550      41.4473  3.16081e-05 -1.85724e-06      27.8193 
         550      41.6448  3.16176e-05 -1.82367e-06      27.8193 
         550      41.8429  3.16138e-05 -1.78571e-06      27.8193 
         550      42.0414  3.15991e-05 -1.74648e-06      27.8193 
         550      42.2405  3.15766e-05  -1.7097e-06      27.8193 
         550      42.4399  3.15505e-05 -1.67987e-06      27.8193 
         550      42.6399  3.15254e-05 -1.66212e-06      27.8193 
         550      42.8404  3.15065e-05 -1.66234e-06      27.8193 
         550      43.0412  3.14991e-05 -1.68706e-06      27.8193 
         550      43.2426  3.15084e-05 -1.74361e-06      27.8193 
         550      43.4444  3.15392e-05 -1.83996e-06      27.8193 
         550      43.6467  3.15958e-05 -1.98512e-06      27.8193 
         550      43.8494  3.16006e-05 -2.02597e-06      27.8193 
         550      44.0527  3.15394e-05 -1.92774e-06      27.8193 
         550      44.2563  3.14952e-05 -1.85781e-06      27.8193 
         550      44.4606  3.14641e-05 -1.81277e-06      27.8193 
         550      44.6653  3.14431e-05 -1.78922e-06      27.8193 
         550      44.8704  3.14293e-05 -1.78358e-06      27.8193 
         550       45.076  3.14205e-05  -1.7922e-06      27.8193 
         550       45.282  3.14146e-05 -1.81146e-06      27.8193 
         550      45.4886  3.14103e-05 -1.83782e-06      27.8193 
         550      45.6955  3.14064e-05 -1.86785e-06      27.8193 
         550       45.903  3.14025e-05  -1.8984e-06      27.8193 
         550      46.1111  3.13984e-05 -1.92655e-06      27.8193 
         550      46.3194  3.13944e-05 -1.94972e-06      27.8193 
         550      46.5283  3.13913e-05 -1.96588e-06      27.8193 
         550      46.7376  3.13902e-05 -1.97342e-06      27.8193 
         550      46.9475  3.13924e-05  -1.9714e-06      27.8193 
         550      47.1577  3.13998e-05 -1.95958e-06      27.8193 
         550      47.3685  3.14143e-05 -1.93847e-06      27.8193 
         550      47.5798  3.14382e-05 -1.90952e-06      27.8193 
         550      47.7914  3.14737e-05 -1.87518e-06      27.8193 
         550      48.0037  3.15233e-05 -1.83891e-06      27.8193 