Variables = x, y, u, v, p

Zone, I=800, F=POINT
          -5            0            0            0     -25.2519 
          -5     0.000234 -5.54177e-06  3.67755e-10     -25.2519 
          -5     0.000939 -2.08343e-05  1.44845e-09     -25.2519 
          -5     0.002113 -4.20096e-05  3.18294e-09     -25.2519 
          -5     0.003759 -6.39292e-05  5.55964e-09     -25.2519 
          -5     0.005872 -8.14509e-05  8.68347e-09     -25.2519 
          -5     0.008457 -9.11029e-05  1.28769e-08     -25.2519 
          -5      0.01151 -9.19346e-05  1.86797e-08     -25.2519 
          -5     0.015036 -8.58446e-05  2.68418e-08     -25.2519 
          -5     0.019031 -7.68647e-05  3.81826e-08     -25.2519 
          -5     0.023493 -6.96211e-05  5.34638e-08     -25.2519 
          -5     0.028429 -6.73933e-05  7.33004e-08     -25.2519 
          -5     0.033831 -7.05525e-05  9.80409e-08     -25.2519 
          -5     0.039706 -7.61557e-05  1.28024e-07     -25.2519 
          -5     0.046047  -7.9454e-05  1.63765e-07     -25.2519 
          -5     0.052863 -7.73353e-05  2.06506e-07     -25.2519 
          -5      0.06015 -7.22491e-05  2.58186e-07     -25.2519 
          -5       0.0679 -7.27341e-05  3.20621e-07     -25.2519 
          -5     0.076126 -8.26117e-05  3.92628e-07     -25.2519 
          -5     0.084816 -7.54588e-05  4.63678e-07     -25.2519 
          -5     0.093982 -8.00881e-05  5.59219e-07     -25.2519 
          -5     0.103611 -8.25249e-05  6.77846e-07     -25.2519 
          -5     0.113718 -8.39594e-05  8.01791e-07     -25.2519 
          -5     0.124286 -8.52341e-05  9.24742e-07     -25.2519 
          -5     0.135333 -8.68172e-05  1.05097e-06     -25.2519 
          -5      0.14685 -8.88201e-05  1.19058e-06     -25.2519 
          -5     0.158827 -9.10918e-05  1.35393e-06     -25.2519 
          -5     0.171284 -9.33728e-05  1.54553e-06     -25.2519 
          -5     0.184201 -9.54555e-05  1.75792e-06     -25.2519 
          -5     0.197599  -9.7347e-05  1.97256e-06     -25.2519 
          -5     0.211455 -9.92977e-05   2.1678e-06     -25.2519 
          -5     0.225792 -0.000101629  2.34594e-06     -25.2519 
          -5       0.2406 -0.000104145  2.58353e-06     -25.2519 
          -5     0.255865 -0.000105911  2.96667e-06     -25.2519 
          -5     0.271613  -0.00010804  3.26879e-06     -25.2519 
          -5     0.287818 -0.000110014  3.54827e-06     -25.2519 
          -5     0.304506 -0.000111879  3.81875e-06     -25.2519 
          -5      0.32165 -0.000113671  4.09622e-06     -25.2519 
          -5     0.339278 -0.000115387  4.38162e-06     -25.2519 
          -5     0.357377  -0.00011702  4.67516e-06     -25.2519 
          -5      0.37593 -0.000118566  4.97685e-06     -25.2519 
          -5     0.394968 -0.000120021  5.28738e-06     -25.2519 
          -5     0.414461 -0.000121379  5.60631e-06     -25.2519 
          -5      0.43444 -0.000122639  5.93405e-06     -25.2519 
          -5     0.454872 -0.000123796  6.26983e-06     -25.2519 
          -5     0.475791 -0.000124846  6.61382e-06     -25.2519 
          -5     0.497163 -0.000125787  6.96492e-06     -25.2519 
          -5     0.519021 -0.000126617  7.32301e-06     -25.2519 
          -5      0.54135 -0.000127333  7.68707e-06     -25.2519 
          -5     0.564131 -0.000127933   8.0559e-06     -25.2519 
          -5       0.5874 -0.000128417  8.42912e-06     -25.2519 
          -5     0.611121 -0.000128783  8.80517e-06      -25.252 
          -5      0.63533 -0.000129032   9.1836e-06      -25.252 
          -5      0.65999 -0.000129163  9.56287e-06      -25.252 
          -5     0.685139 -0.000129179  9.94263e-06      -25.252 
          -5     0.710759  -0.00012908  1.03218e-05      -25.252 
          -5     0.736828  -0.00012887  1.06994e-05      -25.252 
          -5     0.763387  -0.00012855  1.10756e-05      -25.252 
          -5     0.790396 -0.000128127  1.14494e-05      -25.252 
          -5     0.817896 -0.000127602  1.18213e-05      -25.252 
          -5     0.845843 -0.000126982  1.21909e-05      -25.252 
          -5     0.874283 -0.000126272  1.25589e-05      -25.252 
          -5      0.90317 -0.000125479  1.29251e-05      -25.252 
          -5     0.932551 -0.000124607  1.32904e-05      -25.252 
          -5     0.962401 -0.000123663  1.36546e-05      -25.252 
          -5     0.992697 -0.000122654  1.40172e-05     -25.2521 
          -5      1.02349 -0.000121581  1.43778e-05     -25.2521 
          -5      1.05472  -0.00012045  1.47339e-05     -25.2521 
          -5      1.08645  -0.00011926  1.50827e-05     -25.2521 
          -5      1.11863  -0.00011801  1.54179e-05     -25.2521 
          -5       1.1513  -0.00011671  1.57361e-05     -25.2521 
          -5      1.18444 -0.000115406  1.60595e-05     -25.2521 
          -5      1.21802 -0.000114023  1.63776e-05     -25.2521 
          -5      1.25211 -0.000112569   1.6688e-05     -25.2522 
          -5      1.28663 -0.000111057  1.69876e-05     -25.2522 
          -5      1.32165 -0.000109496  1.72748e-05     -25.2522 
          -5      1.35712   -0.0001079  1.75477e-05     -25.2522 
          -5      1.39308  -0.00010628  1.78054e-05     -25.2522 
          -5      1.42951 -0.000104647  1.80472e-05     -25.2522 
          -5      1.46638 -0.000103015  1.82727e-05     -25.2522 
          -5      1.50375  -0.00010139  1.84823e-05     -25.2523 
          -5      1.54156 -9.97835e-05  1.86762e-05     -25.2523 
          -5      1.57987 -9.81996e-05  1.88554e-05     -25.2523 
          -5      1.61863 -9.66457e-05  1.90206e-05     -25.2523 
          -5      1.65788  -9.5122e-05   1.9173e-05     -25.2523 
          -5      1.69757 -9.36315e-05  1.93131e-05     -25.2524 
          -5      1.73776 -9.21702e-05   1.9442e-05     -25.2524 
          -5      1.77842  -9.0736e-05  1.95598e-05     -25.2524 
          -5      1.81952 -8.93191e-05  1.96394e-05     -25.2524 
          -5      1.86113 -8.79026e-05  1.97138e-05     -25.2525 
          -5      1.90316 -8.64733e-05   1.9776e-05     -25.2525 
          -5      1.94571 -8.50194e-05  1.98184e-05     -25.2525 
          -5      1.98869 -8.35455e-05  1.98369e-05     -25.2525 
          -5      2.03217 -8.20699e-05   1.9834e-05     -25.2526 
          -5      2.07612 -8.06414e-05  1.98205e-05     -25.2526 
          -5      2.12051 -7.92262e-05  1.97913e-05     -25.2526 
          -5       2.1654 -7.77769e-05  1.97416e-05     -25.2526 
          -5      2.21073 -7.63714e-05  1.96815e-05     -25.2527 
          -5      2.25656 -7.50133e-05  1.96036e-05     -25.2527 
          -5      2.30283 -7.37139e-05  1.95048e-05     -25.2527 
          -5       2.3496 -7.24827e-05  1.93876e-05     -25.2528 
          -5      2.39685 -7.13226e-05  1.92591e-05     -25.2528 
          -5      2.44452 -7.02358e-05   1.9129e-05     -25.2528 
          -5      2.49271 -6.92285e-05  1.90001e-05     -25.2528 
          -5      2.54132 -6.83037e-05  1.88739e-05     -25.2529 
          -5      2.59044  -6.7463e-05   1.8753e-05     -25.2529 
          -5         2.64 -6.67113e-05  1.86414e-05     -25.2529 
          -5      2.69006 -6.60504e-05  1.85429e-05      -25.253 
          -5      2.74056 -6.54833e-05   1.8461e-05      -25.253 
          -5      2.79156 -6.50088e-05  1.83981e-05      -25.253 
          -5      2.84304 -6.46246e-05  1.83554e-05     -25.2531 
          -5      2.89494 -6.43251e-05   1.8332e-05     -25.2531 
          -5      2.94735 -6.41012e-05   1.8325e-05     -25.2532 
          -5       3.0002 -6.39418e-05  1.83295e-05     -25.2532 
          -5      3.05355  -6.3833e-05  1.83389e-05     -25.2532 
          -5      3.10733 -6.37604e-05  1.83449e-05     -25.2533 
          -5      3.16163 -6.37099e-05   1.8339e-05     -25.2533 
          -5      3.21639 -6.36703e-05  1.83133e-05     -25.2533 
          -5      3.27158 -6.36364e-05  1.82618e-05     -25.2534 
          -5      3.32729 -6.36121e-05   1.8183e-05     -25.2534 
          -5      3.38342 -6.35735e-05  1.81367e-05     -25.2535 
          -5      3.44007 -6.34535e-05  1.81418e-05     -25.2535 
          -5      3.49714 -6.33158e-05  1.80861e-05     -25.2535 
          -5      3.55472 -6.31909e-05  1.79561e-05     -25.2536 
          -5      3.61273 -6.31018e-05  1.77514e-05     -25.2536 
          -5      3.67125 -6.30592e-05  1.74796e-05     -25.2537 
          -5      3.73025 -6.30595e-05   1.7157e-05     -25.2537 
          -5      3.78967 -6.30819e-05  1.68124e-05     -25.2537 
          -5      3.84961 -6.30882e-05  1.64947e-05     -25.2538 
          -5      3.90996 -6.30231e-05  1.62909e-05     -25.2538 
          -5      3.97084 -6.30065e-05  1.57872e-05     -25.2539 
          -5      4.03214 -6.30218e-05  1.53662e-05     -25.2539 
          -5      4.09395 -6.30514e-05  1.49872e-05     -25.2539 
          -5      4.15624 -6.30821e-05  1.46173e-05      -25.254 
          -5      4.21895 -6.31043e-05   1.4237e-05      -25.254 
          -5      4.28217 -6.31119e-05  1.38362e-05     -25.2541 
          -5      4.34582 -6.31029e-05  1.34149e-05     -25.2541 
          -5      4.40998 -6.30787e-05  1.29779e-05     -25.2542 
          -5      4.47457 -6.30442e-05  1.25358e-05     -25.2542 
          -5      4.53968 -6.30071e-05  1.20999e-05     -25.2542 
          -5      4.60525 -6.29772e-05   1.1683e-05     -25.2543 
          -5      4.67125 -6.29653e-05  1.12967e-05     -25.2543 
          -5      4.73777 -6.29813e-05   1.0949e-05     -25.2544 
          -5       4.8047 -6.30328e-05  1.06455e-05     -25.2544 
          -5      4.87216 -6.31227e-05  1.03863e-05     -25.2544 
          -5      4.94003  -6.3246e-05   1.0168e-05     -25.2545 
          -5      5.00843 -6.33871e-05  9.98211e-06     -25.2545 
          -5      5.07724 -6.35153e-05  9.81727e-06     -25.2545 
          -5      5.14658 -6.35809e-05  9.65976e-06     -25.2546 
          -5      5.21639 -6.36366e-05  9.37609e-06     -25.2546 
          -5      5.28661 -6.36795e-05  9.08628e-06     -25.2546 
          -5      5.35736 -6.36128e-05  8.79136e-06     -25.2547 
          -5      5.42852 -6.35478e-05  8.63095e-06     -25.2547 
          -5      5.50021 -6.35119e-05  8.50135e-06     -25.2547 
          -5      5.57231 -6.34719e-05   8.3236e-06     -25.2548 
          -5      5.64493 -6.34123e-05   8.1103e-06     -25.2548 
          -5      5.71803 -6.33279e-05   7.8748e-06     -25.2548 
          -5      5.79154 -6.32209e-05  7.62955e-06     -25.2549 
          -5      5.86558  -6.3099e-05  7.38439e-06     -25.2549 
          -5      5.94003 -6.29729e-05  7.14712e-06     -25.2549 
          -5      6.01501 -6.28543e-05  6.92137e-06     -25.2549 
          -5       6.0904 -6.27546e-05  6.70784e-06      -25.255 
          -5      6.16632 -6.26826e-05  6.50303e-06      -25.255 
          -5      6.24271  -6.2644e-05  6.30092e-06      -25.255 
          -5       6.3195 -6.26402e-05  6.09346e-06      -25.255 
          -5      6.39683  -6.2668e-05  5.87151e-06      -25.255 
          -5      6.47457 -6.27199e-05  5.62816e-06     -25.2551 
          -5      6.55284 -6.27848e-05  5.35995e-06     -25.2551 
          -5      6.63152  -6.2849e-05  5.07175e-06     -25.2551 
          -5      6.71073 -6.28987e-05  4.77932e-06     -25.2551 
          -5      6.79034 -6.29224e-05  4.51597e-06     -25.2551 
          -5      6.87049 -6.29152e-05  4.33673e-06     -25.2551 
          -5      6.95111 -6.28827e-05  4.32683e-06     -25.2551 
          -5      7.03214 -6.28366e-05  4.56289e-06     -25.2551 
          -5       7.1137  -6.2595e-05   3.9525e-06     -25.2551 
          -5      7.19566  -6.2485e-05  3.55278e-06     -25.2552 
          -5      7.27816 -6.24682e-05  3.26681e-06     -25.2552 
          -5      7.36106 -6.25113e-05  3.02624e-06     -25.2552 
          -5      7.44451 -6.25863e-05   2.7856e-06     -25.2551 
          -5      7.52842 -6.26708e-05  2.51997e-06     -25.2551 
          -5      7.61273 -6.27476e-05  2.22086e-06     -25.2551 
          -5      7.69758 -6.28055e-05  1.89171e-06     -25.2551 
          -5      7.78283 -6.28382e-05  1.54604e-06     -25.2551 
          -5      7.86862 -6.28448e-05  1.20196e-06     -25.2551 
          -5      7.95481 -6.28285e-05  8.81024e-07     -25.2551 
          -5      8.04155 -6.27965e-05  6.02994e-07     -25.2551 
          -5      8.12868 -6.27591e-05  3.84993e-07     -25.2551 
          -5      8.21635 -6.27283e-05  2.37237e-07      -25.255 
          -5      8.30449 -6.27166e-05   1.6216e-07      -25.255 
          -5      8.39303 -6.27357e-05  1.51833e-07      -25.255 
          -5      8.48211 -6.27945e-05  1.86855e-07      -25.255 
          -5      8.57159 -6.28528e-05  3.67318e-08     -25.2549 
          -5      8.66161  -6.2905e-05  -3.3157e-07     -25.2549 
          -5      8.75203 -6.29882e-05 -7.05255e-07     -25.2549 
          -5      8.84299 -6.30999e-05 -1.00745e-06     -25.2548 
          -5      8.93443 -6.32345e-05 -1.12908e-06     -25.2548 
          -5      9.02626 -6.33824e-05 -9.36488e-07     -25.2547 
          -5      9.11863 -6.32995e-05 -1.13256e-06     -25.2547 
          -5      9.21139 -6.31709e-05 -1.51521e-06     -25.2546 
          -5      9.30471 -6.30941e-05 -1.72703e-06     -25.2546 
          -5      9.39841 -6.30351e-05 -1.82653e-06     -25.2545 
          -5      9.49267 -6.29737e-05 -1.86765e-06     -25.2545 
          -5      9.58739 -6.29002e-05 -1.88793e-06     -25.2544 
          -5      9.68251 -6.28371e-05 -1.94894e-06     -25.2544 
          -5      9.77817 -6.28747e-05 -2.25545e-06     -25.2543 
          -5      9.87422 -6.28517e-05 -2.48609e-06     -25.2542 
          -5      9.97083  -6.2795e-05 -2.65015e-06     -25.2542 
          -5      10.0678 -6.27284e-05 -2.75649e-06     -25.2541 
          -5      10.1654  -6.2671e-05 -2.81595e-06      -25.254 
          -5      10.2633 -6.26376e-05 -2.84135e-06     -25.2539 
          -5      10.3618  -6.2638e-05   -2.848e-06     -25.2538 
          -5      10.4607 -6.26767e-05 -2.85278e-06     -25.2538 
          -5      10.5601 -6.27538e-05 -2.87279e-06     -25.2537 
          -5        10.66 -6.28655e-05 -2.92298e-06     -25.2536 
          -5      10.7603 -6.30045e-05 -3.01263e-06     -25.2535 
          -5      10.8611 -6.31622e-05 -3.14138e-06     -25.2534 
          -5      10.9623   -6.333e-05 -3.29307e-06     -25.2533 
          -5      11.0641 -6.35017e-05 -3.42976e-06     -25.2532 
          -5      11.1663 -6.36765e-05 -3.48279e-06     -25.2531 
          -5       11.269 -6.36571e-05 -3.57197e-06      -25.253 
          -5      11.3721 -6.33716e-05 -3.88456e-06     -25.2528 
          -5      11.4757 -6.32903e-05 -3.98575e-06     -25.2527 
          -5      11.5798  -6.3326e-05 -3.96899e-06     -25.2526 
          -5      11.6844 -6.34139e-05 -3.90323e-06     -25.2525 
          -5      11.7894  -6.3509e-05 -3.83599e-06     -25.2523 
          -5       11.895 -6.35825e-05 -3.79639e-06     -25.2522 
          -5      12.0009 -6.36201e-05 -3.79771e-06     -25.2521 
          -5      12.1073  -6.3619e-05  -3.8402e-06     -25.2519 
          -5      12.2142 -6.35852e-05 -3.91363e-06     -25.2518 
          -5      12.3216 -6.35312e-05 -4.00005e-06     -25.2516 
          -5      12.4294  -6.3474e-05 -4.07579e-06     -25.2515 
          -5      12.5378 -6.34326e-05 -4.11413e-06     -25.2513 
          -5      12.6465 -6.34262e-05 -4.08698e-06     -25.2512 
          -5      12.7558 -6.34723e-05 -3.96682e-06      -25.251 
          -5      12.8656 -6.34333e-05  -4.0883e-06     -25.2508 
          -5      12.9757 -6.34662e-05 -4.25469e-06     -25.2507 
          -5      13.0864 -6.35607e-05 -4.42371e-06     -25.2505 
          -5      13.1975 -6.36866e-05 -4.58217e-06     -25.2503 
          -5      13.3092 -6.38145e-05 -4.71738e-06     -25.2501 
          -5      13.4212 -6.39173e-05 -4.81715e-06       -25.25 
          -5      13.5338 -6.39743e-05 -4.87183e-06     -25.2498 
          -5      13.6468 -6.39739e-05 -4.87527e-06     -25.2496 
          -5      13.7603  -6.3918e-05  -4.8271e-06     -25.2494 
          -5      13.8743 -6.38257e-05 -4.73459e-06     -25.2492 
          -5      13.9886  -6.3739e-05 -4.61558e-06      -25.249 
          -5      14.1036 -6.37272e-05 -4.50087e-06     -25.2487 
          -5      14.2189 -6.36936e-05  -4.5543e-06     -25.2485 
          -5      14.3348 -6.34735e-05 -4.72586e-06     -25.2483 
          -5       14.451 -6.33053e-05  -4.8297e-06     -25.2481 
          -5      14.5678 -6.31897e-05 -4.90374e-06     -25.2479 
          -5      14.6851 -6.31227e-05 -4.97159e-06     -25.2476 
          -5      14.8028 -6.30963e-05 -5.04567e-06     -25.2474 
          -5       14.921 -6.31005e-05 -5.12991e-06     -25.2472 
          -5      15.0396 -6.31242e-05 -5.22177e-06     -25.2469 
          -5      15.1588 -6.31567e-05 -5.31494e-06     -25.2467 
          -5      15.2783 -6.31888e-05 -5.40071e-06     -25.2464 
          -5      15.3984 -6.32137e-05  -5.4702e-06     -25.2462 
          -5       15.519 -6.32279e-05 -5.51518e-06     -25.2459 
          -5        15.64 -6.32324e-05 -5.52941e-06     -25.2456 
          -5      15.7615 -6.32325e-05 -5.50916e-06     -25.2454 
          -5      15.8834 -6.32391e-05 -5.45344e-06     -25.2451 
          -5      16.0058 -6.32682e-05 -5.36366e-06     -25.2448 
          -5      16.1286 -6.33339e-05 -5.38644e-06     -25.2445 
          -5       16.252 -6.34432e-05 -5.49748e-06     -25.2442 
          -5      16.3759 -6.35784e-05 -5.61443e-06     -25.2439 
          -5      16.5002 -6.37127e-05 -5.73305e-06     -25.2436 
          -5       16.625 -6.38191e-05 -5.84743e-06     -25.2433 
          -5      16.7501  -6.3873e-05  -5.9504e-06      -25.243 
          -5      16.8759 -6.38557e-05 -6.03545e-06     -25.2427 
          -5       17.002 -6.37592e-05 -6.09776e-06     -25.2424 
          -5      17.1287 -6.35905e-05 -6.13681e-06     -25.2421 
          -5      17.2557 -6.33784e-05 -6.15837e-06     -25.2418 
          -5      17.3834 -6.31781e-05 -6.17769e-06     -25.2414 
          -5      17.5115 -6.30805e-05 -6.22268e-06     -25.2411 
          -5      17.6399 -6.32186e-05 -6.33771e-06     -25.2408 
          -5       17.769 -6.37776e-05 -6.58834e-06     -25.2404 
          -5      17.8984 -6.36387e-05 -6.48284e-06     -25.2401 
          -5      18.0284  -6.3435e-05 -6.38899e-06     -25.2397 
          -5      18.1587 -6.32646e-05 -6.33395e-06     -25.2393 
          -5      18.2896 -6.31184e-05 -6.29775e-06      -25.239 
          -5       18.421 -6.29942e-05 -6.26776e-06     -25.2386 
          -5      18.5528 -6.28952e-05   -6.237e-06     -25.2382 
          -5      18.6851 -6.28279e-05  -6.2028e-06     -25.2379 
          -5      18.8178 -6.28012e-05 -6.16566e-06     -25.2375 
          -5      18.9511 -6.28247e-05 -6.12795e-06     -25.2371 
          -5      19.0847 -6.29076e-05 -6.09313e-06     -25.2367 
          -5      19.2189 -6.30108e-05 -6.01813e-06     -25.2363 
          -5      19.3535 -6.30461e-05 -5.89518e-06     -25.2359 
          -5      19.4886 -6.30621e-05 -5.81966e-06     -25.2355 
          -5      19.6242 -6.30523e-05 -5.79004e-06     -25.2351 
          -5      19.7602 -6.30157e-05 -5.80115e-06     -25.2346 
          -5      19.8968  -6.2957e-05  -5.8454e-06     -25.2342 
          -5      20.0337 -6.28858e-05 -5.91357e-06     -25.2338 
          -5      20.1712  -6.2816e-05 -5.99597e-06     -25.2333 
          -5      20.3091  -6.2764e-05 -6.08302e-06     -25.2329 
          -5      20.4475 -6.27464e-05  -6.1665e-06     -25.2325 
          -5      20.5864 -6.27775e-05 -6.23999e-06      -25.232 
          -5      20.7257 -6.28647e-05 -6.29989e-06     -25.2316 
          -5      20.8655 -6.30053e-05 -6.34623e-06     -25.2311 
          -5      21.0058 -6.31801e-05 -6.38308e-06     -25.2306 
          -5      21.1465  -6.3348e-05 -6.41952e-06     -25.2302 
          -5      21.2877 -6.34385e-05 -6.46989e-06     -25.2297 
          -5      21.4294 -6.33438e-05 -6.55463e-06     -25.2292 
          -5      21.5716 -6.29097e-05 -6.70042e-06     -25.2287 
          -5      21.7142 -6.28793e-05 -6.84805e-06     -25.2282 
          -5      21.8573  -6.2907e-05 -6.90762e-06     -25.2277 
          -5      22.0008 -6.28764e-05 -6.93521e-06     -25.2272 
          -5      22.1449  -6.2834e-05  -6.9751e-06     -25.2267 
          -5      22.2893 -6.28034e-05 -7.05868e-06     -25.2262 
          -5      22.4344 -6.27913e-05 -7.20481e-06     -25.2257 
          -5      22.5797 -6.27926e-05 -7.41936e-06     -25.2251 
          -5      22.7257 -6.27955e-05 -7.69629e-06     -25.2246 
          -5      22.8721 -6.27865e-05 -8.01685e-06     -25.2241 
          -5      23.0189 -6.27543e-05 -8.35038e-06     -25.2235 
          -5      23.1663 -6.26939e-05 -8.65567e-06      -25.223 
          -5       23.314 -6.26104e-05 -8.87985e-06     -25.2224 
          -5      23.4623  -6.2576e-05 -8.98053e-06     -25.2219 
          -5       23.611 -6.27487e-05 -9.01193e-06     -25.2213 
          -5      23.7602 -6.28643e-05 -8.95088e-06     -25.2207 
          -5        23.91 -6.29284e-05 -8.84676e-06     -25.2202 
          -5        24.06 -6.29495e-05 -8.73741e-06     -25.2196 
          -5      24.2107 -6.29383e-05  -8.6487e-06      -25.219 
          -5      24.3617 -6.29061e-05  -8.5956e-06     -25.2184 
          -5      24.5133 -6.28639e-05 -8.58261e-06     -25.2178 
          -5      24.6653 -6.28212e-05 -8.60545e-06     -25.2172 
          -5      24.8178 -6.27848e-05 -8.65294e-06     -25.2166 
          -5      24.9708 -6.27581e-05 -8.70935e-06      -25.216 
          -5      25.1242 -6.27392e-05 -8.75756e-06     -25.2154 
          -5      25.2781 -6.27201e-05 -8.78281e-06     -25.2147 
          -5      25.4324 -6.26858e-05 -8.77679e-06     -25.2141 
          -5      25.5873 -6.26123e-05 -8.74278e-06     -25.2135 
          -5      25.7426 -6.24666e-05 -8.70135e-06     -25.2128 
          -5      25.8984 -6.22038e-05 -8.69668e-06     -25.2122 
          -5      26.0546  -6.1768e-05 -8.80387e-06     -25.2115 
          -5      26.2114 -6.16319e-05 -8.80177e-06     -25.2108 
          -5      26.3686 -6.17553e-05 -8.61184e-06     -25.2102 
          -5      26.5262 -6.18377e-05 -8.42753e-06     -25.2095 
          -5      26.6844 -6.18889e-05    -8.28e-06     -25.2088 
          -5      26.8429 -6.19155e-05 -8.18963e-06     -25.2081 
          -5       27.002 -6.19222e-05 -8.16682e-06     -25.2074 
          -5      27.1615 -6.19118e-05 -8.21407e-06     -25.2067 
          -5      27.3216 -6.18863e-05 -8.32737e-06      -25.206 
          -5      27.4821  -6.1847e-05 -8.49755e-06     -25.2053 
          -5       27.643 -6.17954e-05 -8.71156e-06     -25.2046 
          -5      27.8044 -6.17325e-05 -8.95458e-06     -25.2039 
          -5      27.9663 -6.16603e-05 -9.20992e-06     -25.2032 
          -5      28.1287 -6.15811e-05 -9.46176e-06     -25.2024 
          -5      28.2914 -6.14982e-05 -9.69458e-06     -25.2017 
          -5      28.4548 -6.14154e-05 -9.89572e-06      -25.201 
          -5      28.6185 -6.13374e-05 -1.00548e-05     -25.2002 
          -5      28.7828 -6.12691e-05 -1.01655e-05     -25.1994 
          -5      28.9475  -6.1216e-05 -1.02256e-05     -25.1987 
          -5      29.1126 -6.11834e-05 -1.02375e-05     -25.1979 
          -5      29.2784 -6.11756e-05  -1.0209e-05     -25.1971 
          -5      29.4444 -6.11959e-05 -1.01528e-05     -25.1964 
          -5       29.611 -6.12456e-05 -1.00869e-05     -25.1956 
          -5       29.778 -6.13229e-05 -1.00343e-05     -25.1948 
          -5      29.9456 -6.14222e-05 -1.00227e-05      -25.194 
          -5      30.1137 -6.15326e-05 -1.00839e-05     -25.1932 
          -5      30.2821 -6.16366e-05 -1.02529e-05     -25.1924 
          -5      30.4511  -6.1708e-05 -1.05603e-05     -25.1915 
          -5      30.6204 -6.17209e-05 -1.07313e-05     -25.1907 
          -5      30.7903 -6.17144e-05 -1.07931e-05     -25.1899 
          -5      30.9606 -6.16924e-05 -1.07742e-05     -25.1891 
          -5      31.1315 -6.16584e-05 -1.07047e-05     -25.1882 
          -5      31.3028 -6.16152e-05 -1.06166e-05     -25.1874 
          -5      31.4745 -6.15653e-05 -1.05427e-05     -25.1865 
          -5      31.6468   -6.151e-05 -1.05163e-05     -25.1857 
          -5      31.8194 -6.14498e-05 -1.05704e-05     -25.1848 
          -5      31.9926 -6.13838e-05 -1.07375e-05     -25.1839 
          -5      32.1662 -6.13096e-05 -1.10483e-05      -25.183 
          -5      32.3404 -6.12227e-05 -1.15323e-05     -25.1822 
          -5      32.5149 -6.11168e-05 -1.22148e-05     -25.1813 
          -5        32.69 -6.09823e-05 -1.31194e-05     -25.1804 
          -5      32.8655 -6.06144e-05 -1.30472e-05     -25.1795 
          -5      33.0414 -6.02174e-05 -1.22935e-05     -25.1786 
          -5       33.218 -5.99705e-05 -1.18087e-05     -25.1776 
          -5      33.3948 -5.98451e-05 -1.15385e-05     -25.1767 
          -5      33.5723 -5.98151e-05 -1.14336e-05     -25.1758 
          -5        33.75 -5.98572e-05 -1.14508e-05     -25.1749 
          -5      33.9284 -5.99513e-05 -1.15527e-05     -25.1739 
          -5      34.1073 -6.00792e-05 -1.17072e-05      -25.173 
          -5      34.2865 -6.02255e-05  -1.1887e-05      -25.172 
          -5      34.4663 -6.03772e-05 -1.20703e-05     -25.1711 
          -5      34.6465  -6.0523e-05 -1.22394e-05     -25.1701 
          -5      34.8272 -6.06541e-05 -1.23814e-05     -25.1691 
          -5      35.0083 -6.07631e-05  -1.2487e-05     -25.1681 
          -5        35.19 -6.08447e-05 -1.25511e-05     -25.1672 
          -5      35.3721 -6.08947e-05 -1.25717e-05     -25.1662 
          -5      35.5546 -6.09107e-05 -1.25501e-05     -25.1652 
          -5      35.7377 -6.08913e-05 -1.24905e-05     -25.1642 
          -5      35.9211 -6.08364e-05 -1.23994e-05     -25.1632 
          -5      36.1052 -6.07466e-05 -1.22855e-05     -25.1621 
          -5      36.2895 -6.06237e-05 -1.21593e-05     -25.1611 
          -5      36.4745 -6.04696e-05 -1.20325e-05     -25.1601 
          -5      36.6598 -6.02872e-05 -1.19181e-05     -25.1591 
          -5      36.8457 -6.00793e-05 -1.18295e-05      -25.158 
          -5      37.0321 -5.98492e-05 -1.17805e-05      -25.157 
          -5      37.2188 -5.96005e-05 -1.17845e-05     -25.1559 
          -5      37.4062 -5.93358e-05 -1.18546e-05     -25.1549 
          -5      37.5938 -5.90586e-05 -1.20025e-05     -25.1538 
          -5      37.7821 -5.87709e-05 -1.22388e-05     -25.1527 
          -5      37.9707 -5.84752e-05 -1.25716e-05     -25.1517 
          -5      38.1599 -5.90692e-05 -1.28789e-05     -25.1506 
          -5      38.3496 -5.95469e-05  -1.3109e-05     -25.1495 
          -5      38.5396 -5.99013e-05 -1.32559e-05     -25.1484 
          -5      38.7302 -6.01324e-05 -1.33183e-05     -25.1473 
          -5      38.9211 -6.02438e-05 -1.32988e-05     -25.1462 
          -5      39.1127 -6.02435e-05 -1.32045e-05     -25.1451 
          -5      39.3046 -6.01427e-05 -1.30472e-05      -25.144 
          -5      39.4971 -5.99559e-05 -1.28423e-05     -25.1428 
          -5      39.6899 -5.97008e-05   -1.261e-05     -25.1417 
          -5      39.8833 -5.93963e-05 -1.23735e-05     -25.1406 
          -5      40.0772 -5.90637e-05 -1.21599e-05     -25.1394 
          -5      40.2714 -5.87244e-05 -1.19994e-05     -25.1383 
          -5      40.4663 -5.83992e-05 -1.19239e-05     -25.1371 
          -5      40.6615 -5.81084e-05 -1.19677e-05      -25.136 
          -5      40.8573 -5.78688e-05 -1.21657e-05     -25.1348 
          -5      41.0534 -5.80488e-05 -1.23239e-05     -25.1336 
          -5      41.2501 -5.83799e-05 -1.23225e-05     -25.1324 
          -5      41.4473  -5.8692e-05 -1.22413e-05     -25.1313 
          -5      41.6448 -5.89193e-05 -1.21368e-05     -25.1301 
          -5      41.8429 -5.89885e-05 -1.20688e-05     -25.1289 
          -5      42.0414 -5.88178e-05 -1.20999e-05     -25.1277 
          -5      42.2405 -5.83168e-05 -1.22936e-05     -25.1265 
          -5      42.4399  -5.7627e-05 -1.26606e-05     -25.1252 
          -5      42.6399 -5.76398e-05 -1.29206e-05      -25.124 
          -5      42.8404 -5.76545e-05 -1.31477e-05     -25.1228 
          -5      43.0412 -5.76694e-05  -1.3337e-05     -25.1216 
          -5      43.2426  -5.7683e-05 -1.34866e-05     -25.1203 
          -5      43.4444 -5.76942e-05  -1.3596e-05     -25.1191 
          -5      43.6467  -5.7702e-05 -1.36669e-05     -25.1178 
          -5      43.8494 -5.77058e-05 -1.37023e-05     -25.1166 
          -5      44.0527 -5.77048e-05 -1.37064e-05     -25.1153 
          -5      44.2563 -5.76988e-05 -1.36844e-05      -25.114 
          -5      44.4606 -5.76872e-05 -1.36418e-05     -25.1128 
          -5      44.6653 -5.76698e-05 -1.35846e-05     -25.1115 
          -5      44.8704 -5.76463e-05 -1.35189e-05     -25.1102 
          -5       45.076 -5.76165e-05 -1.34506e-05     -25.1089 
          -5       45.282 -5.75801e-05 -1.33854e-05     -25.1076 
          -5      45.4886  -5.7537e-05 -1.33282e-05     -25.1063 
          -5      45.6955  -5.7487e-05 -1.32834e-05      -25.105 
          -5       45.903 -5.74298e-05 -1.32545e-05     -25.1037 
          -5      46.1111 -5.73654e-05 -1.32442e-05     -25.1024 
          -5      46.3194 -5.72937e-05  -1.3254e-05      -25.101 
          -5      46.5283 -5.72146e-05 -1.32847e-05     -25.0997 
          -5      46.7376 -5.71281e-05 -1.33356e-05     -25.0984 
          -5      46.9475 -5.70344e-05 -1.34052e-05      -25.097 
          -5      47.1577  -5.6934e-05 -1.34908e-05     -25.0957 
          -5      47.3685 -5.68273e-05 -1.35892e-05     -25.0943 
          -5      47.5798 -5.67151e-05 -1.36957e-05      -25.093 
          -5      47.7914 -5.65987e-05 -1.38055e-05     -25.0916 
          -5      48.0037 -5.64797e-05  -1.3913e-05     -25.0902 