Variables = x, y, u, v, p

Zone, I=800, F=POINT
         750            0            0            0     -15.7141 
         750     0.000234 -5.78196e-06  -3.2957e-11     -15.7141 
         750     0.000939 -2.13317e-05  -5.2437e-10     -15.7141 
         750     0.002113  -4.1498e-05 -2.63746e-09     -15.7141 
         750     0.003759 -5.93625e-05 -8.28308e-09     -15.7141 
         750     0.005872 -6.79825e-05 -2.00232e-08     -15.7141 
         750     0.008457  -6.2476e-05 -4.10642e-08     -15.7141 
         750      0.01151 -4.12967e-05 -7.50552e-08     -15.7141 
         750     0.015036 -6.59389e-06 -1.26123e-07     -15.7141 
         750     0.019031  3.65208e-05 -1.98539e-07     -15.7141 
         750     0.023493  8.19912e-05 -2.96671e-07     -15.7141 
         750     0.028429  0.000125368 -4.25064e-07     -15.7141 
         750     0.033831  0.000165664 -5.87697e-07     -15.7141 
         750     0.039706  0.000206217 -7.88604e-07     -15.7141 
         750     0.046047  0.000252656 -1.03086e-06     -15.7141 
         750     0.052863  0.000308861 -1.31749e-06     -15.7141 
         750      0.06015   0.00037173 -1.65024e-06     -15.7141 
         750       0.0679   0.00043035 -2.02968e-06     -15.7141 
         750     0.076126  0.000479283 -2.45642e-06     -15.7141 
         750     0.084816   0.00055006 -2.92876e-06     -15.7141 
         750     0.093982  0.000608318 -3.44507e-06     -15.7141 
         750     0.103611  0.000669829 -4.00122e-06     -15.7141 
         750     0.113718  0.000732869 -4.59357e-06     -15.7141 
         750     0.124286  0.000795912 -5.21545e-06     -15.7141 
         750     0.135333  0.000858084 -5.86119e-06     -15.7141 
         750      0.14685  0.000918772 -6.52252e-06     -15.7141 
         750     0.158827  0.000977682 -7.19028e-06     -15.7141 
         750     0.171284   0.00103482 -7.85628e-06     -15.7141 
         750     0.184201   0.00108993 -8.50956e-06     -15.7141 
         750     0.197599   0.00114276 -9.14088e-06     -15.7141 
         750     0.211455   0.00119259 -9.73866e-06     -15.7141 
         750     0.225792   0.00123887 -1.02933e-05     -15.7141 
         750       0.2406   0.00128164 -1.07936e-05     -15.7141 
         750     0.255865   0.00132173  -1.1229e-05     -15.7141 
         750     0.271613   0.00135762 -1.15909e-05     -15.7141 
         750     0.287818   0.00138987 -1.18696e-05     -15.7141 
         750     0.304506   0.00141849  -1.2057e-05     -15.7141 
         750      0.32165   0.00144345 -1.21453e-05     -15.7141 
         750     0.339278   0.00146485 -1.21281e-05     -15.7141 
         750     0.357377   0.00148278 -1.19999e-05     -15.7141 
         750      0.37593   0.00149737 -1.17569e-05     -15.7141 
         750     0.394968   0.00150884 -1.13959e-05     -15.7141 
         750     0.414461    0.0015174 -1.09154e-05     -15.7141 
         750      0.43444    0.0015233 -1.03143e-05     -15.7141 
         750     0.454872   0.00152678 -9.59384e-06     -15.7141 
         750     0.475791   0.00152811  -8.7543e-06     -15.7141 
         750     0.497163   0.00152754 -7.79945e-06     -15.7141 
         750     0.519021   0.00152532 -6.73122e-06     -15.7141 
         750      0.54135    0.0015217 -5.55474e-06     -15.7141 
         750     0.564131   0.00151689 -4.27695e-06     -15.7141 
         750       0.5874   0.00151112 -2.90343e-06     -15.7141 
         750     0.611121   0.00150464 -1.44608e-06     -15.7141 
         750      0.63533    0.0014975  9.60713e-08     -15.7141 
         750      0.65999   0.00148995  1.71375e-06     -15.7141 
         750     0.685139   0.00148205  3.39892e-06     -15.7141 
         750     0.710759   0.00147389  5.13976e-06     -15.7141 
         750     0.736828   0.00146552  6.92409e-06     -15.7141 
         750     0.763387   0.00145692  8.74407e-06     -15.7141 
         750     0.790396   0.00144811  1.05864e-05     -15.7141 
         750     0.817896   0.00143902  1.24434e-05     -15.7141 
         750     0.845843   0.00142961   1.4302e-05     -15.7141 
         750     0.874283   0.00141977   1.6155e-05     -15.7141 
         750      0.90317   0.00140941  1.79898e-05     -15.7141 
         750     0.932551   0.00139839  1.97998e-05     -15.7141 
         750     0.962401    0.0013866  2.15743e-05     -15.7141 
         750     0.992697   0.00137391  2.33033e-05     -15.7141 
         750      1.02349   0.00136017  2.49813e-05     -15.7141 
         750      1.05472   0.00134528  2.65976e-05     -15.7141 
         750      1.08645    0.0013291  2.81479e-05     -15.7141 
         750      1.11863   0.00131157  2.96231e-05     -15.7141 
         750       1.1513   0.00129259    3.102e-05     -15.7141 
         750      1.18444   0.00127214  3.23327e-05     -15.7141 
         750      1.21802   0.00125025  3.35571e-05     -15.7141 
         750      1.25211    0.0012269  3.46934e-05     -15.7141 
         750      1.28663   0.00120222  3.57401e-05     -15.7141 
         750      1.32165   0.00117628  3.67016e-05     -15.7141 
         750      1.35712   0.00114924  3.75822e-05     -15.7141 
         750      1.39308   0.00112123  3.83927e-05     -15.7141 
         750      1.42951   0.00109242  3.91465e-05     -15.7141 
         750      1.46638     0.001063  3.98629e-05     -15.7141 
         750      1.50375   0.00103301  4.05694e-05     -15.7141 
         750      1.54156   0.00100198  4.11182e-05     -15.7141 
         750      1.57987   0.00097134  4.16376e-05     -15.7141 
         750      1.61863  0.000941163  4.21408e-05     -15.7141 
         750      1.65788  0.000911345  4.26305e-05     -15.7141 
         750      1.69757  0.000881882  4.31074e-05     -15.7141 
         750      1.73776  0.000852674  4.35735e-05     -15.7141 
         750      1.77842  0.000823692  4.40297e-05     -15.7141 
         750      1.81952   0.00079491  4.44762e-05     -15.7141 
         750      1.86113  0.000766232  4.49143e-05     -15.7141 
         750      1.90316  0.000737658  4.53436e-05     -15.7141 
         750      1.94571  0.000709097  4.57648e-05     -15.7141 
         750      1.98869  0.000680555  4.61769e-05     -15.7141 
         750      2.03217  0.000651947  4.65801e-05     -15.7141 
         750      2.07612  0.000623263  4.69734e-05     -15.7141 
         750      2.12051  0.000594494  4.73558e-05     -15.7141 
         750       2.1654   0.00056557  4.77267e-05     -15.7141 
         750      2.21073  0.000536515  4.80844e-05     -15.7141 
         750      2.25656  0.000507267  4.84284e-05     -15.7141 
         750      2.30283  0.000477861  4.87567e-05     -15.7141 
         750       2.3496  0.000448246  4.90684e-05     -15.7141 
         750      2.39685  0.000418443   4.9362e-05     -15.7141 
         750      2.44452  0.000388484  4.96358e-05     -15.7141 
         750      2.49271  0.000358333  4.98891e-05     -15.7141 
         750      2.54132  0.000328056  5.01203e-05     -15.7141 
         750      2.59044  0.000297628  5.03287e-05     -15.7141 
         750         2.64  0.000267128   5.0513e-05     -15.7141 
         750      2.69006  0.000236543  5.06728e-05     -15.7141 
         750      2.74056  0.000205962  5.08075e-05     -15.7141 
         750      2.79156  0.000175383  5.09168e-05     -15.7141 
         750      2.84304  0.000144882  5.10007e-05     -15.7141 
         750      2.89494  0.000114537  5.10593e-05     -15.7141 
         750      2.94735  8.43586e-05  5.10931e-05     -15.7141 
         750       3.0002  5.44566e-05  5.11027e-05     -15.7141 
         750      3.05355  2.48472e-05   5.1089e-05     -15.7141 
         750      3.10733 -4.35971e-06  5.10528e-05     -15.7141 
         750      3.16163 -3.31468e-05   5.0995e-05     -15.7141 
         750      3.21639 -6.14287e-05  5.09168e-05     -15.7141 
         750      3.27158 -8.91257e-05   5.0819e-05     -15.7141 
         750      3.32729 -0.000116229   5.0702e-05     -15.7141 
         750      3.38342  -0.00014265  5.05662e-05     -15.7141 
         750      3.44007 -0.000168395  5.04108e-05     -15.7141 
         750      3.49714 -0.000193398  5.02349e-05     -15.7142 
         750      3.55472  -0.00021769  5.00357e-05     -15.7142 
         750      3.61273 -0.000241242  4.98098e-05     -15.7142 
         750      3.67125 -0.000264117  4.95511e-05     -15.7142 
         750      3.73025 -0.000286353  4.92522e-05     -15.7142 
         750      3.78967  -0.00030776  4.89542e-05     -15.7142 
         750      3.84961 -0.000328097  4.86508e-05     -15.7142 
         750      3.90996 -0.000347378  4.83218e-05     -15.7142 
         750      3.97084 -0.000365645  4.79671e-05     -15.7142 
         750      4.03214 -0.000382881  4.75876e-05     -15.7142 
         750      4.09395 -0.000399125  4.71837e-05     -15.7142 
         750      4.15624 -0.000414376  4.67567e-05     -15.7142 
         750      4.21895 -0.000428637  4.63081e-05     -15.7142 
         750      4.28217 -0.000441945  4.58388e-05     -15.7142 
         750      4.34582 -0.000454294   4.5351e-05     -15.7142 
         750      4.40998 -0.000465719  4.48457e-05     -15.7142 
         750      4.47457  -0.00047622  4.43255e-05     -15.7142 
         750      4.53968 -0.000485831  4.37916e-05     -15.7142 
         750      4.60525 -0.000494562  4.32464e-05     -15.7142 
         750      4.67125 -0.000502427  4.26924e-05     -15.7142 
         750      4.73777 -0.000509458  4.21308e-05     -15.7142 
         750       4.8047 -0.000515667  4.15646e-05     -15.7142 
         750      4.87216 -0.000521085  4.09948e-05     -15.7142 
         750      4.94003 -0.000525728  4.04244e-05     -15.7142 
         750      5.00843 -0.000529628  3.98543e-05     -15.7142 
         750      5.07724 -0.000532805  3.92872e-05     -15.7142 
         750      5.14658 -0.000535289  3.87237e-05     -15.7142 
         750      5.21639 -0.000537108  3.81658e-05     -15.7142 
         750      5.28661 -0.000538288  3.76152e-05     -15.7142 
         750      5.35736 -0.000538861   3.7072e-05     -15.7142 
         750      5.42852 -0.000538858  3.65379e-05     -15.7143 
         750      5.50021 -0.000538309  3.60126e-05     -15.7143 
         750      5.57231 -0.000537249  3.54973e-05     -15.7143 
         750      5.64493 -0.000535709  3.49912e-05     -15.7143 
         750      5.71803 -0.000533723  3.44946e-05     -15.7143 
         750      5.79154 -0.000531327  3.40072e-05     -15.7143 
         750      5.86558 -0.000528554  3.35277e-05     -15.7143 
         750      5.94003 -0.000525442  3.30559e-05     -15.7143 
         750      6.01501  -0.00052202  3.25897e-05     -15.7143 
         750       6.0904  -0.00051833  3.21286e-05     -15.7143 
         750      6.16632 -0.000514399  3.16704e-05     -15.7143 
         750      6.24271 -0.000510264  3.12136e-05     -15.7143 
         750       6.3195 -0.000505961  3.07572e-05     -15.7143 
         750      6.39683 -0.000501482  3.03555e-05     -15.7143 
         750      6.47457 -0.000496875  2.99756e-05     -15.7143 
         750      6.55284 -0.000492171  2.95993e-05     -15.7143 
         750      6.63152 -0.000487403  2.92281e-05     -15.7143 
         750      6.71073 -0.000482586  2.88616e-05     -15.7143 
         750      6.79034 -0.000477748  2.85006e-05     -15.7143 
         750      6.87049   -0.0004729  2.81442e-05     -15.7143 
         750      6.95111 -0.000468057  2.77919e-05     -15.7143 
         750      7.03214 -0.000463235  2.74428e-05     -15.7143 
         750       7.1137 -0.000458432  2.70947e-05     -15.7143 
         750      7.19566 -0.000453657  2.67458e-05     -15.7143 
         750      7.27816 -0.000448899  2.63928e-05     -15.7143 
         750      7.36106 -0.000444157  2.60328e-05     -15.7143 
         750      7.44451 -0.000439411  2.56612e-05     -15.7143 
         750      7.52842 -0.000434644  2.52735e-05     -15.7143 
         750      7.61273 -0.000429835  2.48647e-05     -15.7143 
         750      7.69758 -0.000425131  2.46068e-05     -15.7143 
         750      7.78283 -0.000420499  2.43821e-05     -15.7143 
         750      7.86862 -0.000415894   2.4145e-05     -15.7143 
         750      7.95481 -0.000411327  2.38992e-05     -15.7143 
         750      8.04155 -0.000406795  2.36472e-05     -15.7143 
         750      8.12868 -0.000402307  2.33922e-05     -15.7143 
         750      8.21635 -0.000397858   2.3136e-05     -15.7143 
         750      8.30449 -0.000393453  2.28803e-05     -15.7143 
         750      8.39303 -0.000389099  2.26261e-05     -15.7144 
         750      8.48211 -0.000384789  2.23728e-05     -15.7144 
         750      8.57159  -0.00038053  2.21197e-05     -15.7144 
         750      8.66161 -0.000376318  2.18641e-05     -15.7144 
         750      8.75203 -0.000372159  2.16028e-05     -15.7144 
         750      8.84299 -0.000368042  2.13611e-05     -15.7144 
         750      8.93443 -0.000363961  2.12158e-05     -15.7144 
         750      9.02626  -0.00035994  2.10711e-05     -15.7144 
         750      9.11863 -0.000355974  2.09204e-05     -15.7144 
         750      9.21139 -0.000352072  2.07591e-05     -15.7144 
         750      9.30471 -0.000348228  2.05835e-05     -15.7144 
         750      9.39841 -0.000344449  2.03919e-05     -15.7144 
         750      9.49267 -0.000340727  2.01834e-05     -15.7144 
         750      9.58739 -0.000337064  1.99591e-05     -15.7144 
         750      9.68251 -0.000333459   1.9721e-05     -15.7144 
         750      9.77817 -0.000329903  1.94719e-05     -15.7144 
         750      9.87422 -0.000326399  1.92162e-05     -15.7144 
         750      9.97083 -0.000322937  1.89582e-05     -15.7144 
         750      10.0678 -0.000319519  1.87033e-05     -15.7144 
         750      10.1654 -0.000316135  1.84563e-05     -15.7144 
         750      10.2633 -0.000312787  1.82224e-05     -15.7144 
         750      10.3618 -0.000309469  1.80054e-05     -15.7144 
         750      10.4607  -0.00030618  1.78083e-05     -15.7144 
         750      10.5601 -0.000302925  1.76322e-05     -15.7144 
         750        10.66 -0.000299701  1.74753e-05     -15.7144 
         750      10.7603 -0.000296518  1.73334e-05     -15.7144 
         750      10.8611 -0.000293378  1.71976e-05     -15.7144 
         750      10.9623   -0.0002903  1.70546e-05     -15.7144 
         750      11.0641 -0.000287294  1.68849e-05     -15.7144 
         750      11.1663 -0.000284384  1.66622e-05     -15.7144 
         750       11.269   -0.0002816  1.63526e-05     -15.7144 
         750      11.3721 -0.000278773  1.60653e-05     -15.7144 
         750      11.4757 -0.000275656   1.6045e-05     -15.7144 
         750      11.5798 -0.000272693  1.59669e-05     -15.7144 
         750      11.6844 -0.000269855  1.58444e-05     -15.7144 
         750      11.7894 -0.000267111  1.56885e-05     -15.7144 
         750       11.895 -0.000264443  1.55094e-05     -15.7144 
         750      12.0009 -0.000261837  1.53153e-05     -15.7144 
         750      12.1073 -0.000259278   1.5113e-05     -15.7144 
         750      12.2142 -0.000256762  1.49084e-05     -15.7144 
         750      12.3216  -0.00025428  1.47059e-05     -15.7144 
         750      12.4294 -0.000251834  1.45096e-05     -15.7144 
         750      12.5378 -0.000249421  1.43219e-05     -15.7144 
         750      12.6465 -0.000247044  1.41455e-05     -15.7144 
         750      12.7558 -0.000244702  1.39817e-05     -15.7144 
         750      12.8656 -0.000242399  1.38321e-05     -15.7144 
         750      12.9757 -0.000240137  1.36977e-05     -15.7144 
         750      13.0864 -0.000237913  1.35793e-05     -15.7144 
         750      13.1975  -0.00023573  1.34779e-05     -15.7144 
         750      13.3092 -0.000233579  1.33941e-05     -15.7144 
         750      13.4212 -0.000231459  1.33291e-05     -15.7144 
         750      13.5338 -0.000229358   1.3284e-05     -15.7144 
         750      13.6468 -0.000227265  1.32603e-05     -15.7144 
         750      13.7603 -0.000225291  1.29864e-05     -15.7144 
         750      13.8743  -0.00022334  1.27196e-05     -15.7144 
         750      13.9886 -0.000221395  1.25012e-05     -15.7144 
         750      14.1036 -0.000219457  1.23243e-05     -15.7144 
         750      14.2189 -0.000217528  1.21809e-05     -15.7144 
         750      14.3348 -0.000215609  1.20614e-05     -15.7144 
         750       14.451 -0.000213703   1.1956e-05     -15.7144 
         750      14.5678 -0.000211812  1.18548e-05     -15.7144 
         750      14.6851 -0.000209939   1.1749e-05     -15.7144 
         750      14.8028 -0.000208091  1.16318e-05     -15.7144 
         750       14.921  -0.00020627  1.14989e-05     -15.7144 
         750      15.0396 -0.000204484   1.1351e-05     -15.7144 
         750      15.1588 -0.000202738  1.11937e-05     -15.7144 
         750      15.2783 -0.000201044  1.10407e-05     -15.7144 
         750      15.3984  -0.00019941  1.09137e-05     -15.7144 
         750       15.519  -0.00019785  1.08462e-05     -15.7144 
         750        15.64 -0.000196381  1.08766e-05     -15.7144 
         750      15.7615 -0.000195014  1.07505e-05     -15.7144 
         750      15.8834 -0.000193642  1.06256e-05     -15.7144 
         750      16.0058 -0.000192265  1.05034e-05     -15.7144 
         750      16.1286 -0.000190892  1.03855e-05     -15.7144 
         750       16.252 -0.000189522  1.02726e-05     -15.7144 
         750      16.3759  -0.00018816  1.01653e-05     -15.7144 
         750      16.5002  -0.00018681  1.00637e-05     -15.7144 
         750       16.625 -0.000185473  9.96732e-06     -15.7144 
         750      16.7501 -0.000184153  9.87589e-06     -15.7144 
         750      16.8759  -0.00018285  9.78849e-06     -15.7144 
         750       17.002 -0.000181569  9.70439e-06     -15.7144 
         750      17.1287 -0.000180309  9.62246e-06     -15.7144 
         750      17.2557 -0.000179073  9.54181e-06     -15.7144 
         750      17.3834 -0.000177861  9.46127e-06     -15.7144 
         750      17.5115 -0.000176674  9.37997e-06     -15.7144 
         750      17.6399 -0.000175514   9.2971e-06     -15.7144 
         750       17.769 -0.000174381  9.21186e-06     -15.7144 
         750      17.8984 -0.000173275  9.12393e-06     -15.7144 
         750      18.0284 -0.000172196  9.03296e-06     -15.7144 
         750      18.1587 -0.000171144  8.93923e-06     -15.7144 
         750      18.2896 -0.000170118  8.84305e-06     -15.7144 
         750       18.421 -0.000169119  8.74539e-06     -15.7144 
         750      18.5528 -0.000168145  8.64763e-06     -15.7144 
         750      18.6851 -0.000167195  8.55143e-06     -15.7144 
         750      18.8178 -0.000166268  8.45926e-06     -15.7144 
         750      18.9511 -0.000165362  8.37381e-06     -15.7144 
         750      19.0847 -0.000164463    8.282e-06     -15.7144 
         750      19.2189 -0.000163553  8.16937e-06     -15.7144 
         750      19.3535  -0.00016266  8.06664e-06     -15.7144 
         750      19.4886 -0.000161783  7.97357e-06     -15.7144 
         750      19.6242 -0.000160921  7.88993e-06     -15.7144 
         750      19.7602 -0.000160076  7.81528e-06     -15.7143 
         750      19.8968 -0.000159247  7.74879e-06     -15.7143 
         750      20.0337 -0.000158435  7.68974e-06     -15.7143 
         750      20.1712 -0.000157638  7.63705e-06     -15.7143 
         750      20.3091  -0.00015686  7.58975e-06     -15.7143 
         750      20.4475 -0.000156099  7.54663e-06     -15.7143 
         750      20.5864 -0.000155356  7.50659e-06     -15.7143 
         750      20.7257 -0.000154632  7.46853e-06     -15.7143 
         750      20.8655 -0.000153928  7.43132e-06     -15.7143 
         750      21.0058 -0.000153243  7.39409e-06     -15.7143 
         750      21.1465 -0.000152578  7.35602e-06     -15.7143 
         750      21.2877 -0.000151933  7.31663e-06     -15.7143 
         750      21.4294 -0.000151307  7.27563e-06     -15.7143 
         750      21.5716   -0.0001507  7.23319e-06     -15.7143 
         750      21.7142 -0.000150111  7.18992e-06     -15.7143 
         750      21.8573 -0.000149537  7.14686e-06     -15.7143 
         750      22.0008 -0.000148977  7.10579e-06     -15.7143 
         750      22.1449 -0.000148425  7.06905e-06     -15.7143 
         750      22.2893 -0.000147878  7.03992e-06     -15.7143 
         750      22.4344  -0.00014733  7.02248e-06     -15.7143 
         750      22.5797 -0.000146776  7.01526e-06     -15.7143 
         750      22.7257 -0.000146233  6.98297e-06     -15.7143 
         750      22.8721 -0.000145693    6.963e-06     -15.7143 
         750      23.0189 -0.000145161  6.95176e-06     -15.7143 
         750      23.1663 -0.000144639  6.94579e-06     -15.7143 
         750       23.314 -0.000144131  6.94188e-06     -15.7143 
         750      23.4623 -0.000143638  6.93697e-06     -15.7143 
         750       23.611 -0.000143162  6.92826e-06     -15.7143 
         750      23.7602 -0.000142704  6.91317e-06     -15.7143 
         750        23.91 -0.000142266  6.88938e-06     -15.7143 
         750        24.06 -0.000141847  6.85491e-06     -15.7143 
         750      24.2107 -0.000141447  6.80796e-06     -15.7143 
         750      24.3617 -0.000141067  6.74718e-06     -15.7143 
         750      24.5133 -0.000140704  6.67138e-06     -15.7143 
         750      24.6653 -0.000140358  6.57991e-06     -15.7143 
         750      24.8178 -0.000140027  6.47222e-06     -15.7143 
         750      24.9708  -0.00013971   6.3483e-06     -15.7143 
         750      25.1242 -0.000139403   6.2086e-06     -15.7142 
         750      25.2781 -0.000139105  6.05356e-06     -15.7142 
         750      25.4324 -0.000138812  5.88449e-06     -15.7142 
         750      25.5873 -0.000138485  5.79068e-06     -15.7142 
         750      25.7426 -0.000138125  5.79315e-06     -15.7142 
         750      25.8984 -0.000137771  5.80557e-06     -15.7142 
         750      26.0546 -0.000137425  5.82439e-06     -15.7142 
         750      26.2114 -0.000137086  5.84643e-06     -15.7142 
         750      26.3686 -0.000136757  5.86884e-06     -15.7142 
         750      26.5262 -0.000136438  5.88911e-06     -15.7142 
         750      26.6844  -0.00013613  5.90522e-06     -15.7142 
         750      26.8429 -0.000135834  5.91549e-06     -15.7142 
         750       27.002  -0.00013555  5.91873e-06     -15.7142 
         750      27.1615 -0.000135278  5.91416e-06     -15.7142 
         750      27.3216 -0.000135018  5.90142e-06     -15.7142 
         750      27.4821 -0.000134771   5.8806e-06     -15.7142 
         750       27.643 -0.000134535  5.85221e-06     -15.7142 
         750      27.8044 -0.000134312  5.81707e-06     -15.7142 
         750      27.9663 -0.000134099  5.77646e-06     -15.7142 
         750      28.1287 -0.000133897  5.73183e-06     -15.7142 
         750      28.2914 -0.000133705  5.68503e-06     -15.7142 
         750      28.4548 -0.000133521  5.63793e-06     -15.7142 
         750      28.6185 -0.000133344  5.59269e-06     -15.7142 
         750      28.7828 -0.000133174  5.55133e-06     -15.7142 
         750      28.9475 -0.000133009  5.51594e-06     -15.7142 
         750      29.1126 -0.000132848   5.4884e-06     -15.7142 
         750      29.2784 -0.000132688  5.47023e-06     -15.7141 
         750      29.4444 -0.000132529  5.46259e-06     -15.7141 
         750       29.611 -0.000132369  5.46603e-06     -15.7141 
         750       29.778 -0.000132205  5.48036e-06     -15.7141 
         750      29.9456 -0.000132036  5.50449e-06     -15.7141 
         750      30.1137  -0.00013186   5.5362e-06     -15.7141 
         750      30.2821 -0.000131675  5.57191e-06     -15.7141 
         750      30.4511  -0.00013148  5.60657e-06     -15.7141 
         750      30.6204 -0.000131271  5.63324e-06     -15.7141 
         750      30.7903 -0.000131048  5.64299e-06     -15.7141 
         750      30.9606 -0.000130808  5.62451e-06     -15.7141 
         750      31.1315 -0.000130628  5.55395e-06     -15.7141 
         750      31.3028 -0.000130488  5.47838e-06     -15.7141 
         750      31.4745 -0.000130349  5.41187e-06     -15.7141 
         750      31.6468 -0.000130214  5.35272e-06     -15.7141 
         750      31.8194 -0.000130084   5.2997e-06     -15.7141 
         750      31.9926 -0.000129958  5.25161e-06     -15.7141 
         750      32.1662 -0.000129838  5.20764e-06     -15.7141 
         750      32.3404 -0.000129723  5.16702e-06     -15.7141 
         750      32.5149 -0.000129614  5.12929e-06     -15.7141 
         750        32.69 -0.000129512  5.09399e-06      -15.714 
         750      32.8655 -0.000129415   5.0609e-06      -15.714 
         750      33.0414 -0.000129325   5.0299e-06      -15.714 
         750       33.218 -0.000129239   5.0009e-06      -15.714 
         750      33.3948  -0.00012916  4.97395e-06      -15.714 
         750      33.5723 -0.000129085   4.9491e-06      -15.714 
         750        33.75 -0.000129014   4.9265e-06      -15.714 
         750      33.9284 -0.000128947  4.90626e-06      -15.714 
         750      34.1073 -0.000128884  4.88855e-06      -15.714 
         750      34.2865 -0.000128823  4.87353e-06      -15.714 
         750      34.4663 -0.000128765  4.86129e-06      -15.714 
         750      34.6465 -0.000128708  4.85196e-06      -15.714 
         750      34.8272 -0.000128651  4.84556e-06      -15.714 
         750      35.0083 -0.000128595  4.84213e-06      -15.714 
         750        35.19 -0.000128539  4.84159e-06      -15.714 
         750      35.3721 -0.000128481  4.84383e-06      -15.714 
         750      35.5546 -0.000128422  4.84864e-06      -15.714 
         750      35.7377 -0.000128362  4.85576e-06     -15.7139 
         750      35.9211 -0.000128299  4.86483e-06     -15.7139 
         750      36.1052 -0.000128234  4.87544e-06     -15.7139 
         750      36.2895 -0.000128166  4.88706e-06     -15.7139 
         750      36.4745 -0.000128095  4.89912e-06     -15.7139 
         750      36.6598 -0.000128021  4.91097e-06     -15.7139 
         750      36.8457 -0.000127945   4.9219e-06     -15.7139 
         750      37.0321 -0.000127867  4.93113e-06     -15.7139 
         750      37.2188 -0.000127787  4.93786e-06     -15.7139 
         750      37.4062 -0.000127706  4.94127e-06     -15.7139 
         750      37.5938 -0.000127624  4.94052e-06     -15.7139 
         750      37.7821 -0.000127543  4.93476e-06     -15.7139 
         750      37.9707 -0.000127464  4.92323e-06     -15.7139 
         750      38.1599 -0.000127388  4.90515e-06     -15.7139 
         750      38.3496 -0.000127317  4.87991e-06     -15.7139 
         750      38.5396 -0.000127252  4.84699e-06     -15.7139 
         750      38.7302   -0.0001272  4.80475e-06     -15.7138 
         750      38.9211 -0.000127179   4.7509e-06     -15.7138 
         750      39.1127 -0.000127168  4.69366e-06     -15.7138 
         750      39.3046 -0.000127165  4.63378e-06     -15.7138 
         750      39.4971 -0.000127171  4.57209e-06     -15.7138 
         750      39.6899  -0.00012718  4.50998e-06     -15.7138 
         750      39.8833  -0.00012719  4.44911e-06     -15.7138 
         750      40.0772 -0.000127193  4.39184e-06     -15.7138 
         750      40.2714 -0.000127182  4.34118e-06     -15.7138 
         750      40.4663 -0.000127147  4.30078e-06     -15.7138 
         750      40.6615 -0.000127076  4.27535e-06     -15.7138 
         750      40.8573 -0.000126954   4.2705e-06     -15.7138 
         750      41.0534 -0.000126764  4.29307e-06     -15.7138 
         750      41.2501 -0.000126771  4.29372e-06     -15.7137 
         750      41.4473 -0.000127018  4.24317e-06     -15.7137 
         750      41.6448 -0.000127177  4.19895e-06     -15.7137 
         750      41.8429 -0.000127261    4.159e-06     -15.7137 
         750      42.0414  -0.00012728  4.12198e-06     -15.7137 
         750      42.2405 -0.000127245  4.08695e-06     -15.7137 
         750      42.4399 -0.000127167  4.05356e-06     -15.7137 
         750      42.6399 -0.000127055  4.02179e-06     -15.7137 
         750      42.8404 -0.000126919  3.99203e-06     -15.7137 
         750      43.0412 -0.000126767  3.96497e-06     -15.7137 
         750      43.2426 -0.000126605  3.94148e-06     -15.7137 
         750      43.4444 -0.000126487  3.94021e-06     -15.7137 
         750      43.6467 -0.000126457  3.96658e-06     -15.7136 
         750      43.8494 -0.000126439  3.98482e-06     -15.7136 
         750      44.0527 -0.000126432  3.99442e-06     -15.7136 
         750      44.2563 -0.000126435  3.99529e-06     -15.7136 
         750      44.4606 -0.000126446  3.98772e-06     -15.7136 
         750      44.6653 -0.000126464  3.97229e-06     -15.7136 
         750      44.8704 -0.000126486  3.94984e-06     -15.7136 
         750       45.076 -0.000126511  3.92135e-06     -15.7136 
         750       45.282 -0.000126535  3.88796e-06     -15.7136 
         750      45.4886 -0.000126557   3.8508e-06     -15.7136 
         750      45.6955 -0.000126576  3.81111e-06     -15.7136 
         750       45.903 -0.000126588  3.76998e-06     -15.7136 
         750      46.1111 -0.000126594  3.72851e-06     -15.7135 
         750      46.3194 -0.000126591  3.68771e-06     -15.7135 
         750      46.5283  -0.00012658  3.64833e-06     -15.7135 
         750      46.7376 -0.000126559  3.61108e-06     -15.7135 
         750      46.9475 -0.000126529  3.57638e-06     -15.7135 
         750      47.1577 -0.000126491  3.54453e-06     -15.7135 
         750      47.3685 -0.000126445  3.51555e-06     -15.7135 
         750      47.5798 -0.000126393  3.48932e-06     -15.7135 
         750      47.7914 -0.000126336  3.46549e-06     -15.7135 
         750      48.0037 -0.000126277   3.4435e-06     -15.7135 