Variables = x, y, u, v, p

Zone, I=800, F=POINT
         -10            0  7.95306e-20  2.23719e-24      48.4246 
         -10     0.000234  3.93425e-06   1.1178e-10      48.4246 
         -10     0.000939  1.47548e-05  4.32528e-10      48.4246 
         -10     0.002113  2.96236e-05  9.18653e-10      48.4246 
         -10     0.003759  4.47874e-05  1.51665e-09      48.4246 
         -10     0.005872  5.65345e-05  2.17801e-09      48.4246 
         -10     0.008457   6.2424e-05  2.88452e-09      48.4246 
         -10      0.01151  6.19114e-05  3.65394e-09      48.4246 
         -10     0.015036  5.65465e-05  4.54454e-09      48.4246 
         -10     0.019031  4.93988e-05  5.63515e-09      48.4246 
         -10     0.023493  4.38597e-05  6.99945e-09      48.4246 
         -10     0.028429  4.21776e-05  8.67449e-09      48.4246 
         -10     0.033831  4.43222e-05  1.06242e-08      48.4246 
         -10     0.039706  4.77796e-05  1.27396e-08      48.4246 
         -10     0.046047   4.8842e-05  1.48491e-08      48.4246 
         -10     0.052863  4.53508e-05  1.67805e-08      48.4246 
         -10      0.06015  3.96953e-05  1.84145e-08      48.4246 
         -10       0.0679  3.88953e-05  1.97075e-08      48.4246 
         -10     0.076126  4.54039e-05  2.05508e-08      48.4246 
         -10     0.084816  3.67914e-05  2.03621e-08      48.4246 
         -10     0.093982  3.94089e-05  1.91704e-08      48.4246 
         -10     0.103611  3.97161e-05  1.66154e-08      48.4246 
         -10     0.113718  3.89544e-05  1.23483e-08      48.4246 
         -10     0.124286  3.80074e-05  6.06307e-09      48.4246 
         -10     0.135333  3.73615e-05 -2.53396e-09      48.4246 
         -10      0.14685  3.71393e-05 -1.36997e-08      48.4246 
         -10     0.158827  3.71951e-05 -2.76758e-08      48.4246 
         -10     0.171284  3.72717e-05 -4.47497e-08      48.4246 
         -10     0.184201  3.71808e-05 -6.51798e-08      48.4246 
         -10     0.197599  3.69551e-05 -8.93019e-08      48.4246 
         -10     0.211455  3.68819e-05 -1.17354e-07      48.4246 
         -10     0.225792  3.72912e-05  -1.4954e-07      48.4246 
         -10       0.2406  3.79198e-05 -1.85695e-07      48.4246 
         -10     0.255865  3.78306e-05 -2.25102e-07      48.4246 
         -10     0.271613  3.83727e-05  -2.6901e-07      48.4246 
         -10     0.287818  3.88955e-05 -3.17406e-07      48.4246 
         -10     0.304506  3.94244e-05 -3.69777e-07      48.4246 
         -10      0.32165  3.99752e-05 -4.25657e-07      48.4246 
         -10     0.339278  4.05578e-05 -4.84939e-07      48.4246 
         -10     0.357377  4.11735e-05 -5.47519e-07      48.4246 
         -10      0.37593  4.18177e-05 -6.13346e-07      48.4246 
         -10     0.394968  4.24831e-05 -6.82543e-07      48.4246 
         -10     0.414461  4.31583e-05 -7.54944e-07      48.4246 
         -10      0.43444  4.38335e-05 -8.30467e-07      48.4245 
         -10     0.454872  4.44992e-05 -9.08608e-07      48.4245 
         -10     0.475791  4.51515e-05 -9.88933e-07      48.4245 
         -10     0.497163  4.57893e-05 -1.07062e-06      48.4245 
         -10     0.519021  4.64173e-05 -1.15314e-06      48.4245 
         -10      0.54135  4.70404e-05 -1.23608e-06      48.4245 
         -10     0.564131  4.76594e-05 -1.31978e-06      48.4245 
         -10       0.5874  4.82627e-05 -1.40625e-06      48.4245 
         -10     0.611121  4.88156e-05  -1.4993e-06      48.4245 
         -10      0.63533  4.93844e-05 -1.59271e-06      48.4245 
         -10      0.65999   4.9935e-05 -1.68391e-06      48.4245 
         -10     0.685139  5.04696e-05 -1.77383e-06      48.4245 
         -10     0.710759   5.0989e-05 -1.86302e-06      48.4245 
         -10     0.736828  5.14936e-05 -1.95184e-06      48.4245 
         -10     0.763387  5.19848e-05 -2.04068e-06      48.4245 
         -10     0.790396   5.2462e-05  -2.1295e-06      48.4245 
         -10     0.817896  5.29261e-05 -2.21836e-06      48.4245 
         -10     0.845843   5.3376e-05 -2.30693e-06      48.4245 
         -10     0.874283  5.38119e-05 -2.39508e-06      48.4245 
         -10      0.90317  5.42326e-05 -2.48231e-06      48.4245 
         -10     0.932551   5.4638e-05 -2.56838e-06      48.4245 
         -10     0.962401  5.50268e-05 -2.65283e-06      48.4245 
         -10     0.992697  5.53981e-05 -2.73527e-06      48.4245 
         -10      1.02349  5.57517e-05 -2.81557e-06      48.4245 
         -10      1.05472  5.60863e-05 -2.89343e-06      48.4245 
         -10      1.08645  5.64023e-05 -2.96894e-06      48.4245 
         -10      1.11863  5.66991e-05 -3.04208e-06      48.4245 
         -10       1.1513  5.69775e-05 -3.11316e-06      48.4245 
         -10      1.18444  5.72379e-05 -3.18243e-06      48.4245 
         -10      1.21802  5.74813e-05 -3.25018e-06      48.4245 
         -10      1.25211    5.771e-05 -3.31679e-06      48.4244 
         -10      1.28663  5.79255e-05 -3.38224e-06      48.4244 
         -10      1.32165  5.81308e-05 -3.44638e-06      48.4244 
         -10      1.35712  5.83283e-05 -3.50823e-06      48.4244 
         -10      1.39308  5.85214e-05  -3.5661e-06      48.4244 
         -10      1.42951  5.87126e-05 -3.61688e-06      48.4244 
         -10      1.46638  5.89044e-05 -3.65569e-06      48.4244 
         -10      1.50375  5.90985e-05  -3.6754e-06      48.4244 
         -10      1.54156  5.88322e-05  -3.7823e-06      48.4244 
         -10      1.57987  5.87988e-05 -3.84756e-06      48.4244 
         -10      1.61863  5.89656e-05 -3.87376e-06      48.4244 
         -10      1.65788  5.92606e-05 -3.87228e-06      48.4244 
         -10      1.69757  5.96187e-05 -3.85315e-06      48.4243 
         -10      1.73776  5.99836e-05 -3.82508e-06      48.4243 
         -10      1.77842  6.03062e-05 -3.79549e-06      48.4243 
         -10      1.81952  6.05453e-05 -3.77045e-06      48.4243 
         -10      1.86113  6.06689e-05 -3.75462e-06      48.4243 
         -10      1.90316  6.06521e-05 -3.75139e-06      48.4243 
         -10      1.94571   6.0478e-05 -3.76283e-06      48.4243 
         -10      1.98869  6.01377e-05 -3.78971e-06      48.4243 
         -10      2.03217  5.96286e-05 -3.83169e-06      48.4242 
         -10      2.07612  5.89557e-05 -3.88724e-06      48.4242 
         -10      2.12051  5.81305e-05 -3.95378e-06      48.4242 
         -10       2.1654  5.71682e-05 -4.02795e-06      48.4242 
         -10      2.21073  5.60917e-05 -4.10539e-06      48.4242 
         -10      2.25656  5.49245e-05 -4.18132e-06      48.4242 
         -10      2.30283  5.36973e-05 -4.25021e-06      48.4241 
         -10       2.3496  5.24388e-05 -4.30639e-06      48.4241 
         -10      2.39685  5.11824e-05 -4.34384e-06      48.4241 
         -10      2.44452  4.99615e-05  -4.3566e-06      48.4241 
         -10      2.49271   4.8806e-05 -4.33889e-06      48.4241 
         -10      2.54132   4.7748e-05 -4.28531e-06      48.4241 
         -10      2.59044  4.68131e-05 -4.19088e-06       48.424 
         -10         2.64  4.60264e-05 -4.05157e-06       48.424 
         -10      2.69006  4.54059e-05 -3.86388e-06       48.424 
         -10      2.74056   4.4966e-05 -3.62588e-06       48.424 
         -10      2.79156  4.47134e-05 -3.33615e-06      48.4239 
         -10      2.84304  4.46494e-05 -2.99515e-06      48.4239 
         -10      2.89494  4.47672e-05 -2.60493e-06      48.4239 
         -10      2.94735  4.50533e-05 -2.16805e-06      48.4239 
         -10       3.0002  4.54865e-05 -1.68989e-06      48.4238 
         -10      3.05355  4.60397e-05  -1.1759e-06      48.4238 
         -10      3.10733  4.66787e-05 -6.34439e-07      48.4238 
         -10      3.16163  4.73662e-05 -7.35084e-08      48.4238 
         -10      3.21639  4.80604e-05  4.96574e-07      48.4237 
         -10      3.27158  4.87188e-05  1.06472e-06      48.4237 
         -10      3.32729  4.93026e-05  1.62085e-06      48.4237 
         -10      3.38342  4.97767e-05  2.15328e-06      48.4236 
         -10      3.44007  5.01175e-05  2.65279e-06      48.4236 
         -10      3.49714  5.03157e-05  3.11008e-06      48.4236 
         -10      3.55472  5.03839e-05  3.51979e-06      48.4235 
         -10      3.61273   5.0363e-05   3.8787e-06      48.4235 
         -10      3.67125  5.03308e-05  4.18952e-06      48.4234 
         -10      3.73025  5.04118e-05  4.46032e-06      48.4234 
         -10      3.78967  5.04351e-05  4.75199e-06      48.4234 
         -10      3.84961  5.03913e-05   5.1783e-06      48.4233 
         -10      3.90996  5.03902e-05  5.66514e-06      48.4233 
         -10      3.97084   5.0416e-05  6.15378e-06      48.4232 
         -10      4.03214    5.045e-05   6.6088e-06      48.4232 
         -10      4.09395  5.04729e-05  7.01653e-06      48.4231 
         -10      4.15624  5.04676e-05  7.37776e-06      48.4231 
         -10      4.21895  5.04205e-05  7.70376e-06       48.423 
         -10      4.28217  5.03374e-05  8.11386e-06       48.423 
         -10      4.34582  5.02618e-05  8.58924e-06      48.4229 
         -10      4.40998  5.02035e-05  9.07487e-06      48.4229 
         -10      4.47457  5.01659e-05  9.54502e-06      48.4228 
         -10      4.53968  5.01486e-05   9.9836e-06      48.4228 
         -10      4.60525  5.01483e-05  1.03801e-05      48.4227 
         -10      4.67125  5.01591e-05    1.073e-05      48.4226 
         -10      4.73777  5.01737e-05  1.10341e-05      48.4226 
         -10       4.8047  5.01843e-05  1.12966e-05      48.4225 
         -10      4.87216  5.01834e-05  1.15266e-05      48.4225 
         -10      4.94003  5.01659e-05  1.17367e-05      48.4224 
         -10      5.00843  5.01295e-05  1.19453e-05      48.4223 
         -10      5.07724  5.00776e-05  1.21764e-05      48.4222 
         -10      5.14658  5.00198e-05  1.24634e-05      48.4222 
         -10      5.21639  4.99755e-05  1.28502e-05      48.4221 
         -10      5.28661  4.99679e-05  1.32842e-05       48.422 
         -10      5.35736  4.99048e-05  1.33217e-05      48.4219 
         -10      5.42852  4.97894e-05  1.35358e-05      48.4219 
         -10      5.50021  4.96507e-05  1.38239e-05      48.4218 
         -10      5.57231  4.95094e-05  1.41159e-05      48.4217 
         -10      5.64493  4.93786e-05  1.43703e-05      48.4216 
         -10      5.71803  4.92662e-05  1.45672e-05      48.4215 
         -10      5.79154  4.91755e-05   1.4704e-05      48.4214 
         -10      5.86558  4.91069e-05  1.47899e-05      48.4213 
         -10      5.94003  4.90593e-05  1.48412e-05      48.4212 
         -10      6.01501  4.90304e-05  1.48772e-05      48.4211 
         -10       6.0904  4.90182e-05  1.49163e-05       48.421 
         -10      6.16632   4.9021e-05  1.49735e-05      48.4209 
         -10      6.24271   4.9038e-05  1.50577e-05      48.4208 
         -10       6.3195  4.90687e-05  1.51709e-05      48.4207 
         -10      6.39683  4.91133e-05  1.53079e-05      48.4206 
         -10      6.47457  4.91707e-05  1.54574e-05      48.4205 
         -10      6.55284   4.9238e-05  1.56047e-05      48.4204 
         -10      6.63152  4.93083e-05  1.57353e-05      48.4202 
         -10      6.71073  4.93681e-05  1.58414e-05      48.4201 
         -10      6.79034  4.93943e-05  1.59287e-05        48.42 
         -10      6.87049  4.93504e-05  1.60272e-05      48.4199 
         -10      6.95111  4.92605e-05  1.62888e-05      48.4197 
         -10      7.03214  4.93437e-05  1.70934e-05      48.4196 
         -10       7.1137   4.9314e-05  1.68396e-05      48.4195 
         -10      7.19566  4.93081e-05  1.68466e-05      48.4193 
         -10      7.27816  4.93283e-05  1.67725e-05      48.4192 
         -10      7.36106  4.93371e-05  1.68151e-05       48.419 
         -10      7.44451  4.93235e-05  1.69363e-05      48.4189 
         -10      7.52842  4.92875e-05  1.71044e-05      48.4187 
         -10      7.61273  4.92362e-05   1.7294e-05      48.4186 
         -10      7.69758  4.91796e-05  1.74872e-05      48.4184 
         -10      7.78283  4.91281e-05  1.76721e-05      48.4182 
         -10      7.86862  4.90892e-05  1.78439e-05      48.4181 
         -10      7.95481  4.90663e-05  1.80025e-05      48.4179 
         -10      8.04155  4.90573e-05   1.8153e-05      48.4177 
         -10      8.12868  4.90547e-05  1.83029e-05      48.4175 
         -10      8.21635  4.90465e-05   1.8461e-05      48.4173 
         -10      8.30449  4.90183e-05  1.86346e-05      48.4172 
         -10      8.39303   4.8957e-05  1.88261e-05       48.417 
         -10      8.48211  4.88548e-05  1.90306e-05      48.4168 
         -10      8.57159  4.87169e-05  1.92302e-05      48.4166 
         -10      8.66161  4.85682e-05  1.93908e-05      48.4164 
         -10      8.75203  4.84642e-05  1.94551e-05      48.4161 
         -10      8.84299  4.85026e-05   1.9337e-05      48.4159 
         -10      8.93443   4.8518e-05  1.94052e-05      48.4157 
         -10      9.02626  4.83252e-05  1.96749e-05      48.4155 
         -10      9.11863  4.82352e-05  1.97305e-05      48.4153 
         -10      9.21139  4.82088e-05  1.97462e-05       48.415 
         -10      9.30471   4.8191e-05  1.98033e-05      48.4148 
         -10      9.39841  4.81294e-05  1.99027e-05      48.4145 
         -10      9.49267  4.79938e-05  1.99764e-05      48.4143 
         -10      9.58739  4.80041e-05  1.99406e-05       48.414 
         -10      9.68251  4.81169e-05  1.99254e-05      48.4138 
         -10      9.77817  4.82102e-05  1.99315e-05      48.4135 
         -10      9.87422  4.82678e-05  1.99416e-05      48.4132 
         -10      9.97083  4.82848e-05   1.9945e-05       48.413 
         -10      10.0678  4.82642e-05  1.99375e-05      48.4127 
         -10      10.1654  4.82143e-05  1.99189e-05      48.4124 
         -10      10.2633  4.81466e-05  1.98928e-05      48.4121 
         -10      10.3618  4.80731e-05  1.98638e-05      48.4118 
         -10      10.4607  4.80045e-05  1.98368e-05      48.4115 
         -10      10.5601  4.79485e-05  1.98149e-05      48.4112 
         -10        10.66  4.79077e-05  1.97971e-05      48.4109 
         -10      10.7603  4.78794e-05  1.97768e-05      48.4106 
         -10      10.8611  4.78536e-05  1.97391e-05      48.4103 
         -10      10.9623  4.78134e-05  1.96589e-05      48.4099 
         -10      11.0641  4.77348e-05  1.94977e-05      48.4096 
         -10      11.1663  4.75952e-05  1.92172e-05      48.4093 
         -10       11.269  4.76409e-05  1.92962e-05      48.4089 
         -10      11.3721  4.76283e-05  1.92402e-05      48.4086 
         -10      11.4757  4.75894e-05   1.9073e-05      48.4082 
         -10      11.5798  4.75455e-05  1.88305e-05      48.4078 
         -10      11.6844  4.75074e-05  1.85558e-05      48.4075 
         -10      11.7894  4.74773e-05  1.82919e-05      48.4071 
         -10       11.895  4.74498e-05  1.80764e-05      48.4067 
         -10      12.0009  4.74144e-05  1.79344e-05      48.4063 
         -10      12.1073  4.73577e-05  1.78717e-05      48.4059 
         -10      12.2142  4.72663e-05  1.78677e-05      48.4055 
         -10      12.3216  4.71301e-05  1.78684e-05      48.4051 
         -10      12.4294  4.69469e-05  1.77785e-05      48.4047 
         -10      12.5378  4.68111e-05  1.76407e-05      48.4042 
         -10      12.6465  4.67835e-05  1.75602e-05      48.4038 
         -10      12.7558  4.67678e-05  1.74298e-05      48.4034 
         -10      12.8656  4.67452e-05  1.72764e-05      48.4029 
         -10      12.9757  4.67053e-05  1.71232e-05      48.4025 
         -10      13.0864  4.66445e-05  1.69871e-05       48.402 
         -10      13.1975  4.65644e-05   1.6879e-05      48.4015 
         -10      13.3092  4.64693e-05  1.68025e-05      48.4011 
         -10      13.4212  4.63649e-05   1.6756e-05      48.4006 
         -10      13.5338  4.62563e-05   1.6733e-05      48.4001 
         -10      13.6468  4.61466e-05   1.6726e-05      48.3996 
         -10      13.7603  4.60352e-05  1.67291e-05      48.3991 
         -10      13.8743   4.5916e-05   1.6744e-05      48.3986 
         -10      13.9886  4.57766e-05   1.6785e-05       48.398 
         -10      14.1036  4.55965e-05  1.68875e-05      48.3975 
         -10      14.2189  4.53465e-05  1.71159e-05       48.397 
         -10      14.3348  4.50963e-05  1.73234e-05      48.3964 
         -10       14.451  4.51846e-05  1.69458e-05      48.3959 
         -10      14.5678  4.53069e-05  1.67205e-05      48.3953 
         -10      14.6851  4.54386e-05  1.66053e-05      48.3947 
         -10      14.8028   4.5561e-05  1.65653e-05      48.3941 
         -10       14.921  4.56608e-05  1.65716e-05      48.3936 
         -10      15.0396  4.57293e-05  1.66012e-05       48.393 
         -10      15.1588   4.5762e-05  1.66366e-05      48.3924 
         -10      15.2783  4.57579e-05  1.66646e-05      48.3917 
         -10      15.3984  4.57189e-05  1.66763e-05      48.3911 
         -10       15.519  4.56495e-05  1.66662e-05      48.3905 
         -10        15.64  4.55559e-05  1.66321e-05      48.3899 
         -10      15.7615  4.54457e-05  1.65738e-05      48.3892 
         -10      15.8834  4.53273e-05  1.64935e-05      48.3886 
         -10      16.0058   4.5209e-05  1.63944e-05      48.3879 
         -10      16.1286  4.50992e-05  1.62813e-05      48.3872 
         -10       16.252  4.50053e-05   1.6159e-05      48.3865 
         -10      16.3759  4.49335e-05  1.60331e-05      48.3858 
         -10      16.5002  4.48886e-05  1.59088e-05      48.3851 
         -10       16.625  4.48728e-05  1.57909e-05      48.3844 
         -10      16.7501  4.48863e-05  1.56838e-05      48.3837 
         -10      16.8759  4.49263e-05  1.55908e-05       48.383 
         -10       17.002  4.49869e-05  1.55146e-05      48.3822 
         -10      17.1287   4.5059e-05  1.54566e-05      48.3815 
         -10      17.2557  4.51299e-05  1.54177e-05      48.3807 
         -10      17.3834  4.51833e-05  1.53974e-05        48.38 
         -10      17.5115  4.51992e-05  1.53949e-05      48.3792 
         -10      17.6399  4.51537e-05  1.54091e-05      48.3784 
         -10       17.769  4.50193e-05  1.54385e-05      48.3776 
         -10      17.8984  4.47652e-05  1.54823e-05      48.3768 
         -10      18.0284  4.43567e-05  1.55407e-05       48.376 
         -10      18.1587  4.41891e-05  1.53101e-05      48.3752 
         -10      18.2896  4.40804e-05  1.52189e-05      48.3743 
         -10       18.421  4.42586e-05  1.52809e-05      48.3735 
         -10      18.5528  4.45427e-05  1.53108e-05      48.3726 
         -10      18.6851  4.46509e-05  1.53624e-05      48.3718 
         -10      18.8178  4.46504e-05  1.53909e-05      48.3709 
         -10      18.9511  4.45888e-05   1.5372e-05        48.37 
         -10      19.0847  4.44982e-05  1.52973e-05      48.3691 
         -10      19.2189  4.43976e-05  1.51704e-05      48.3682 
         -10      19.3535  4.42969e-05  1.50034e-05      48.3673 
         -10      19.4886  4.41992e-05  1.48133e-05      48.3664 
         -10      19.6242  4.41035e-05  1.46196e-05      48.3654 
         -10      19.7602  4.40071e-05  1.44413e-05      48.3645 
         -10      19.8968  4.39071e-05  1.42943e-05      48.3635 
         -10      20.0337  4.38023e-05  1.41905e-05      48.3625 
         -10      20.1712  4.36936e-05  1.41361e-05      48.3616 
         -10      20.3091  4.35857e-05  1.41309e-05      48.3606 
         -10      20.4475  4.34859e-05  1.41685e-05      48.3596 
         -10      20.5864  4.34046e-05  1.42363e-05      48.3586 
         -10      20.7257  4.33541e-05  1.43169e-05      48.3575 
         -10      20.8655  4.33469e-05    1.439e-05      48.3565 
         -10      21.0058  4.33932e-05  1.44351e-05      48.3555 
         -10      21.1465  4.34989e-05  1.44347e-05      48.3544 
         -10      21.2877  4.36605e-05  1.43785e-05      48.3533 
         -10      21.4294  4.38624e-05  1.42688e-05      48.3523 
         -10      21.5716  4.40702e-05  1.41266e-05      48.3512 
         -10      21.7142   4.4225e-05  1.39988e-05      48.3501 
         -10      21.8573  4.42369e-05   1.3966e-05       48.349 
         -10      22.0008  4.39766e-05  1.41524e-05      48.3478 
         -10      22.1449  4.32657e-05  1.47363e-05      48.3467 
         -10      22.2893  4.31819e-05  1.46796e-05      48.3456 
         -10      22.4344  4.31416e-05  1.46353e-05      48.3444 
         -10      22.5797  4.31177e-05  1.46787e-05      48.3432 
         -10      22.7257  4.31659e-05  1.47627e-05       48.342 
         -10      22.8721   4.3287e-05  1.48621e-05      48.3409 
         -10      23.0189  4.34437e-05  1.49658e-05      48.3397 
         -10      23.1663  4.35799e-05  1.50679e-05      48.3384 
         -10       23.314  4.36401e-05  1.51592e-05      48.3372 
         -10      23.4623  4.35916e-05  1.52185e-05       48.336 
         -10       23.611  4.34471e-05  1.52026e-05      48.3347 
         -10      23.7602  4.32893e-05  1.50376e-05      48.3335 
         -10        23.91  4.32976e-05  1.46086e-05      48.3322 
         -10        24.06  4.35803e-05  1.40764e-05      48.3309 
         -10      24.2107  4.34907e-05  1.44125e-05      48.3296 
         -10      24.3617  4.34125e-05  1.47021e-05      48.3283 
         -10      24.5133  4.33502e-05  1.49054e-05       48.327 
         -10      24.6653  4.33074e-05  1.49982e-05      48.3256 
         -10      24.8178  4.32859e-05  1.49731e-05      48.3243 
         -10      24.9708  4.32854e-05  1.48371e-05      48.3229 
         -10      25.1242  4.33036e-05  1.46101e-05      48.3216 
         -10      25.2781  4.33362e-05  1.43217e-05      48.3202 
         -10      25.4324  4.33767e-05  1.40095e-05      48.3188 
         -10      25.5873  4.34168e-05  1.37136e-05      48.3174 
         -10      25.7426  4.34474e-05  1.34743e-05       48.316 
         -10      25.8984  4.34587e-05  1.33252e-05      48.3145 
         -10      26.0546  4.34415e-05   1.3289e-05      48.3131 
         -10      26.2114   4.3388e-05    1.337e-05      48.3116 
         -10      26.3686  4.32935e-05  1.35475e-05      48.3102 
         -10      26.5262  4.31581e-05  1.37669e-05      48.3087 
         -10      26.6844  4.29876e-05   1.3932e-05      48.3072 
         -10      26.8429  4.27973e-05  1.38937e-05      48.3057 
         -10       27.002  4.26139e-05  1.34497e-05      48.3042 
         -10      27.1615  4.26301e-05  1.38748e-05      48.3027 
         -10      27.3216  4.26564e-05  1.42037e-05      48.3011 
         -10      27.4821  4.26758e-05  1.44349e-05      48.2996 
         -10       27.643  4.26777e-05  1.45727e-05       48.298 
         -10      27.8044  4.26569e-05   1.4627e-05      48.2964 
         -10      27.9663  4.26129e-05  1.46113e-05      48.2948 
         -10      28.1287  4.25491e-05  1.45425e-05      48.2932 
         -10      28.2914   4.2472e-05  1.44396e-05      48.2916 
         -10      28.4548  4.23901e-05  1.43221e-05        48.29 
         -10      28.6185  4.23132e-05  1.42098e-05      48.2883 
         -10      28.7828  4.22513e-05  1.41208e-05      48.2867 
         -10      28.9475  4.22133e-05  1.40709e-05       48.285 
         -10      29.1126  4.22064e-05  1.40717e-05      48.2833 
         -10      29.2784  4.22345e-05  1.41296e-05      48.2816 
         -10      29.4444  4.22971e-05  1.42444e-05      48.2799 
         -10       29.611  4.23883e-05  1.44077e-05      48.2782 
         -10       29.778   4.2495e-05  1.46012e-05      48.2765 
         -10      29.9456   4.2596e-05   1.4796e-05      48.2747 
         -10      30.1137  4.26603e-05  1.49496e-05       48.273 
         -10      30.2821  4.26457e-05  1.50054e-05      48.2712 
         -10      30.4511  4.22564e-05  1.47825e-05      48.2694 
         -10      30.6204   4.1997e-05  1.46394e-05      48.2676 
         -10      30.7903  4.18494e-05  1.45757e-05      48.2658 
         -10      30.9606  4.17866e-05  1.45828e-05       48.264 
         -10      31.1315  4.17816e-05  1.46484e-05      48.2622 
         -10      31.3028  4.18092e-05  1.47571e-05      48.2603 
         -10      31.4745  4.18473e-05  1.48905e-05      48.2584 
         -10      31.6468  4.18779e-05  1.50284e-05      48.2566 
         -10      31.8194  4.18886e-05  1.51493e-05      48.2547 
         -10      31.9926  4.18738e-05  1.52328e-05      48.2528 
         -10      32.1662  4.18359e-05  1.52604e-05      48.2509 
         -10      32.3404  4.17862e-05  1.52186e-05      48.2489 
         -10      32.5149  4.17464e-05  1.51013e-05       48.247 
         -10        32.69  4.17495e-05  1.49124e-05       48.245 
         -10      32.8655  4.18408e-05  1.46705e-05      48.2431 
         -10      33.0414  4.20787e-05  1.44123e-05      48.2411 
         -10       33.218  4.21942e-05  1.44432e-05      48.2391 
         -10      33.3948  4.20693e-05  1.45829e-05      48.2371 
         -10      33.5723  4.18627e-05  1.46965e-05      48.2351 
         -10        33.75   4.1629e-05  1.47844e-05      48.2331 
         -10      33.9284  4.14081e-05  1.48507e-05       48.231 
         -10      34.1073   4.1228e-05   1.4901e-05       48.229 
         -10      34.2865  4.11055e-05  1.49419e-05      48.2269 
         -10      34.4663  4.10477e-05  1.49792e-05      48.2248 
         -10      34.6465  4.10542e-05  1.50172e-05      48.2227 
         -10      34.8272  4.11175e-05  1.50582e-05      48.2206 
         -10      35.0083  4.12252e-05  1.51014e-05      48.2185 
         -10        35.19  4.13607e-05  1.51432e-05      48.2163 
         -10      35.3721  4.15047e-05  1.51764e-05      48.2142 
         -10      35.5546  4.16357e-05   1.5191e-05       48.212 
         -10      35.7377  4.17318e-05  1.51742e-05      48.2098 
         -10      35.9211  4.17709e-05  1.51112e-05      48.2077 
         -10      36.1052  4.17316e-05  1.49858e-05      48.2055 
         -10      36.2895  4.15943e-05  1.47826e-05      48.2032 
         -10      36.4745  4.13406e-05  1.44869e-05       48.201 
         -10      36.6598  4.09552e-05  1.40888e-05      48.1988 
         -10      36.8457  4.06166e-05  1.37568e-05      48.1965 
         -10      37.0321  4.07135e-05  1.38599e-05      48.1942 
         -10      37.2188  4.07529e-05  1.39516e-05       48.192 
         -10      37.4062  4.07464e-05  1.40354e-05      48.1897 
         -10      37.5938  4.07044e-05  1.41134e-05      48.1874 
         -10      37.7821  4.06364e-05  1.41869e-05      48.1851 
         -10      37.9707  4.05512e-05  1.42562e-05      48.1827 
         -10      38.1599  4.04564e-05  1.43206e-05      48.1804 
         -10      38.3496  4.03592e-05  1.43785e-05       48.178 
         -10      38.5396  4.02666e-05  1.44276e-05      48.1756 
         -10      38.7302  4.01852e-05  1.44651e-05      48.1733 
         -10      38.9211  4.01224e-05  1.44878e-05      48.1709 
         -10      39.1127  4.00859e-05  1.44927e-05      48.1685 
         -10      39.3046  4.00854e-05  1.44771e-05       48.166 
         -10      39.4971  4.01321e-05  1.44391e-05      48.1636 
         -10      39.6899  4.02404e-05  1.43781e-05      48.1612 
         -10      39.8833  4.04281e-05  1.42955e-05      48.1587 
         -10      40.0772  4.06656e-05  1.42274e-05      48.1562 
         -10      40.2714  4.05743e-05  1.43533e-05      48.1537 
         -10      40.4663  4.05238e-05  1.43971e-05      48.1512 
         -10      40.6615  4.04927e-05  1.43841e-05      48.1487 
         -10      40.8573  4.04647e-05   1.4334e-05      48.1462 
         -10      41.0534  4.04281e-05  1.42619e-05      48.1437 
         -10      41.2501  4.03751e-05  1.41785e-05      48.1411 
         -10      41.4473  4.03014e-05  1.40913e-05      48.1386 
         -10      41.6448  4.02057e-05  1.40048e-05       48.136 
         -10      41.8429  4.00889e-05  1.39209e-05      48.1334 
         -10      42.0414  3.99542e-05    1.384e-05      48.1308 
         -10      42.2405  3.98057e-05  1.37608e-05      48.1282 
         -10      42.4399  3.96491e-05  1.36814e-05      48.1256 
         -10      42.6399  3.94902e-05  1.35991e-05      48.1229 
         -10      42.8404  3.93352e-05  1.35114e-05      48.1203 
         -10      43.0412  3.91905e-05  1.34161e-05      48.1176 
         -10      43.2426  3.90613e-05  1.33111e-05      48.1149 
         -10      43.4444  3.89526e-05  1.31956e-05      48.1122 
         -10      43.6467  3.88681e-05  1.30691e-05      48.1096 
         -10      43.8494  3.88102e-05  1.29328e-05      48.1068 
         -10      44.0527  3.87801e-05  1.27887e-05      48.1041 
         -10      44.2563   3.8777e-05  1.26403e-05      48.1014 
         -10      44.4606  3.87988e-05  1.24916e-05      48.0986 
         -10      44.6653  3.88414e-05  1.23484e-05      48.0959 
         -10      44.8704   3.8899e-05  1.22169e-05      48.0931 
         -10       45.076  3.89642e-05  1.21038e-05      48.0903 
         -10       45.282  3.90277e-05  1.20165e-05      48.0875 
         -10      45.4886  3.90791e-05  1.19616e-05      48.0847 
         -10      45.6955  3.91064e-05  1.19456e-05      48.0819 
         -10       45.903  3.90968e-05  1.19736e-05      48.0791 
         -10      46.1111  3.90369e-05  1.20488e-05      48.0762 
         -10      46.3194   3.8913e-05  1.21715e-05      48.0734 
         -10      46.5283  3.87114e-05  1.23391e-05      48.0705 
         -10      46.7376  3.84197e-05  1.25439e-05      48.0676 
         -10      46.9475  3.80261e-05  1.27732e-05      48.0648 
         -10      47.1577  3.75218e-05  1.30069e-05      48.0619 
         -10      47.3685  3.70489e-05  1.31476e-05      48.0589 
         -10      47.5798  3.78415e-05  1.26636e-05       48.056 
         -10      47.7914  3.84388e-05  1.23081e-05      48.0531 
         -10      48.0037  3.88642e-05  1.20733e-05      48.0501 