Variables = x, y, u, v, p

Zone, I=800, F=POINT
         850            0           -0           -0      9.87499 
         850     0.000234  5.03126e-06  4.93123e-11      9.87499 
         850     0.000939  1.97856e-05  7.97789e-10      9.87499 
         850     0.002113  4.31067e-05  4.04601e-09      9.87499 
         850     0.003759  7.34946e-05  1.28217e-08      9.87499 
         850     0.005872  0.000109228  3.13323e-08      9.87499 
         850     0.008457  0.000149056  6.50934e-08      9.87499 
         850      0.01151  0.000192133  1.20781e-07      9.87499 
         850     0.015036  0.000238365   2.0649e-07      9.87499 
         850     0.019031   0.00028798  3.31411e-07      9.87499 
         850     0.023493  0.000341325   5.0597e-07      9.87499 
         850     0.028429  0.000398474   7.4224e-07      9.87499 
         850     0.033831  0.000458599  1.05284e-06      9.87499 
         850     0.039706  0.000520274  1.45235e-06      9.87499 
         850     0.046047  0.000581594  1.95555e-06      9.87499 
         850     0.052863  0.000641379  2.57946e-06      9.87499 
         850      0.06015  0.000699826    3.341e-06      9.87499 
         850       0.0679  0.000758518  4.25716e-06      9.87499 
         850     0.076126  0.000817308  5.34795e-06      9.87499 
         850     0.084816  0.000867281  6.63068e-06      9.87499 
         850     0.093982  0.000918353  8.12622e-06      9.87499 
         850     0.103611  0.000964132  9.85146e-06      9.87499 
         850     0.113718   0.00100472  1.18279e-05      9.87499 
         850     0.124286   0.00103998  1.40704e-05      9.87499 
         850     0.135333   0.00106983  1.66003e-05      9.87499 
         850      0.14685   0.00109401  1.94322e-05      9.87499 
         850     0.158827   0.00111226  2.25788e-05      9.87499 
         850     0.171284    0.0011244   2.6059e-05      9.87499 
         850     0.184201   0.00113033  2.98795e-05      9.87499 
         850     0.197599   0.00113016  3.40569e-05      9.87499 
         850     0.211455    0.0011242  3.85923e-05      9.87499 
         850     0.225792   0.00111286  4.34999e-05      9.87499 
         850       0.2406   0.00109634  4.87807e-05      9.87499 
         850     0.255865   0.00107463  5.44319e-05      9.87499 
         850     0.271613   0.00104878  6.04631e-05      9.87499 
         850     0.287818   0.00101901  6.68627e-05      9.87499 
         850     0.304506  0.000985815  7.36372e-05      9.87499 
         850      0.32165  0.000949817  8.07701e-05      9.87499 
         850     0.339278  0.000911523  8.82661e-05      9.87499 
         850     0.357377   0.00087153  9.61113e-05      9.87499 
         850      0.37593  0.000830436  0.000104289      9.87499 
         850     0.394968  0.000788716  0.000112801      9.87499 
         850     0.414461  0.000746953  0.000121623      9.87499 
         850      0.43444   0.00070557  0.000130757      9.87499 
         850     0.454872  0.000665088  0.000140177      9.87499 
         850     0.475791  0.000625859  0.000149884      9.87499 
         850     0.497163  0.000588321   0.00015985      9.87499 
         850     0.519021  0.000552754  0.000170081      9.87499 
         850      0.54135  0.000519478  0.000180556      9.87499 
         850     0.564131  0.000488764  0.000191255      9.87499 
         850       0.5874  0.000460763  0.000202185      9.87499 
         850     0.611121   0.00043566  0.000213318      9.87499 
         850      0.63533  0.000413576  0.000224667      9.87499 
         850      0.65999   0.00039461  0.000236196      9.87499 
         850     0.685139  0.000378774  0.000247916      9.87499 
         850     0.710759  0.000366099  0.000259813      9.87499 
         850     0.736828  0.000356579  0.000271871      9.87499 
         850     0.763387  0.000350157  0.000284102      9.87499 
         850     0.790396  0.000346772   0.00029648      9.87499 
         850     0.817896  0.000346317  0.000309017      9.87499 
         850     0.845843  0.000348658  0.000321683      9.87499 
         850     0.874283  0.000353638   0.00033449      9.87499 
         850      0.90317  0.000361052  0.000347408      9.87499 
         850     0.932551   0.00037069  0.000360446      9.87499 
         850     0.962401  0.000382294  0.000373582      9.87499 
         850     0.992697  0.000395574  0.000386795      9.87499 
         850      1.02349  0.000410251   0.00040009      9.87499 
         850      1.05472  0.000425979  0.000413434      9.87499 
         850      1.08645  0.000442445  0.000426832      9.87499 
         850      1.11863   0.00045927  0.000440248      9.87499 
         850       1.1513  0.000476124  0.000453686      9.87499 
         850      1.18444  0.000492634  0.000467118      9.87499 
         850      1.21802  0.000508433  0.000480515      9.87499 
         850      1.25211  0.000523207   0.00049388      9.87499 
         850      1.28663  0.000536612  0.000507173      9.87499 
         850      1.32165  0.000548382  0.000520397      9.87499 
         850      1.35712  0.000558252   0.00053351      9.87499 
         850      1.39308  0.000566042  0.000546516      9.87499 
         850      1.42951  0.000571613  0.000559385      9.87499 
         850      1.46638  0.000574909  0.000572091      9.87499 
         850      1.50375  0.000575973   0.00058464      9.87499 
         850      1.54156  0.000575178  0.000597018      9.87499 
         850      1.57987  0.000571955  0.000609241      9.87499 
         850      1.61863   0.00056659  0.000621285      9.87499 
         850      1.65788  0.000559383  0.000633161      9.87499 
         850      1.69757  0.000550632  0.000644846      9.87499 
         850      1.73776  0.000540587  0.000656351      9.87499 
         850      1.77842  0.000529498  0.000667661      9.87499 
         850      1.81952  0.000517597  0.000678763      9.87499 
         850      1.86113  0.000505061  0.000689669      9.87499 
         850      1.90316  0.000492083  0.000700355      9.87499 
         850      1.94571  0.000478795  0.000710834      9.87498 
         850      1.98869  0.000465342  0.000721082      9.87498 
         850      2.03217   0.00045181  0.000731112      9.87498 
         850      2.07612   0.00043829  0.000740908      9.87498 
         850      2.12051  0.000424854  0.000750456      9.87498 
         850       2.1654  0.000411526  0.000759767      9.87498 
         850      2.21073  0.000398348  0.000768818      9.87498 
         850      2.25656   0.00038531  0.000777616      9.87498 
         850      2.30283  0.000372426  0.000786141      9.87498 
         850       2.3496  0.000359659  0.000794398      9.87498 
         850      2.39685  0.000346991  0.000802371      9.87498 
         850      2.44452    0.0003344  0.000810046      9.87498 
         850      2.49271  0.000321826  0.000817426      9.87498 
         850      2.54132  0.000309251  0.000824489      9.87498 
         850      2.59044  0.000296616  0.000831237      9.87498 
         850         2.64  0.000283904  0.000837647      9.87498 
         850      2.69006  0.000271068   0.00084372      9.87498 
         850      2.74056  0.000258105  0.000849434      9.87498 
         850      2.79156  0.000244984  0.000854788      9.87498 
         850      2.84304  0.000231717  0.000859765      9.87498 
         850      2.89494  0.000218327   0.00086435      9.87498 
         850      2.94735  0.000204819  0.000868541      9.87498 
         850       3.0002  0.000191254  0.000872321      9.87497 
         850      3.05355  0.000177663  0.000875687      9.87497 
         850      3.10733  0.000164129  0.000878626      9.87497 
         850      3.16163  0.000150698  0.000881137      9.87497 
         850      3.21639  0.000137452  0.000883215      9.87497 
         850      3.27158  0.000124469  0.000884857      9.87497 
         850      3.32729  0.000111783   0.00088607      9.87497 
         850      3.38342  9.94494e-05  0.000886857      9.87497 
         850      3.44007  8.74507e-05  0.000887234      9.87497 
         850      3.49714  7.57613e-05  0.000887218      9.87497 
         850      3.55472   6.4255e-05  0.000886833      9.87497 
         850      3.61273  5.27591e-05  0.000886114      9.87497 
         850      3.67125  4.09592e-05  0.000885102      9.87496 
         850      3.73025   2.8435e-05  0.000883851      9.87496 
         850      3.78967   1.7119e-05  0.000881893      9.87496 
         850      3.84961  6.93257e-06  0.000879338      9.87496 
         850      3.90996 -3.03208e-06  0.000876429      9.87496 
         850      3.97084 -1.27587e-05   0.00087317      9.87496 
         850      4.03214  -2.2202e-05  0.000869576      9.87496 
         850      4.09395 -3.13492e-05  0.000865651      9.87496 
         850      4.15624  -4.0168e-05  0.000861407      9.87496 
         850      4.21895 -4.86295e-05  0.000856861      9.87495 
         850      4.28217 -5.67274e-05  0.000852014      9.87495 
         850      4.34582 -6.44318e-05  0.000846887      9.87495 
         850      4.40998 -7.17405e-05  0.000841482      9.87495 
         850      4.47457 -7.86298e-05  0.000835821      9.87495 
         850      4.53968 -8.51015e-05  0.000829905      9.87495 
         850      4.60525 -9.11431e-05  0.000823753      9.87495 
         850      4.67125  -9.6746e-05  0.000817381      9.87495 
         850      4.73777 -0.000101917  0.000810793      9.87495 
         850       4.8047 -0.000106649   0.00080401      9.87494 
         850      4.87216 -0.000110952  0.000797036      9.87494 
         850      4.94003 -0.000114824  0.000789894      9.87494 
         850      5.00843 -0.000118278  0.000782585      9.87494 
         850      5.07724 -0.000121318  0.000775134      9.87494 
         850      5.14658 -0.000123961  0.000767542      9.87494 
         850      5.21639 -0.000126215  0.000759827      9.87494 
         850      5.28661 -0.000128094  0.000752007      9.87494 
         850      5.35736 -0.000129617  0.000744083      9.87493 
         850      5.42852 -0.000130799  0.000736079      9.87493 
         850      5.50021 -0.000131659  0.000727993      9.87493 
         850      5.57231 -0.000132216   0.00071985      9.87493 
         850      5.64493 -0.000132489  0.000711648      9.87493 
         850      5.71803 -0.000132501  0.000703403      9.87493 
         850      5.79154 -0.000132271  0.000695133      9.87493 
         850      5.86558  -0.00013182  0.000686834      9.87493 
         850      5.94003 -0.000131171  0.000678528      9.87492 
         850      6.01501 -0.000130343   0.00067021      9.87492 
         850       6.0904 -0.000129359  0.000661902      9.87492 
         850      6.16632 -0.000128238  0.000653597      9.87492 
         850      6.24271 -0.000126998  0.000645309      9.87492 
         850       6.3195 -0.000125661   0.00063705      9.87492 
         850      6.39683 -0.000124241  0.000628813      9.87492 
         850      6.47457 -0.000122757  0.000620616      9.87492 
         850      6.55284 -0.000121222  0.000612449      9.87492 
         850      6.63152  -0.00011965  0.000604327      9.87491 
         850      6.71073 -0.000118052  0.000596242      9.87491 
         850      6.79034 -0.000116439  0.000588207      9.87491 
         850      6.87049 -0.000114818   0.00058021      9.87491 
         850      6.95111 -0.000113195  0.000572258      9.87491 
         850      7.03214 -0.000111576  0.000564356      9.87491 
         850       7.1137 -0.000109961  0.000556492      9.87491 
         850      7.19566 -0.000108353  0.000548675      9.87491 
         850      7.27816 -0.000106748  0.000540891      9.87491 
         850      7.36106 -0.000105146  0.000533149       9.8749 
         850      7.44451 -0.000103565  0.000525498       9.8749 
         850      7.52842 -0.000102004   0.00051798       9.8749 
         850      7.61273 -0.000100424   0.00051052       9.8749 
         850      7.69758 -9.88149e-05  0.000503108       9.8749 
         850      7.78283 -9.71732e-05  0.000495756       9.8749 
         850      7.86862 -9.54914e-05  0.000488453       9.8749 
         850      7.95481 -9.37705e-05  0.000481213       9.8749 
         850      8.04155   -9.201e-05  0.000474024       9.8749 
         850      8.12868 -9.02206e-05  0.000466897      9.87489 
         850      8.21635 -8.84141e-05  0.000459823      9.87489 
         850      8.30449 -8.66151e-05  0.000452807      9.87489 
         850      8.39303 -8.48587e-05  0.000445853      9.87489 
         850      8.48211 -8.31886e-05  0.000438951      9.87489 
         850      8.57159 -8.16684e-05   0.00043211      9.87489 
         850      8.66161 -8.03743e-05  0.000425316      9.87489 
         850      8.75203 -7.93581e-05  0.000418597      9.87489 
         850      8.84299 -7.77682e-05   0.00041219      9.87489 
         850      8.93443 -7.62106e-05  0.000405816      9.87489 
         850      9.02626 -7.46846e-05  0.000399487      9.87489 
         850      9.11863 -7.31858e-05    0.0003932      9.87488 
         850      9.21139 -7.17144e-05  0.000386972      9.87488 
         850      9.30471 -7.02657e-05  0.000380798      9.87488 
         850      9.39841 -6.88395e-05  0.000374692      9.87488 
         850      9.49267 -6.74309e-05  0.000368649      9.87488 
         850      9.58739 -6.60384e-05  0.000362677      9.87488 
         850      9.68251 -6.46604e-05  0.000356782      9.87488 
         850      9.77817  -6.3292e-05  0.000350958      9.87488 
         850      9.87422 -6.19325e-05  0.000345214      9.87488 
         850      9.97083 -6.05772e-05  0.000339543      9.87488 
         850      10.0678 -5.92256e-05  0.000333952      9.87488 
         850      10.1654 -5.78729e-05  0.000328434      9.87487 
         850      10.2633 -5.65188e-05  0.000322995      9.87487 
         850      10.3618  -5.5159e-05  0.000317626      9.87487 
         850      10.4607 -5.38017e-05   0.00031231      9.87487 
         850      10.5601 -5.24869e-05   0.00030699      9.87487 
         850        10.66 -5.11793e-05  0.000301749      9.87487 
         850      10.7603 -4.98837e-05  0.000296591      9.87487 
         850      10.8611 -4.86005e-05  0.000291505      9.87487 
         850      10.9623 -4.73339e-05  0.000286494      9.87487 
         850      11.0641 -4.60836e-05  0.000281548      9.87487 
         850      11.1663 -4.48521e-05  0.000276666      9.87487 
         850       11.269 -4.36413e-05   0.00027185      9.87487 
         850      11.3721 -4.24501e-05   0.00026709      9.87487 
         850      11.4757 -4.12805e-05  0.000262389      9.87486 
         850      11.5798 -4.01305e-05   0.00025774      9.87486 
         850      11.6844 -3.90012e-05  0.000253148      9.87486 
         850      11.7894 -3.78899e-05  0.000248605      9.87486 
         850       11.895 -3.67961e-05  0.000244115      9.87486 
         850      12.0009 -3.57188e-05  0.000239682      9.87486 
         850      12.1073 -3.46544e-05  0.000235299      9.87486 
         850      12.2142 -3.36024e-05  0.000230977      9.87486 
         850      12.3216 -3.25587e-05  0.000226708      9.87486 
         850      12.4294 -3.15226e-05  0.000222503      9.87486 
         850      12.5378 -3.04901e-05  0.000218358      9.87486 
         850      12.6465 -2.94607e-05   0.00021428      9.87486 
         850      12.7558 -2.84311e-05  0.000210267      9.87486 
         850      12.8656 -2.74009e-05  0.000206323      9.87486 
         850      12.9757 -2.63703e-05  0.000202452      9.87486 
         850      13.0864 -2.53381e-05  0.000198648      9.87486 
         850      13.1975 -2.43075e-05  0.000194915      9.87485 
         850      13.3092 -2.32799e-05  0.000191246      9.87485 
         850      13.4212 -2.22618e-05   0.00018764      9.87485 
         850      13.5338 -2.12583e-05  0.000184083      9.87485 
         850      13.6468 -2.02794e-05  0.000180566      9.87485 
         850      13.7603 -1.93379e-05  0.000177078      9.87485 
         850      13.8743 -1.84475e-05  0.000173592      9.87485 
         850      13.9886 -1.76284e-05  0.000170088      9.87485 
         850      14.1036 -1.69025e-05  0.000166529      9.87485 
         850      14.2189 -1.61057e-05  0.000163329      9.87485 
         850      14.3348 -1.52478e-05  0.000160305      9.87485 
         850       14.451 -1.44091e-05   0.00015726      9.87485 
         850      14.5678 -1.35885e-05  0.000154206      9.87485 
         850      14.6851 -1.27864e-05  0.000151159      9.87485 
         850      14.8028  -1.2003e-05  0.000148133      9.87485 
         850       14.921 -1.12363e-05  0.000145134      9.87485 
         850      15.0396 -1.04866e-05  0.000142175      9.87485 
         850      15.1588 -9.75169e-06  0.000139258      9.87485 
         850      15.2783 -9.03147e-06  0.000136394      9.87485 
         850      15.3984 -8.32344e-06   0.00013358      9.87485 
         850       15.519 -7.62674e-06  0.000130824      9.87485 
         850        15.64 -6.94042e-06  0.000128127      9.87484 
         850      15.7615 -6.26185e-06  0.000125488      9.87484 
         850      15.8834 -5.59057e-06  0.000122908      9.87484 
         850      16.0058 -4.92399e-06  0.000120384      9.87484 
         850      16.1286 -4.26172e-06  0.000117916      9.87484 
         850       16.252 -3.60128e-06  0.000115499      9.87484 
         850      16.3759  -2.9419e-06  0.000113131      9.87484 
         850      16.5002 -2.28291e-06  0.000110811      9.87484 
         850       16.625 -1.62219e-06  0.000108532      9.87484 
         850      16.7501 -9.59869e-07  0.000106292      9.87484 
         850      16.8759  -2.9413e-07  0.000104085      9.87484 
         850       17.002  3.74559e-07   0.00010191      9.87484 
         850      17.1287  1.04766e-06  9.97602e-05      9.87484 
         850      17.2557  1.72434e-06  9.76347e-05      9.87484 
         850      17.3834  2.40571e-06  9.55269e-05      9.87484 
         850      17.5115  3.09105e-06  9.34356e-05      9.87484 
         850      17.6399  3.77951e-06  9.13597e-05      9.87484 
         850       17.769  4.47166e-06  8.92938e-05      9.87484 
         850      17.8984  5.04232e-06  8.72791e-05      9.87484 
         850      18.0284  5.53066e-06  8.53189e-05      9.87484 
         850      18.1587  6.01805e-06  8.33973e-05      9.87484 
         850      18.2896  6.50495e-06  8.15144e-05      9.87484 
         850       18.421  6.99087e-06  7.96746e-05      9.87484 
         850      18.5528  7.47549e-06  7.78818e-05      9.87484 
         850      18.6851  7.95974e-06   7.6135e-05      9.87484 
         850      18.8178    8.443e-06  7.44384e-05      9.87484 
         850      18.9511  8.92618e-06  7.27898e-05      9.87484 
         850      19.0847  9.40849e-06  7.11912e-05      9.87484 
         850      19.2189  9.89047e-06  6.96387e-05      9.87484 
         850      19.3535  1.03708e-05  6.81318e-05      9.87484 
         850      19.4886  1.08494e-05  6.66638e-05      9.87484 
         850      19.6242  1.13243e-05  6.52299e-05      9.87484 
         850      19.7602  1.17931e-05  6.38232e-05      9.87484 
         850      19.8968  1.22537e-05  6.24313e-05      9.87484 
         850      20.0337  1.27016e-05   6.1044e-05      9.87484 
         850      20.1712  1.31328e-05  5.96438e-05      9.87484 
         850      20.3091  1.35408e-05  5.82149e-05      9.87484 
         850      20.4475  1.39189e-05  5.67334e-05      9.87484 
         850      20.5864  1.42582e-05  5.51757e-05      9.87484 
         850      20.7257  1.45479e-05  5.35139e-05      9.87483 
         850      20.8655  1.49028e-05  5.20578e-05      9.87483 
         850      21.0058  1.53988e-05  5.10259e-05      9.87483 
         850      21.1465  1.58726e-05  4.99762e-05      9.87483 
         850      21.2877  1.63226e-05  4.89132e-05      9.87483 
         850      21.4294  1.67488e-05  4.78381e-05      9.87483 
         850      21.5716  1.71509e-05   4.6755e-05      9.87483 
         850      21.7142  1.75288e-05   4.5668e-05      9.87483 
         850      21.8573  1.78838e-05  4.45787e-05      9.87483 
         850      22.0008   1.8216e-05  4.34924e-05      9.87483 
         850      22.1449  1.85272e-05  4.24106e-05      9.87483 
         850      22.2893  1.88182e-05  4.13388e-05      9.87483 
         850      22.4344  1.90907e-05  4.02788e-05      9.87483 
         850      22.5797  1.93459e-05  3.92359e-05      9.87483 
         850      22.7257  1.95857e-05   3.8212e-05      9.87483 
         850      22.8721  1.98114e-05  3.72116e-05      9.87483 
         850      23.0189  2.00243e-05  3.62389e-05      9.87483 
         850      23.1663   2.0226e-05  3.52961e-05      9.87483 
         850       23.314  2.04176e-05  3.43879e-05      9.87483 
         850      23.4623  2.06002e-05  3.35166e-05      9.87483 
         850       23.611  2.09673e-05  3.27233e-05      9.87483 
         850      23.7602  2.13096e-05  3.19511e-05      9.87483 
         850        23.91  2.16279e-05  3.11988e-05      9.87483 
         850        24.06  2.19255e-05  3.04655e-05      9.87483 
         850      24.2107  2.22064e-05  2.97489e-05      9.87483 
         850      24.3617  2.24736e-05  2.90489e-05      9.87483 
         850      24.5133  2.27308e-05  2.83633e-05      9.87483 
         850      24.6653  2.29805e-05  2.76922e-05      9.87483 
         850      24.8178  2.32255e-05  2.70338e-05      9.87483 
         850      24.9708  2.34677e-05  2.63876e-05      9.87483 
         850      25.1242  2.37084e-05  2.57537e-05      9.87483 
         850      25.2781  2.39491e-05  2.51303e-05      9.87483 
         850      25.4324  2.41899e-05  2.45181e-05      9.87483 
         850      25.5873   2.4431e-05  2.39157e-05      9.87483 
         850      25.7426  2.46714e-05  2.33239e-05      9.87483 
         850      25.8984  2.49105e-05  2.27418e-05      9.87483 
         850      26.0546  2.51461e-05  2.21701e-05      9.87483 
         850      26.2114  2.53768e-05  2.16083e-05      9.87483 
         850      26.3686  2.56002e-05  2.10568e-05      9.87483 
         850      26.5262  2.58138e-05  2.05165e-05      9.87483 
         850      26.6844  2.60154e-05  1.99869e-05      9.87483 
         850      26.8429  2.62028e-05  1.94692e-05      9.87483 
         850       27.002  2.63742e-05  1.89632e-05      9.87483 
         850      27.1615  2.65285e-05  1.84702e-05      9.87483 
         850      27.3216  2.66654e-05  1.79898e-05      9.87483 
         850      27.4821  2.67858e-05   1.7523e-05      9.87483 
         850       27.643  2.68919e-05  1.70705e-05      9.87483 
         850      27.8044  2.69884e-05  1.66321e-05      9.87483 
         850      27.9663  2.70815e-05  1.62086e-05      9.87483 
         850      28.1287  2.71807e-05  1.57995e-05      9.87483 
         850      28.2914  2.72984e-05  1.54053e-05      9.87483 
         850      28.4548   2.7451e-05  1.50251e-05      9.87483 
         850      28.6185  2.76586e-05   1.4659e-05      9.87483 
         850      28.7828  2.79472e-05  1.43054e-05      9.87483 
         850      28.9475  2.83477e-05  1.39632e-05      9.87484 
         850      29.1126  2.85496e-05  1.36039e-05      9.87484 
         850      29.2784  2.86646e-05  1.32434e-05      9.87484 
         850      29.4444  2.87718e-05  1.28903e-05      9.87484 
         850       29.611  2.88729e-05  1.25447e-05      9.87484 
         850       29.778   2.8969e-05  1.22075e-05      9.87484 
         850      29.9456  2.90615e-05  1.18786e-05      9.87484 
         850      30.1137  2.91512e-05  1.15585e-05      9.87484 
         850      30.2821  2.92391e-05  1.12474e-05      9.87484 
         850      30.4511  2.93259e-05  1.09449e-05      9.87484 
         850      30.6204  2.94123e-05  1.06514e-05      9.87484 
         850      30.7903  2.94988e-05  1.03661e-05      9.87484 
         850      30.9606  2.95858e-05  1.00893e-05      9.87484 
         850      31.1315  2.96736e-05   9.8203e-06      9.87484 
         850      31.3028  2.97625e-05  9.55894e-06      9.87484 
         850      31.4745  2.98523e-05  9.30506e-06      9.87484 
         850      31.6468  2.99434e-05  9.05788e-06      9.87484 
         850      31.8194  3.00354e-05  8.81738e-06      9.87484 
         850      31.9926  3.01284e-05   8.5828e-06      9.87484 
         850      32.1662  3.02221e-05  8.35412e-06      9.87484 
         850      32.3404  3.03164e-05   8.1306e-06      9.87484 
         850      32.5149  3.04108e-05  7.91226e-06      9.87484 
         850        32.69  3.05051e-05  7.69843e-06      9.87484 
         850      32.8655   3.0599e-05  7.48901e-06      9.87484 
         850      33.0414  3.06919e-05  7.28393e-06      9.87484 
         850       33.218  3.07837e-05  7.08266e-06      9.87484 
         850      33.3948  3.08737e-05  6.88537e-06      9.87484 
         850      33.5723  3.09618e-05  6.69167e-06      9.87484 
         850        33.75  3.10474e-05  6.50182e-06      9.87484 
         850      33.9284  3.11304e-05  6.31552e-06      9.87484 
         850      34.1073  3.12103e-05  6.13297e-06      9.87484 
         850      34.2865   3.1287e-05  5.95442e-06      9.87484 
         850      34.4663  3.13602e-05  5.77973e-06      9.87484 
         850      34.6465  3.14299e-05  5.60934e-06      9.87484 
         850      34.8272   3.1496e-05   5.4432e-06      9.87484 
         850      35.0083  3.15586e-05  5.28178e-06      9.87484 
         850        35.19  3.16178e-05  5.12507e-06      9.87484 
         850      35.3721   3.1674e-05   4.9734e-06      9.87484 
         850      35.5546  3.17276e-05  4.82711e-06      9.87484 
         850      35.7377   3.1779e-05  4.68614e-06      9.87484 
         850      35.9211  3.18291e-05  4.55081e-06      9.87484 
         850      36.1052  3.18787e-05  4.42096e-06      9.87484 
         850      36.2895  3.19289e-05  4.29674e-06      9.87484 
         850      36.4745  3.19809e-05  4.17776e-06      9.87484 
         850      36.6598  3.20362e-05   4.0639e-06      9.87484 
         850      36.8457  3.20966e-05  3.95447e-06      9.87484 
         850      37.0321  3.21638e-05  3.84883e-06      9.87484 
         850      37.2188    3.224e-05   3.7461e-06      9.87484 
         850      37.4062  3.23278e-05  3.64488e-06      9.87484 
         850      37.5938  3.23367e-05  3.64116e-06      9.87484 
         850      37.7821  3.23442e-05  3.63789e-06      9.87484 
         850      37.9707  3.23507e-05   3.6287e-06      9.87484 
         850      38.1599   3.2356e-05  3.60756e-06      9.87484 
         850      38.3496  3.23603e-05  3.56793e-06      9.87484 
         850      38.5396  3.23643e-05  3.50284e-06      9.87485 
         850      38.7302  3.23691e-05  3.40472e-06      9.87485 
         850      38.9211  3.23761e-05  3.26585e-06      9.87485 
         850      39.1127  3.23875e-05  3.07784e-06      9.87485 
         850      39.3046  3.24258e-05  2.94025e-06      9.87485 
         850      39.4971   3.2509e-05   2.9859e-06      9.87485 
         850      39.6899  3.25975e-05  3.01683e-06      9.87485 
         850      39.8833   3.2694e-05  3.03363e-06      9.87485 
         850      40.0772  3.28004e-05  3.03727e-06      9.87485 
         850      40.2714   3.2918e-05   3.0292e-06      9.87485 
         850      40.4663  3.30482e-05   3.0113e-06      9.87485 
         850      40.6615  3.31917e-05  2.98592e-06      9.87485 
         850      40.8573  3.32529e-05  2.90067e-06      9.87485 
         850      41.0534  3.31969e-05  2.74026e-06      9.87485 
         850      41.2501  3.31474e-05  2.58023e-06      9.87485 
         850      41.4473  3.31058e-05  2.42558e-06      9.87485 
         850      41.6448  3.30729e-05  2.28015e-06      9.87485 
         850      41.8429  3.30492e-05  2.14642e-06      9.87485 
         850      42.0414  3.30348e-05  2.02635e-06      9.87485 
         850      42.2405  3.30296e-05   1.9207e-06      9.87485 
         850      42.4399   3.3033e-05  1.82989e-06      9.87485 
         850      42.6399  3.30446e-05  1.75342e-06      9.87485 
         850      42.8404  3.30635e-05  1.69052e-06      9.87485 
         850      43.0412  3.30888e-05  1.63997e-06      9.87485 
         850      43.2426  3.31194e-05  1.60012e-06      9.87485 
         850      43.4444  3.31542e-05  1.56927e-06      9.87485 
         850      43.6467  3.31921e-05  1.54543e-06      9.87485 
         850      43.8494   3.3232e-05  1.52668e-06      9.87485 
         850      44.0527  3.32727e-05  1.51101e-06      9.87485 
         850      44.2563  3.33133e-05  1.49657e-06      9.87485 
         850      44.4606  3.33527e-05  1.48159e-06      9.87485 
         850      44.6653    3.339e-05  1.46452e-06      9.87485 
         850      44.8704  3.34245e-05  1.44405e-06      9.87485 
         850       45.076  3.34555e-05  1.41909e-06      9.87485 
         850       45.282  3.34826e-05  1.38895e-06      9.87485 
         850      45.4886  3.35053e-05  1.35314e-06      9.87485 
         850      45.6955  3.35235e-05  1.31162e-06      9.87485 
         850       45.903  3.35371e-05  1.26458e-06      9.87485 
         850      46.1111  3.35462e-05   1.2126e-06      9.87485 
         850      46.3194  3.35509e-05  1.15663e-06      9.87486 
         850      46.5283  3.35518e-05  1.09772e-06      9.87486 
         850      46.7376  3.35492e-05  1.03736e-06      9.87486 
         850      46.9475  3.35436e-05  9.77049e-07      9.87486 
         850      47.1577  3.35357e-05   9.1858e-07      9.87486 
         850      47.3685  3.35262e-05   8.6361e-07      9.87486 
         850      47.5798  3.35156e-05  8.13891e-07      9.87486 
         850      47.7914  3.35046e-05  7.71004e-07      9.87486 
         850      48.0037  3.34936e-05  7.36157e-07      9.87486 