Variables = x, y, u, v, p

Zone, I=800, F=POINT
          -5            0            0            0     -63.3085 
          -5     0.000234 -4.01052e-06  6.04792e-10     -63.3085 
          -5     0.000939 -1.50869e-05  2.39074e-09     -63.3085 
          -5     0.002113 -3.04555e-05  5.27586e-09     -63.3085 
          -5     0.003759 -4.64328e-05  9.23544e-09     -63.3085 
          -5     0.005872 -5.93313e-05  1.43837e-08     -63.3085 
          -5     0.008457 -6.66624e-05  2.11221e-08     -63.3085 
          -5      0.01151 -6.77408e-05  3.01497e-08     -63.3085 
          -5     0.015036 -6.39206e-05  4.24962e-08     -63.3085 
          -5     0.019031 -5.80756e-05  5.93694e-08     -63.3085 
          -5     0.023493 -5.34969e-05  8.20238e-08     -63.3085 
          -5     0.028429 -5.25035e-05  1.11646e-07     -63.3085 
          -5     0.033831 -5.53265e-05  1.49123e-07     -63.3085 
          -5     0.039706 -5.98349e-05  1.95268e-07     -63.3085 
          -5     0.046047 -6.26297e-05  2.50848e-07     -63.3085 
          -5     0.052863 -6.15264e-05  3.17157e-07     -63.3085 
          -5      0.06015  -5.8355e-05  3.95937e-07     -63.3085 
          -5       0.0679 -5.92707e-05  4.88815e-07     -63.3085 
          -5     0.076126 -6.68289e-05  5.95113e-07     -63.3085 
          -5     0.084816 -6.16423e-05  7.06318e-07     -63.3085 
          -5     0.093982 -6.56487e-05  8.41784e-07     -63.3085 
          -5     0.103611  -6.7852e-05   1.0001e-06     -63.3085 
          -5     0.113718 -6.92272e-05   1.1682e-06     -63.3085 
          -5     0.124286 -7.04607e-05  1.34092e-06     -63.3085 
          -5     0.135333 -7.19301e-05  1.52094e-06     -63.3085 
          -5      0.14685 -7.37183e-05  1.71491e-06     -63.3085 
          -5     0.158827 -7.56922e-05  1.92971e-06     -63.3085 
          -5     0.171284 -7.76308e-05   2.1683e-06     -63.3085 
          -5     0.184201 -7.93575e-05  2.42484e-06     -63.3085 
          -5     0.197599 -8.08748e-05  2.68579e-06     -63.3085 
          -5     0.211455 -8.23861e-05  2.93482e-06     -63.3085 
          -5     0.225792 -8.41522e-05  3.17266e-06     -63.3085 
          -5       0.2406 -8.60002e-05  3.45199e-06     -63.3085 
          -5     0.255865 -8.71428e-05  3.83833e-06     -63.3085 
          -5     0.271613 -8.85124e-05  4.17275e-06     -63.3085 
          -5     0.287818 -8.97125e-05  4.48744e-06     -63.3085 
          -5     0.304506 -9.07659e-05  4.79329e-06     -63.3085 
          -5      0.32165 -9.16855e-05  5.10126e-06     -63.3085 
          -5     0.339278 -9.24651e-05  5.41264e-06     -63.3085 
          -5     0.357377 -9.30971e-05  5.72799e-06     -63.3085 
          -5      0.37593 -9.35754e-05  6.04775e-06     -63.3085 
          -5     0.394968 -9.38964e-05  6.37312e-06     -63.3085 
          -5     0.414461 -9.40561e-05  6.70416e-06     -63.3085 
          -5      0.43444  -9.4053e-05  7.04184e-06     -63.3085 
          -5     0.454872 -9.38866e-05  7.38593e-06     -63.3086 
          -5     0.475791 -9.35578e-05  7.73719e-06     -63.3086 
          -5     0.497163 -9.30697e-05  8.09506e-06     -63.3086 
          -5     0.519021 -9.24258e-05  8.45993e-06     -63.3086 
          -5      0.54135 -9.16323e-05  8.83125e-06     -63.3086 
          -5     0.564131 -9.06974e-05   9.2082e-06     -63.3086 
          -5       0.5874 -8.96289e-05  9.59076e-06     -63.3086 
          -5     0.611121 -8.84388e-05  9.97753e-06     -63.3086 
          -5      0.63533 -8.71373e-05  1.03682e-05     -63.3086 
          -5      0.65999 -8.57397e-05  1.07611e-05     -63.3087 
          -5     0.685139 -8.42582e-05  1.11559e-05     -63.3087 
          -5     0.710759 -8.27092e-05  1.15509e-05     -63.3087 
          -5     0.736828 -8.11101e-05  1.19449e-05     -63.3087 
          -5     0.763387 -7.94749e-05  1.23372e-05     -63.3087 
          -5     0.790396 -7.78228e-05  1.27263e-05     -63.3087 
          -5     0.817896 -7.61678e-05  1.31116e-05     -63.3088 
          -5     0.845843 -7.45287e-05  1.34917e-05     -63.3088 
          -5     0.874283  -7.2918e-05  1.38665e-05     -63.3088 
          -5      0.90317 -7.13522e-05  1.42346e-05     -63.3088 
          -5     0.932551 -6.98409e-05  1.45962e-05     -63.3088 
          -5     0.962401 -6.83958e-05  1.49504e-05     -63.3089 
          -5     0.992697 -6.70253e-05  1.52963e-05     -63.3089 
          -5      1.02349 -6.57319e-05  1.56338e-05     -63.3089 
          -5      1.05472 -6.45188e-05  1.59613e-05      -63.309 
          -5      1.08645 -6.33815e-05  1.62777e-05      -63.309 
          -5      1.11863 -6.23151e-05  1.65802e-05      -63.309 
          -5       1.1513 -6.12917e-05  1.68666e-05      -63.309 
          -5      1.18444 -6.03019e-05  1.71451e-05     -63.3091 
          -5      1.21802 -5.94075e-05  1.74122e-05     -63.3091 
          -5      1.25211 -5.85634e-05  1.76657e-05     -63.3091 
          -5      1.28663 -5.77403e-05  1.79036e-05     -63.3092 
          -5      1.32165 -5.69178e-05  1.81258e-05     -63.3092 
          -5      1.35712 -5.60892e-05  1.83321e-05     -63.3093 
          -5      1.39308 -5.52539e-05  1.85233e-05     -63.3093 
          -5      1.42951 -5.44213e-05  1.86998e-05     -63.3093 
          -5      1.46638 -5.36064e-05  1.88623e-05     -63.3094 
          -5      1.50375 -5.28262e-05  1.90112e-05     -63.3094 
          -5      1.54156 -5.21023e-05  1.91457e-05     -63.3095 
          -5      1.57987 -5.14541e-05  1.92647e-05     -63.3095 
          -5      1.61863 -5.09013e-05  1.93656e-05     -63.3096 
          -5      1.65788 -5.04581e-05  1.94446e-05     -63.3096 
          -5      1.69757 -5.01358e-05  1.94966e-05     -63.3097 
          -5      1.73776 -4.99383e-05  1.95149e-05     -63.3097 
          -5      1.77842 -4.98642e-05  1.94916e-05     -63.3098 
          -5      1.81952 -4.98703e-05    1.948e-05     -63.3098 
          -5      1.86113 -4.99753e-05  1.94318e-05     -63.3099 
          -5      1.90316 -5.01663e-05  1.93382e-05       -63.31 
          -5      1.94571 -5.04194e-05  1.92037e-05       -63.31 
          -5      1.98869 -5.07034e-05  1.90439e-05     -63.3101 
          -5      2.03217 -5.09811e-05  1.88884e-05     -63.3101 
          -5      2.07612 -5.12077e-05  1.87867e-05     -63.3102 
          -5      2.12051 -5.13875e-05  1.86521e-05     -63.3103 
          -5       2.1654 -5.15479e-05  1.84639e-05     -63.3103 
          -5      2.21073 -5.16531e-05  1.83188e-05     -63.3104 
          -5      2.25656 -5.17043e-05  1.81926e-05     -63.3105 
          -5      2.30283   -5.171e-05  1.80641e-05     -63.3106 
          -5       2.3496 -5.16875e-05  1.79105e-05     -63.3106 
          -5      2.39685 -5.16457e-05  1.76961e-05     -63.3107 
          -5      2.44452 -5.16311e-05  1.74469e-05     -63.3108 
          -5      2.49271 -5.16945e-05  1.71613e-05     -63.3109 
          -5      2.54132 -5.18621e-05  1.68165e-05     -63.3109 
          -5      2.59044 -5.21545e-05  1.63909e-05      -63.311 
          -5         2.64  -5.2586e-05  1.58668e-05     -63.3111 
          -5      2.69006 -5.31667e-05   1.5229e-05     -63.3112 
          -5      2.74056 -5.38994e-05  1.44685e-05     -63.3113 
          -5      2.79156 -5.47836e-05  1.35794e-05     -63.3114 
          -5      2.84304 -5.58119e-05  1.25625e-05     -63.3115 
          -5      2.89494 -5.69713e-05  1.14247e-05     -63.3115 
          -5      2.94735 -5.82465e-05  1.01752e-05     -63.3116 
          -5       3.0002 -5.96136e-05  8.83139e-06     -63.3117 
          -5      3.05355 -6.10478e-05  7.41026e-06     -63.3118 
          -5      3.10733 -6.25153e-05  5.93479e-06     -63.3119 
          -5      3.16163 -6.39819e-05  4.42327e-06      -63.312 
          -5      3.21639 -6.54054e-05  2.89445e-06     -63.3121 
          -5      3.27158 -6.67386e-05  1.36061e-06     -63.3122 
          -5      3.32729 -6.79325e-05 -1.80494e-07     -63.3123 
          -5      3.38342 -6.88907e-05  -1.6794e-06     -63.3124 
          -5      3.44007 -6.96959e-05 -3.05424e-06     -63.3125 
          -5      3.49714 -7.02955e-05 -4.33417e-06     -63.3126 
          -5      3.55472 -7.05685e-05 -5.49147e-06     -63.3127 
          -5      3.61273 -7.04875e-05  -6.5101e-06     -63.3128 
          -5      3.67125  -7.0108e-05 -7.39345e-06     -63.3129 
          -5      3.73025 -6.95484e-05  -8.1603e-06      -63.313 
          -5      3.78967 -6.89619e-05 -8.85062e-06     -63.3131 
          -5      3.84961 -6.84965e-05 -9.53144e-06     -63.3132 
          -5      3.90996 -6.82496e-05 -1.02993e-05     -63.3133 
          -5      3.97084  -6.7562e-05 -1.07161e-05     -63.3134 
          -5      4.03214 -6.69882e-05 -1.12082e-05     -63.3135 
          -5      4.09395  -6.6472e-05 -1.17242e-05     -63.3136 
          -5      4.15624 -6.59732e-05 -1.22232e-05     -63.3137 
          -5      4.21895 -6.54722e-05 -1.26816e-05     -63.3138 
          -5      4.28217 -6.49635e-05 -1.30903e-05     -63.3139 
          -5      4.34582 -6.44537e-05 -1.34489e-05      -63.314 
          -5      4.40998 -6.39534e-05  -1.3765e-05     -63.3141 
          -5      4.47457 -6.34765e-05 -1.40484e-05     -63.3142 
          -5      4.53968 -6.30336e-05 -1.43115e-05     -63.3143 
          -5      4.60525 -6.26316e-05 -1.45646e-05     -63.3144 
          -5      4.67125 -6.22713e-05 -1.48158e-05     -63.3145 
          -5      4.73777 -6.19453e-05 -1.50703e-05     -63.3146 
          -5       4.8047 -6.16412e-05 -1.53293e-05     -63.3147 
          -5      4.87216 -6.13412e-05 -1.55926e-05     -63.3148 
          -5      4.94003 -6.10282e-05 -1.58591e-05     -63.3149 
          -5      5.00843 -6.06893e-05 -1.61318e-05      -63.315 
          -5      5.07724 -6.03261e-05 -1.64208e-05     -63.3151 
          -5      5.14658 -5.99629e-05 -1.67517e-05     -63.3152 
          -5      5.21639 -5.96157e-05 -1.72011e-05     -63.3152 
          -5      5.28661 -5.92111e-05 -1.78136e-05     -63.3153 
          -5      5.35736 -5.89889e-05 -1.78486e-05     -63.3154 
          -5      5.42852 -5.87761e-05 -1.79856e-05     -63.3155 
          -5      5.50021  -5.8476e-05 -1.81286e-05     -63.3156 
          -5      5.57231 -5.81772e-05 -1.82954e-05     -63.3156 
          -5      5.64493 -5.78947e-05 -1.84741e-05     -63.3157 
          -5      5.71803 -5.76374e-05 -1.86522e-05     -63.3158 
          -5      5.79154 -5.74079e-05  -1.8818e-05     -63.3159 
          -5      5.86558 -5.72042e-05 -1.89616e-05     -63.3159 
          -5      5.94003 -5.70216e-05 -1.90753e-05      -63.316 
          -5      6.01501 -5.68533e-05  -1.9155e-05      -63.316 
          -5       6.0904 -5.66921e-05 -1.91996e-05     -63.3161 
          -5      6.16632 -5.65309e-05 -1.92118e-05     -63.3162 
          -5      6.24271 -5.63643e-05 -1.91978e-05     -63.3162 
          -5       6.3195 -5.61889e-05 -1.91669e-05     -63.3163 
          -5      6.39683 -5.60034e-05 -1.91304e-05     -63.3163 
          -5      6.47457 -5.58103e-05 -1.91009e-05     -63.3163 
          -5      6.55284 -5.56144e-05 -1.90901e-05     -63.3164 
          -5      6.63152 -5.54241e-05  -1.9107e-05     -63.3164 
          -5      6.71073 -5.52491e-05 -1.91551e-05     -63.3164 
          -5      6.79034 -5.51013e-05 -1.92291e-05     -63.3165 
          -5      6.87049 -5.49922e-05  -1.9311e-05     -63.3165 
          -5      6.95111 -5.49317e-05 -1.93652e-05     -63.3165 
          -5      7.03214  -5.4918e-05  -1.9338e-05     -63.3165 
          -5       7.1137 -5.47249e-05 -1.93012e-05     -63.3165 
          -5      7.19566 -5.45166e-05  -1.9189e-05     -63.3165 
          -5      7.27816 -5.42987e-05 -1.90387e-05     -63.3165 
          -5      7.36106 -5.40794e-05 -1.88778e-05     -63.3165 
          -5      7.44451 -5.38672e-05 -1.87248e-05     -63.3165 
          -5      7.52842  -5.3671e-05 -1.85917e-05     -63.3165 
          -5      7.61273 -5.34991e-05  -1.8485e-05     -63.3165 
          -5      7.69758 -5.33576e-05 -1.84069e-05     -63.3165 
          -5      7.78283 -5.32513e-05 -1.83571e-05     -63.3165 
          -5      7.86862 -5.31822e-05 -1.83332e-05     -63.3164 
          -5      7.95481 -5.31498e-05 -1.83322e-05     -63.3164 
          -5      8.04155 -5.31514e-05 -1.83506e-05     -63.3163 
          -5      8.12868 -5.31822e-05 -1.83854e-05     -63.3163 
          -5      8.21635  -5.3236e-05 -1.84339e-05     -63.3162 
          -5      8.30449 -5.33059e-05 -1.84936e-05     -63.3162 
          -5      8.39303 -5.33861e-05  -1.8562e-05     -63.3161 
          -5      8.48211 -5.34734e-05 -1.86352e-05      -63.316 
          -5      8.57159 -5.35439e-05  -1.8689e-05      -63.316 
          -5      8.66161 -5.35785e-05 -1.87258e-05     -63.3159 
          -5      8.75203 -5.36006e-05 -1.87674e-05     -63.3158 
          -5      8.84299 -5.36223e-05 -1.88094e-05     -63.3157 
          -5      8.93443 -5.36593e-05 -1.88356e-05     -63.3156 
          -5      9.02626 -5.37311e-05 -1.88149e-05     -63.3155 
          -5      9.11863 -5.35388e-05 -1.88751e-05     -63.3154 
          -5      9.21139 -5.33075e-05 -1.88886e-05     -63.3152 
          -5      9.30471 -5.32019e-05 -1.88192e-05     -63.3151 
          -5      9.39841 -5.31927e-05 -1.87181e-05      -63.315 
          -5      9.49267  -5.3249e-05 -1.86177e-05     -63.3148 
          -5      9.58739 -5.33406e-05 -1.85349e-05     -63.3147 
          -5      9.68251 -5.33934e-05 -1.84429e-05     -63.3145 
          -5      9.77817 -5.31573e-05 -1.81886e-05     -63.3143 
          -5      9.87422 -5.29226e-05 -1.79696e-05     -63.3142 
          -5      9.97083 -5.27021e-05 -1.77886e-05      -63.314 
          -5      10.0678 -5.25047e-05 -1.76424e-05     -63.3138 
          -5      10.1654 -5.23343e-05 -1.75226e-05     -63.3136 
          -5      10.2633 -5.21909e-05 -1.74178e-05     -63.3134 
          -5      10.3618 -5.20706e-05  -1.7315e-05     -63.3132 
          -5      10.4607 -5.19667e-05 -1.72015e-05      -63.313 
          -5      10.5601 -5.18709e-05 -1.70666e-05     -63.3128 
          -5        10.66 -5.17738e-05 -1.69033e-05     -63.3125 
          -5      10.7603 -5.16679e-05 -1.67111e-05     -63.3123 
          -5      10.8611 -5.15485e-05 -1.64965e-05      -63.312 
          -5      10.9623 -5.14171e-05 -1.62768e-05     -63.3118 
          -5      11.0641 -5.12835e-05 -1.60805e-05     -63.3115 
          -5      11.1663 -5.11698e-05  -1.5951e-05     -63.3112 
          -5       11.269 -5.11111e-05 -1.58251e-05     -63.3109 
          -5      11.3721 -5.10602e-05 -1.55042e-05     -63.3107 
          -5      11.4757 -5.10028e-05 -1.52075e-05     -63.3104 
          -5      11.5798 -5.09544e-05 -1.49224e-05       -63.31 
          -5      11.6844 -5.09234e-05 -1.46414e-05     -63.3097 
          -5      11.7894 -5.09121e-05 -1.43601e-05     -63.3094 
          -5       11.895 -5.09177e-05 -1.40779e-05     -63.3091 
          -5      12.0009 -5.09331e-05 -1.37973e-05     -63.3087 
          -5      12.1073 -5.09486e-05 -1.35231e-05     -63.3084 
          -5      12.2142 -5.09521e-05 -1.32631e-05      -63.308 
          -5      12.3216 -5.09307e-05 -1.30265e-05     -63.3076 
          -5      12.4294 -5.08711e-05 -1.28249e-05     -63.3073 
          -5      12.5378 -5.07606e-05 -1.26711e-05     -63.3069 
          -5      12.6465 -5.05883e-05 -1.25796e-05     -63.3065 
          -5      12.7558 -5.03447e-05  -1.2566e-05     -63.3061 
          -5      12.8656 -5.04622e-05 -1.22273e-05     -63.3056 
          -5      12.9757 -5.05728e-05 -1.19155e-05     -63.3052 
          -5      13.0864 -5.06418e-05 -1.16668e-05     -63.3048 
          -5      13.1975 -5.06785e-05 -1.14827e-05     -63.3043 
          -5      13.3092 -5.06918e-05 -1.13686e-05     -63.3039 
          -5      13.4212  -5.0689e-05   -1.133e-05     -63.3034 
          -5      13.5338 -5.06752e-05 -1.13662e-05     -63.3029 
          -5      13.6468 -5.06521e-05 -1.14631e-05     -63.3024 
          -5      13.7603 -5.06169e-05  -1.1584e-05     -63.3019 
          -5      13.8743 -5.05607e-05 -1.16589e-05     -63.3014 
          -5      13.9886 -5.04673e-05 -1.15716e-05     -63.3009 
          -5      14.1036 -5.03109e-05 -1.11444e-05     -63.3004 
          -5      14.2189  -5.0308e-05 -1.09503e-05     -63.2998 
          -5      14.3348 -5.05742e-05 -1.15017e-05     -63.2993 
          -5       14.451 -5.07434e-05 -1.17907e-05     -63.2987 
          -5      14.5678  -5.0819e-05  -1.1899e-05     -63.2982 
          -5      14.6851 -5.08121e-05 -1.18904e-05     -63.2976 
          -5      14.8028 -5.07397e-05 -1.18138e-05      -63.297 
          -5       14.921  -5.0622e-05 -1.17044e-05     -63.2964 
          -5      15.0396 -5.04808e-05 -1.15863e-05     -63.2958 
          -5      15.1588 -5.03365e-05 -1.14739e-05     -63.2951 
          -5      15.2783 -5.02076e-05 -1.13743e-05     -63.2945 
          -5      15.3984 -5.01077e-05 -1.12884e-05     -63.2939 
          -5       15.519 -5.00457e-05 -1.12137e-05     -63.2932 
          -5        15.64 -5.00236e-05 -1.11452e-05     -63.2925 
          -5      15.7615 -5.00364e-05 -1.10774e-05     -63.2919 
          -5      15.8834 -5.00718e-05 -1.10057e-05     -63.2912 
          -5      16.0058 -5.01098e-05 -1.09278e-05     -63.2905 
          -5      16.1286 -5.02958e-05 -1.09134e-05     -63.2898 
          -5       16.252 -5.04828e-05 -1.09601e-05      -63.289 
          -5      16.3759 -5.05613e-05 -1.10217e-05     -63.2883 
          -5      16.5002 -5.05509e-05 -1.10834e-05     -63.2875 
          -5       16.625 -5.04764e-05 -1.11283e-05     -63.2868 
          -5      16.7501 -5.03658e-05 -1.11403e-05      -63.286 
          -5      16.8759 -5.02476e-05 -1.11073e-05     -63.2852 
          -5       17.002 -5.01476e-05 -1.10259e-05     -63.2844 
          -5      17.1287 -5.00847e-05 -1.09066e-05     -63.2836 
          -5      17.2557 -5.00668e-05 -1.07801e-05     -63.2828 
          -5      17.3834 -5.00849e-05 -1.07043e-05      -63.282 
          -5      17.5115 -5.01074e-05 -1.07734e-05     -63.2811 
          -5      17.6399 -5.00724e-05 -1.11268e-05     -63.2803 
          -5       17.769 -4.98806e-05 -1.19614e-05     -63.2794 
          -5      17.8984 -4.99971e-05 -1.13881e-05     -63.2785 
          -5      18.0284 -5.01654e-05 -1.09477e-05     -63.2777 
          -5      18.1587 -5.03105e-05 -1.07641e-05     -63.2768 
          -5      18.2896 -5.04152e-05 -1.07588e-05     -63.2758 
          -5       18.421 -5.04696e-05 -1.08658e-05     -63.2749 
          -5      18.5528 -5.04693e-05 -1.10296e-05      -63.274 
          -5      18.6851 -5.04138e-05 -1.12046e-05      -63.273 
          -5      18.8178 -5.03041e-05 -1.13521e-05     -63.2721 
          -5      18.9511 -5.01415e-05 -1.14404e-05     -63.2711 
          -5      19.0847 -4.99262e-05 -1.14418e-05     -63.2701 
          -5      19.2189    -4.99e-05 -1.12329e-05     -63.2691 
          -5      19.3535 -5.01301e-05 -1.09107e-05     -63.2681 
          -5      19.4886 -5.01888e-05 -1.07015e-05      -63.267 
          -5      19.6242 -5.01411e-05 -1.05622e-05      -63.266 
          -5      19.7602  -5.0041e-05 -1.04535e-05      -63.265 
          -5      19.8968 -4.99309e-05 -1.03439e-05     -63.2639 
          -5      20.0337 -4.98408e-05 -1.02127e-05     -63.2628 
          -5      20.1712 -4.97887e-05 -1.00512e-05     -63.2617 
          -5      20.3091  -4.9781e-05 -9.86345e-06     -63.2606 
          -5      20.4475 -4.98142e-05 -9.66501e-06     -63.2595 
          -5      20.5864 -4.98758e-05  -9.4813e-06     -63.2584 
          -5      20.7257 -4.99475e-05 -9.34351e-06     -63.2572 
          -5      20.8655 -5.00081e-05 -9.28305e-06     -63.2561 
          -5      21.0058 -5.00368e-05 -9.32523e-06     -63.2549 
          -5      21.1465 -5.00185e-05 -9.48022e-06     -63.2537 
          -5      21.2877 -4.99485e-05 -9.73216e-06     -63.2525 
          -5      21.4294 -4.98392e-05 -1.00275e-05     -63.2513 
          -5      21.5716 -4.97268e-05  -1.0259e-05     -63.2501 
          -5      21.7142 -5.03185e-05 -1.01845e-05     -63.2488 
          -5      21.8573  -5.0655e-05 -1.00324e-05     -63.2476 
          -5      22.0008  -5.0659e-05 -9.89793e-06     -63.2463 
          -5      22.1449   -5.046e-05 -9.80909e-06     -63.2451 
          -5      22.2893 -5.01667e-05 -9.77312e-06     -63.2438 
          -5      22.4344 -4.98644e-05 -9.78141e-06     -63.2425 
          -5      22.5797 -4.96162e-05 -9.81524e-06     -63.2411 
          -5      22.7257 -4.94626e-05 -9.85151e-06     -63.2398 
          -5      22.8721 -4.94235e-05  -9.8685e-06     -63.2385 
          -5      23.0189 -4.95001e-05 -9.85231e-06     -63.2371 
          -5      23.1663 -4.96791e-05 -9.80304e-06     -63.2357 
          -5       23.314 -4.99364e-05 -9.74166e-06     -63.2343 
          -5      23.4623 -5.01422e-05 -9.66622e-06     -63.2329 
          -5       23.611 -4.99418e-05 -9.47419e-06     -63.2315 
          -5      23.7602 -4.97817e-05 -9.38134e-06     -63.2301 
          -5        23.91 -4.96587e-05 -9.36028e-06     -63.2287 
          -5        24.06 -4.95681e-05 -9.38372e-06     -63.2272 
          -5      24.2107 -4.95043e-05 -9.42581e-06     -63.2257 
          -5      24.3617 -4.94615e-05 -9.46314e-06     -63.2242 
          -5      24.5133 -4.94338e-05 -9.47608e-06     -63.2227 
          -5      24.6653 -4.94153e-05 -9.44996e-06     -63.2212 
          -5      24.8178 -4.94007e-05 -9.37643e-06     -63.2197 
          -5      24.9708 -4.93846e-05 -9.25496e-06     -63.2182 
          -5      25.1242 -4.93621e-05 -9.09455e-06     -63.2166 
          -5      25.2781  -4.9328e-05 -8.91474e-06      -63.215 
          -5      25.4324 -4.92768e-05 -8.74826e-06     -63.2134 
          -5      25.5873 -4.92018e-05  -8.6418e-06     -63.2118 
          -5      25.7426  -4.9095e-05  -8.6588e-06     -63.2102 
          -5      25.8984 -4.89453e-05 -8.88104e-06     -63.2086 
          -5      26.0546 -4.87389e-05 -9.41028e-06     -63.2069 
          -5      26.2114 -4.86349e-05 -9.41083e-06     -63.2053 
          -5      26.3686 -4.86091e-05 -9.03269e-06     -63.2036 
          -5      26.5262 -4.85687e-05  -8.8095e-06     -63.2019 
          -5      26.6844 -4.85233e-05 -8.70328e-06     -63.2002 
          -5      26.8429 -4.84792e-05 -8.68163e-06     -63.1985 
          -5       27.002 -4.84397e-05 -8.71684e-06     -63.1968 
          -5      27.1615 -4.84061e-05 -8.78606e-06      -63.195 
          -5      27.3216 -4.83784e-05 -8.87118e-06     -63.1933 
          -5      27.4821 -4.83563e-05 -8.95836e-06     -63.1915 
          -5       27.643 -4.83394e-05  -9.0378e-06     -63.1897 
          -5      27.8044 -4.83277e-05 -9.10365e-06     -63.1879 
          -5      27.9663  -4.8322e-05 -9.15308e-06     -63.1861 
          -5      28.1287 -4.83241e-05 -9.18623e-06     -63.1842 
          -5      28.2914 -4.83363e-05 -9.20525e-06     -63.1824 
          -5      28.4548 -4.83621e-05  -9.2139e-06     -63.1805 
          -5      28.6185 -4.84051e-05  -9.2166e-06     -63.1786 
          -5      28.7828 -4.84689e-05 -9.21772e-06     -63.1767 
          -5      28.9475 -4.85562e-05 -9.22058e-06     -63.1748 
          -5      29.1126 -4.86679e-05 -9.22639e-06     -63.1729 
          -5      29.2784 -4.88023e-05  -9.2332e-06      -63.171 
          -5      29.4444 -4.89531e-05 -9.23457e-06      -63.169 
          -5       29.611 -4.91088e-05  -9.2183e-06      -63.167 
          -5       29.778 -4.92495e-05 -9.16494e-06      -63.165 
          -5      29.9456 -4.93465e-05 -9.04609e-06      -63.163 
          -5      30.1137 -4.93583e-05 -8.82288e-06      -63.161 
          -5      30.2821 -4.92292e-05 -8.44441e-06      -63.159 
          -5      30.4511 -4.89075e-05 -7.90744e-06     -63.1569 
          -5      30.6204  -4.8907e-05 -8.55327e-06     -63.1549 
          -5      30.7903 -4.88819e-05  -9.1317e-06     -63.1528 
          -5      30.9606 -4.88424e-05  -9.6154e-06     -63.1507 
          -5      31.1315 -4.87943e-05 -9.98979e-06     -63.1486 
          -5      31.3028 -4.87404e-05 -1.02504e-05     -63.1465 
          -5      31.4745 -4.86817e-05 -1.04049e-05     -63.1443 
          -5      31.6468 -4.86187e-05  -1.0473e-05     -63.1422 
          -5      31.8194 -4.85528e-05 -1.04865e-05       -63.14 
          -5      31.9926 -4.84879e-05 -1.04898e-05     -63.1378 
          -5      32.1662 -4.84319e-05 -1.05403e-05     -63.1356 
          -5      32.3404  -4.8398e-05 -1.07086e-05     -63.1334 
          -5      32.5149 -4.84066e-05 -1.10785e-05     -63.1312 
          -5        32.69 -4.84872e-05 -1.17487e-05     -63.1289 
          -5      32.8655 -4.82093e-05 -1.18051e-05     -63.1266 
          -5      33.0414 -4.77488e-05 -1.13018e-05     -63.1244 
          -5       33.218 -4.74669e-05 -1.09787e-05     -63.1221 
          -5      33.3948 -4.73251e-05 -1.07998e-05     -63.1198 
          -5      33.5723  -4.7289e-05  -1.0732e-05     -63.1174 
          -5        33.75 -4.73295e-05 -1.07463e-05     -63.1151 
          -5      33.9284  -4.7422e-05 -1.08176e-05     -63.1127 
          -5      34.1073 -4.75458e-05 -1.09239e-05     -63.1104 
          -5      34.2865 -4.76839e-05 -1.10465e-05      -63.108 
          -5      34.4663 -4.78231e-05 -1.11703e-05     -63.1056 
          -5      34.6465 -4.79527e-05 -1.12827e-05     -63.1032 
          -5      34.8272 -4.80653e-05 -1.13743e-05     -63.1007 
          -5      35.0083 -4.81554e-05 -1.14379e-05     -63.0983 
          -5        35.19 -4.82199e-05 -1.14691e-05     -63.0958 
          -5      35.3721 -4.82574e-05 -1.14656e-05     -63.0933 
          -5      35.5546 -4.82678e-05 -1.14273e-05     -63.0908 
          -5      35.7377 -4.82526e-05 -1.13557e-05     -63.0883 
          -5      35.9211 -4.82139e-05 -1.12541e-05     -63.0858 
          -5      36.1052 -4.81547e-05 -1.11273e-05     -63.0833 
          -5      36.2895 -4.80782e-05 -1.09814e-05     -63.0807 
          -5      36.4745 -4.79881e-05 -1.08231e-05     -63.0781 
          -5      36.6598 -4.78881e-05 -1.06604e-05     -63.0755 
          -5      36.8457 -4.77815e-05 -1.05014e-05     -63.0729 
          -5      37.0321 -4.76716e-05 -1.03549e-05     -63.0703 
          -5      37.2188 -4.75613e-05 -1.02296e-05     -63.0677 
          -5      37.4062 -4.74526e-05 -1.01341e-05      -63.065 
          -5      37.5938 -4.73473e-05 -1.00766e-05     -63.0624 
          -5      37.7821  -4.7246e-05 -1.00646e-05     -63.0597 
          -5      37.9707 -4.71493e-05 -1.01047e-05      -63.057 
          -5      38.1599 -4.73044e-05 -1.02751e-05     -63.0543 
          -5      38.3496 -4.74578e-05 -1.04237e-05     -63.0515 
          -5      38.5396 -4.75964e-05 -1.05435e-05     -63.0488 
          -5      38.7302 -4.77089e-05  -1.0629e-05      -63.046 
          -5      38.9211 -4.77854e-05 -1.06757e-05     -63.0433 
          -5      39.1127 -4.78178e-05 -1.06806e-05     -63.0405 
          -5      39.3046 -4.77994e-05 -1.06421e-05     -63.0377 
          -5      39.4971  -4.7725e-05 -1.05597e-05     -63.0349 
          -5      39.6899 -4.75913e-05 -1.04343e-05      -63.032 
          -5      39.8833  -4.7396e-05  -1.0268e-05     -63.0292 
          -5      40.0772 -4.71386e-05 -1.00644e-05     -63.0263 
          -5      40.2714 -4.68203e-05 -9.82852e-06     -63.0234 
          -5      40.4663 -4.64423e-05 -9.56581e-06     -63.0205 
          -5      40.6615 -4.60083e-05 -9.28381e-06     -63.0176 
          -5      40.8573 -4.55213e-05 -8.99018e-06     -63.0147 
          -5      41.0534 -4.53817e-05  -9.4135e-06     -63.0118 
          -5      41.2501 -4.54871e-05 -9.99302e-06     -63.0088 
          -5      41.4473 -4.56728e-05 -1.04933e-05     -63.0058 
          -5      41.6448 -4.58717e-05 -1.09121e-05     -63.0029 
          -5      41.8429 -4.60196e-05 -1.12431e-05     -62.9999 
          -5      42.0414 -4.60557e-05 -1.14738e-05     -62.9968 
          -5      42.2405 -4.59257e-05 -1.15882e-05     -62.9938 
          -5      42.4399 -4.57096e-05 -1.15064e-05     -62.9908 
          -5      42.6399  -4.5875e-05 -1.12067e-05     -62.9877 
          -5      42.8404  -4.6036e-05 -1.09924e-05     -62.9846 
          -5      43.0412 -4.61841e-05 -1.08437e-05     -62.9815 
          -5      43.2426 -4.63135e-05 -1.07441e-05     -62.9784 
          -5      43.4444 -4.64197e-05 -1.06801e-05     -62.9753 
          -5      43.6467 -4.65004e-05 -1.06406e-05     -62.9722 
          -5      43.8494 -4.65543e-05 -1.06172e-05      -62.969 
          -5      44.0527 -4.65817e-05 -1.06032e-05     -62.9659 
          -5      44.2563 -4.65837e-05 -1.05936e-05     -62.9627 
          -5      44.4606 -4.65624e-05 -1.05852e-05     -62.9595 
          -5      44.6653 -4.65204e-05 -1.05757e-05     -62.9563 
          -5      44.8704  -4.6461e-05  -1.0564e-05     -62.9531 
          -5       45.076 -4.63875e-05 -1.05497e-05     -62.9498 
          -5       45.282 -4.63037e-05 -1.05331e-05     -62.9466 
          -5      45.4886 -4.62131e-05 -1.05145e-05     -62.9433 
          -5      45.6955 -4.61193e-05  -1.0495e-05       -62.94 
          -5       45.903 -4.60256e-05 -1.04752e-05     -62.9367 
          -5      46.1111 -4.59351e-05  -1.0456e-05     -62.9334 
          -5      46.3194 -4.58502e-05 -1.04381e-05     -62.9301 
          -5      46.5283  -4.5773e-05 -1.04218e-05     -62.9268 
          -5      46.7376 -4.57051e-05 -1.04073e-05     -62.9234 
          -5      46.9475 -4.56474e-05 -1.03943e-05     -62.9201 
          -5      47.1577 -4.56005e-05 -1.03822e-05     -62.9167 
          -5      47.3685  -4.5564e-05 -1.03702e-05     -62.9133 
          -5      47.5798 -4.55374e-05 -1.03572e-05     -62.9099 
          -5      47.7914 -4.55194e-05 -1.03418e-05     -62.9065 
          -5      48.0037 -4.55084e-05 -1.03225e-05      -62.903 