Variables = x, y, u, v, p

Zone, I=800, F=POINT
         -70            0           -0           -0      -96.861 
         -70     0.000234 -4.01715e-06 -5.37842e-09      -96.861 
         -70     0.000939 -1.49008e-05 -2.08281e-08      -96.861 
         -70     0.002113 -2.93246e-05  -4.4202e-08      -96.861 
         -70     0.003759 -4.29382e-05   -7.255e-08      -96.861 
         -70     0.005872 -5.15921e-05 -1.02521e-07      -96.861 
         -70     0.008457 -5.27875e-05 -1.31342e-07      -96.861 
         -70      0.01151 -4.64582e-05 -1.57119e-07      -96.861 
         -70     0.015036 -3.50985e-05 -1.79361e-07      -96.861 
         -70     0.019031 -2.29819e-05 -1.98831e-07      -96.861 
         -70     0.023493 -1.45439e-05 -2.17293e-07      -96.861 
         -70     0.028429 -1.24874e-05 -2.36955e-07      -96.861 
         -70     0.033831 -1.63543e-05 -2.59766e-07      -96.861 
         -70     0.039706 -2.23474e-05 -2.87143e-07      -96.861 
         -70     0.046047 -2.51245e-05 -3.19855e-07      -96.861 
         -70     0.052863 -2.15023e-05 -3.58606e-07      -96.861 
         -70      0.06015 -1.44532e-05 -4.04337e-07      -96.861 
         -70       0.0679 -1.32388e-05 -4.57551e-07      -96.861 
         -70     0.076126 -2.13108e-05 -5.14309e-07      -96.861 
         -70     0.084816 -9.45714e-06 -5.61369e-07      -96.861 
         -70     0.093982 -1.17667e-05 -6.25655e-07      -96.861 
         -70     0.103611 -1.10223e-05 -6.91038e-07      -96.861 
         -70     0.113718 -8.80768e-06 -7.59434e-07      -96.861 
         -70     0.124286 -6.25645e-06 -8.30773e-07     -96.8609 
         -70     0.135333 -3.99277e-06 -9.03529e-07     -96.8609 
         -70      0.14685 -2.18179e-06 -9.74653e-07     -96.8609 
         -70     0.158827 -6.46656e-07 -1.04039e-06     -96.8609 
         -70     0.171284  9.36595e-07 -1.09718e-06     -96.8609 
         -70     0.184201  2.79953e-06 -1.14203e-06     -96.8609 
         -70     0.197599  4.89922e-06  -1.1732e-06     -96.8608 
         -70     0.211455  6.86135e-06  -1.1894e-06     -96.8608 
         -70     0.225792  8.25971e-06 -1.18791e-06     -96.8608 
         -70       0.2406  9.40979e-06 -1.15985e-06     -96.8607 
         -70     0.255865  1.14911e-05 -1.11443e-06     -96.8607 
         -70     0.271613  1.28053e-05 -1.06637e-06     -96.8607 
         -70     0.287818   1.4152e-05 -9.98571e-07     -96.8606 
         -70     0.304506  1.55027e-05 -9.40964e-07     -96.8606 
         -70      0.32165  1.68317e-05 -9.15624e-07     -96.8605 
         -70     0.339278  1.81244e-05 -9.36017e-07     -96.8605 
         -70     0.357377  1.93687e-05 -1.00724e-06     -96.8604 
         -70      0.37593   2.0557e-05 -1.12635e-06     -96.8603 
         -70     0.394968  2.16872e-05   -1.284e-06     -96.8603 
         -70     0.414461  2.27543e-05 -1.46539e-06     -96.8602 
         -70      0.43444  2.37548e-05 -1.65343e-06     -96.8601 
         -70     0.454872  2.46789e-05 -1.83034e-06       -96.86 
         -70     0.475791  2.55151e-05 -1.98174e-06     -96.8599 
         -70     0.497163  2.62452e-05  -2.0987e-06     -96.8598 
         -70     0.519021  2.68508e-05 -2.18157e-06     -96.8597 
         -70      0.54135  2.73148e-05 -2.24189e-06     -96.8596 
         -70     0.564131  2.76318e-05 -2.30421e-06     -96.8595 
         -70       0.5874   2.7822e-05 -2.40647e-06     -96.8594 
         -70     0.611121  2.79526e-05  -2.5967e-06     -96.8592 
         -70      0.63533  2.80002e-05 -2.79444e-06     -96.8591 
         -70      0.65999   2.7867e-05 -2.92438e-06     -96.8589 
         -70     0.685139  2.75814e-05 -2.99694e-06     -96.8588 
         -70     0.710759  2.71683e-05 -3.02284e-06     -96.8586 
         -70     0.736828  2.66489e-05 -3.01336e-06     -96.8584 
         -70     0.763387  2.60392e-05 -2.97987e-06     -96.8583 
         -70     0.790396  2.53529e-05 -2.93355e-06     -96.8581 
         -70     0.817896  2.45981e-05 -2.88498e-06     -96.8578 
         -70     0.845843  2.37818e-05 -2.84397e-06     -96.8576 
         -70     0.874283  2.29055e-05 -2.81899e-06     -96.8574 
         -70      0.90317  2.19714e-05 -2.81706e-06     -96.8572 
         -70     0.932551  2.09769e-05 -2.84329e-06     -96.8569 
         -70     0.962401  1.99212e-05 -2.90068e-06     -96.8566 
         -70     0.992697  1.88032e-05 -2.98981e-06     -96.8564 
         -70      1.02349  1.76199e-05 -3.10905e-06     -96.8561 
         -70      1.05472  1.63739e-05 -3.25399e-06     -96.8558 
         -70      1.08645  1.50655e-05 -3.41837e-06     -96.8555 
         -70      1.11863  1.37021e-05 -3.59348e-06     -96.8551 
         -70       1.1513  1.22896e-05 -3.76977e-06     -96.8548 
         -70      1.18444  1.08401e-05 -3.93669e-06     -96.8544 
         -70      1.21802  9.36802e-06 -4.08433e-06      -96.854 
         -70      1.25211  7.88573e-06 -4.20525e-06     -96.8536 
         -70      1.28663  6.40995e-06 -4.29568e-06     -96.8532 
         -70      1.32165  4.94955e-06 -4.35882e-06     -96.8528 
         -70      1.35712  3.51182e-06 -4.40727e-06     -96.8524 
         -70      1.39308  2.08811e-06 -4.46729e-06     -96.8519 
         -70      1.42951  6.55834e-07 -4.58307e-06     -96.8514 
         -70      1.46638  -8.3258e-07 -4.82205e-06     -96.8509 
         -70      1.50375  -2.4632e-06 -5.28214e-06     -96.8504 
         -70      1.54156 -3.33608e-06  -4.9606e-06     -96.8499 
         -70      1.57987 -4.46362e-06 -4.74314e-06     -96.8493 
         -70      1.61863 -5.85049e-06 -4.66558e-06     -96.8488 
         -70      1.65788 -7.43075e-06 -4.68857e-06     -96.8482 
         -70      1.69757 -9.13966e-06 -4.77785e-06     -96.8475 
         -70      1.73776 -1.09241e-05 -4.90435e-06     -96.8469 
         -70      1.77842 -1.27331e-05 -5.04378e-06     -96.8462 
         -70      1.81952 -1.45223e-05 -5.17673e-06     -96.8456 
         -70      1.86113 -1.62581e-05  -5.2889e-06     -96.8448 
         -70      1.90316 -1.79079e-05  -5.3702e-06     -96.8441 
         -70      1.94571  -1.9451e-05 -5.41518e-06     -96.8433 
         -70      1.98869 -2.08676e-05 -5.42216e-06     -96.8426 
         -70      2.03217  -2.2149e-05  -5.3932e-06     -96.8418 
         -70      2.07612 -2.32884e-05 -5.33347e-06     -96.8409 
         -70      2.12051  -2.4285e-05 -5.25097e-06     -96.8401 
         -70       2.1654 -2.51449e-05 -5.15566e-06     -96.8392 
         -70      2.21073 -2.58758e-05 -5.05933e-06     -96.8383 
         -70      2.25656 -2.64913e-05 -4.97451e-06     -96.8373 
         -70      2.30283  -2.7006e-05 -4.91435e-06     -96.8363 
         -70       2.3496 -2.74385e-05 -4.89154e-06     -96.8353 
         -70      2.39685 -2.78078e-05 -4.91803e-06     -96.8343 
         -70      2.44452 -2.81337e-05  -5.0041e-06     -96.8332 
         -70      2.49271 -2.84367e-05 -5.15816e-06     -96.8321 
         -70      2.54132 -2.87353e-05 -5.38559e-06      -96.831 
         -70      2.59044 -2.90474e-05  -5.6893e-06     -96.8298 
         -70         2.64 -2.93872e-05 -6.06787e-06     -96.8286 
         -70      2.69006 -2.97667e-05  -6.5172e-06     -96.8274 
         -70      2.74056 -3.01926e-05 -7.02808e-06     -96.8262 
         -70      2.79156 -3.06686e-05 -7.58898e-06     -96.8249 
         -70      2.84304 -3.11919e-05 -8.18363e-06     -96.8235 
         -70      2.89494 -3.17543e-05 -8.79265e-06     -96.8222 
         -70      2.94735 -3.23431e-05 -9.39585e-06     -96.8208 
         -70       3.0002 -3.29382e-05 -9.96998e-06     -96.8193 
         -70      3.05355 -3.35159e-05 -1.04939e-05     -96.8178 
         -70      3.10733 -3.40457e-05 -1.09471e-05     -96.8163 
         -70      3.16163 -3.44949e-05 -1.13151e-05     -96.8148 
         -70      3.21639 -3.48263e-05 -1.15895e-05     -96.8132 
         -70      3.27158 -3.50024e-05 -1.17735e-05     -96.8115 
         -70      3.32729 -3.49865e-05 -1.18853e-05     -96.8098 
         -70      3.38342 -3.47456e-05 -1.19627e-05     -96.8081 
         -70      3.44007 -3.42531e-05 -1.20692e-05     -96.8063 
         -70      3.49714 -3.34943e-05 -1.23001e-05     -96.8045 
         -70      3.55472 -3.24681e-05 -1.27904e-05     -96.8027 
         -70      3.61273 -3.11971e-05  -1.3722e-05     -96.8008 
         -70      3.67125 -2.97277e-05 -1.53371e-05     -96.7988 
         -70      3.73025 -2.81443e-05 -1.79442e-05     -96.7968 
         -70      3.78967 -2.80883e-05 -1.79409e-05     -96.7948 
         -70      3.84961 -2.86922e-05 -1.68016e-05     -96.7927 
         -70      3.90996 -2.92141e-05 -1.63013e-05     -96.7906 
         -70      3.97084 -2.97223e-05  -1.6338e-05     -96.7884 
         -70      4.03214 -3.02933e-05 -1.67995e-05     -96.7862 
         -70      4.09395 -3.10139e-05 -1.75684e-05     -96.7839 
         -70      4.15624 -3.14385e-05 -1.81637e-05     -96.7816 
         -70      4.21895 -3.16685e-05 -1.84433e-05     -96.7792 
         -70      4.28217 -3.19595e-05 -1.86624e-05     -96.7768 
         -70      4.34582 -3.22375e-05 -1.88642e-05     -96.7743 
         -70      4.40998 -3.24554e-05 -1.90716e-05     -96.7717 
         -70      4.47457 -3.25885e-05 -1.92901e-05     -96.7692 
         -70      4.53968 -3.26316e-05  -1.9513e-05     -96.7665 
         -70      4.60525 -3.25947e-05 -1.97244e-05     -96.7638 
         -70      4.67125 -3.24995e-05 -1.99036e-05      -96.761 
         -70      4.73777 -3.23748e-05 -2.00289e-05     -96.7582 
         -70       4.8047  -3.2254e-05 -2.00804e-05     -96.7553 
         -70      4.87216   -3.217e-05  -2.0043e-05     -96.7524 
         -70      4.94003 -3.21522e-05 -1.99095e-05     -96.7494 
         -70      5.00843 -3.22235e-05 -1.96809e-05     -96.7464 
         -70      5.07724  -3.2396e-05 -1.93697e-05     -96.7433 
         -70      5.14658 -3.26698e-05 -1.89976e-05     -96.7401 
         -70      5.21639 -3.30291e-05 -1.85971e-05     -96.7368 
         -70      5.28661 -3.34408e-05  -1.8209e-05     -96.7336 
         -70      5.35736 -3.38545e-05 -1.78782e-05     -96.7302 
         -70      5.42852 -3.41994e-05 -1.76516e-05     -96.7268 
         -70      5.50021 -3.43871e-05 -1.75699e-05     -96.7233 
         -70      5.57231 -3.43109e-05 -1.76616e-05     -96.7197 
         -70      5.64493 -3.38483e-05  -1.7933e-05     -96.7161 
         -70      5.71803 -3.28646e-05 -1.83562e-05     -96.7124 
         -70      5.79154 -3.12189e-05 -1.88548e-05     -96.7087 
         -70      5.86558 -3.06684e-05 -1.86855e-05     -96.7048 
         -70      5.94003 -3.15512e-05 -1.78823e-05     -96.7009 
         -70      6.01501 -3.18401e-05 -1.73262e-05      -96.697 
         -70       6.0904 -3.17509e-05 -1.70561e-05      -96.693 
         -70      6.16632 -3.14546e-05 -1.70608e-05     -96.6889 
         -70      6.24271 -3.10809e-05 -1.72942e-05     -96.6847 
         -70       6.3195 -3.07224e-05 -1.76874e-05     -96.6804 
         -70      6.39683 -3.04373e-05 -1.81621e-05     -96.6761 
         -70      6.47457  -3.0256e-05 -1.86386e-05     -96.6717 
         -70      6.55284 -3.01839e-05 -1.90485e-05     -96.6673 
         -70      6.63152 -3.02076e-05 -1.93384e-05     -96.6627 
         -70      6.71073 -3.02996e-05  -1.9478e-05     -96.6581 
         -70      6.79034  -3.0423e-05 -1.94611e-05     -96.6534 
         -70      6.87049 -3.05381e-05 -1.93065e-05     -96.6486 
         -70      6.95111 -3.06067e-05 -1.90549e-05     -96.6438 
         -70      7.03214 -3.05986e-05 -1.87621e-05     -96.6389 
         -70       7.1137  -3.0497e-05 -1.84883e-05     -96.6339 
         -70      7.19566 -3.03044e-05 -1.82842e-05     -96.6288 
         -70      7.27816 -3.00483e-05 -1.81701e-05     -96.6236 
         -70      7.36106 -2.97871e-05 -1.81126e-05     -96.6184 
         -70      7.44451 -2.96155e-05 -1.79925e-05      -96.613 
         -70      7.52842 -2.96708e-05 -1.75688e-05     -96.6076 
         -70      7.61273 -2.95023e-05 -1.63587e-05     -96.6021 
         -70      7.69758 -2.89677e-05 -1.54606e-05     -96.5966 
         -70      7.78283 -2.82834e-05 -1.54891e-05     -96.5909 
         -70      7.86862 -2.77386e-05   -1.711e-05     -96.5852 
         -70      7.95481 -2.74847e-05 -1.83754e-05     -96.5793 
         -70      8.04155 -2.73153e-05 -1.63076e-05     -96.5734 
         -70      8.12868 -2.73487e-05 -1.52445e-05     -96.5674 
         -70      8.21635 -2.73216e-05 -1.47129e-05     -96.5613 
         -70      8.30449 -2.70435e-05 -1.44043e-05     -96.5552 
         -70      8.39303 -2.63918e-05  -1.4152e-05     -96.5489 
         -70      8.48211 -2.53584e-05 -1.37942e-05     -96.5426 
         -70      8.57159 -2.49847e-05 -1.17967e-05     -96.5361 
         -70      8.66161 -2.46364e-05 -1.03973e-05     -96.5296 
         -70      8.75203 -2.43865e-05 -9.55815e-06      -96.523 
         -70      8.84299 -2.42824e-05 -9.15326e-06     -96.5163 
         -70      8.93443 -2.43417e-05 -9.01848e-06     -96.5095 
         -70      9.02626 -2.45476e-05 -8.98701e-06     -96.5026 
         -70      9.11863 -2.48507e-05 -8.92113e-06     -96.4956 
         -70      9.21139  -2.5173e-05 -8.73512e-06     -96.4885 
         -70      9.30471 -2.54185e-05 -8.40773e-06     -96.4814 
         -70      9.39841 -2.54863e-05 -7.98621e-06     -96.4741 
         -70      9.49267 -2.52916e-05 -7.57546e-06     -96.4668 
         -70      9.58739 -2.47913e-05 -7.31838e-06     -96.4593 
         -70      9.68251 -2.40176e-05 -7.35822e-06     -96.4518 
         -70      9.77817  -2.3115e-05 -7.78752e-06     -96.4441 
         -70      9.87422  -2.2392e-05 -8.57847e-06     -96.4364 
         -70      9.97083 -2.23721e-05 -9.49828e-06     -96.4286 
         -70      10.0678  -2.3861e-05 -9.99768e-06     -96.4206 
         -70      10.1654 -2.57951e-05 -1.02101e-05     -96.4126 
         -70      10.2633 -2.47654e-05 -1.14923e-05     -96.4045 
         -70      10.3618 -2.39965e-05 -1.22564e-05     -96.3963 
         -70      10.4607 -2.34605e-05 -1.25873e-05      -96.388 
         -70      10.5601 -2.31252e-05 -1.25898e-05     -96.3795 
         -70        10.66 -2.29536e-05 -1.23861e-05      -96.371 
         -70      10.7603 -2.29053e-05 -1.21134e-05     -96.3624 
         -70      10.8611 -2.29349e-05 -1.19213e-05     -96.3537 
         -70      10.9623 -2.29922e-05 -1.19699e-05     -96.3449 
         -70      11.0641 -2.30212e-05 -1.24268e-05      -96.336 
         -70      11.1663 -2.28564e-05  -1.2717e-05      -96.327 
         -70       11.269 -2.27038e-05 -1.23412e-05     -96.3178 
         -70      11.3721 -2.27071e-05 -1.20014e-05     -96.3086 
         -70      11.4757 -2.27911e-05 -1.17214e-05     -96.2993 
         -70      11.5798 -2.28903e-05 -1.15167e-05     -96.2899 
         -70      11.6844 -2.29509e-05 -1.13952e-05     -96.2804 
         -70      11.7894 -2.29324e-05 -1.13557e-05     -96.2708 
         -70       11.895 -2.28092e-05 -1.13892e-05      -96.261 
         -70      12.0009 -2.25708e-05 -1.14784e-05     -96.2512 
         -70      12.1073 -2.22216e-05 -1.16005e-05     -96.2413 
         -70      12.2142 -2.17813e-05 -1.17275e-05     -96.2312 
         -70      12.3216  -2.1281e-05 -1.18306e-05     -96.2211 
         -70      12.4294  -2.0764e-05 -1.18821e-05     -96.2109 
         -70      12.5378  -2.0279e-05 -1.18607e-05     -96.2005 
         -70      12.6465 -1.98794e-05 -1.17562e-05     -96.1901 
         -70      12.7558 -1.96146e-05 -1.15753e-05     -96.1795 
         -70      12.8656 -1.95264e-05 -1.13489e-05     -96.1689 
         -70      12.9757 -1.96393e-05 -1.11405e-05     -96.1581 
         -70      13.0864 -1.99525e-05 -1.10545e-05     -96.1473 
         -70      13.1975 -2.04287e-05 -1.12477e-05     -96.1363 
         -70      13.3092  -2.0984e-05 -1.19406e-05     -96.1252 
         -70      13.4212 -2.12475e-05 -1.21076e-05     -96.1141 
         -70      13.5338 -2.11309e-05 -1.17463e-05     -96.1028 
         -70      13.6468  -2.0885e-05 -1.17068e-05     -96.0914 
         -70      13.7603 -2.05833e-05 -1.18695e-05     -96.0799 
         -70      13.8743 -2.02805e-05 -1.21393e-05     -96.0683 
         -70      13.9886 -2.00162e-05 -1.24413e-05     -96.0566 
         -70      14.1036 -1.98149e-05 -1.27206e-05     -96.0448 
         -70      14.2189 -1.96894e-05 -1.29381e-05     -96.0329 
         -70      14.3348 -1.96418e-05 -1.30699e-05     -96.0209 
         -70       14.451 -1.96657e-05 -1.31037e-05     -96.0088 
         -70      14.5678 -1.97479e-05 -1.30378e-05     -95.9966 
         -70      14.6851 -1.98702e-05 -1.28786e-05     -95.9843 
         -70      14.8028 -2.00109e-05 -1.26385e-05     -95.9719 
         -70       14.921 -2.01474e-05 -1.23339e-05     -95.9593 
         -70      15.0396 -2.02563e-05 -1.19842e-05     -95.9467 
         -70      15.1588 -2.03163e-05 -1.16089e-05      -95.934 
         -70      15.2783 -2.03087e-05 -1.12275e-05     -95.9211 
         -70      15.3984 -2.02194e-05 -1.08567e-05     -95.9082 
         -70       15.519 -2.00394e-05 -1.05106e-05     -95.8952 
         -70        15.64 -1.97667e-05 -1.01991e-05      -95.882 
         -70      15.7615 -1.94059e-05 -9.92628e-06     -95.8688 
         -70      15.8834 -1.89708e-05 -9.69196e-06     -95.8554 
         -70      16.0058 -1.84826e-05 -9.48925e-06      -95.842 
         -70      16.1286  -1.7973e-05 -9.30631e-06     -95.8284 
         -70       16.252 -1.74814e-05 -9.12535e-06     -95.8147 
         -70      16.3759 -1.70572e-05 -8.92433e-06      -95.801 
         -70      16.5002 -1.67586e-05 -8.67761e-06     -95.7871 
         -70       16.625 -1.66511e-05 -8.35675e-06     -95.7731 
         -70      16.7501 -1.68079e-05 -7.93378e-06     -95.7591 
         -70      16.8759 -1.73081e-05 -7.38138e-06     -95.7449 
         -70       17.002 -1.82343e-05 -6.67835e-06     -95.7307 
         -70      17.1287 -1.96737e-05 -5.80923e-06     -95.7163 
         -70      17.2557 -1.83183e-05 -6.56851e-06     -95.7018 
         -70      17.3834 -1.68108e-05 -6.84335e-06     -95.6873 
         -70      17.5115 -1.57111e-05 -5.99139e-06     -95.6726 
         -70      17.6399  -1.5382e-05 -3.68608e-06     -95.6578 
         -70       17.769  -1.5207e-05 -5.18801e-06      -95.643 
         -70      17.8984 -1.51201e-05 -6.62244e-06      -95.628 
         -70      18.0284 -1.51815e-05 -7.59841e-06     -95.6129 
         -70      18.1587 -1.53951e-05  -8.2451e-06     -95.5978 
         -70      18.2896 -1.57594e-05 -8.73707e-06     -95.5825 
         -70       18.421  -1.6161e-05  -9.3345e-06     -95.5672 
         -70      18.5528 -1.63882e-05 -1.01066e-05     -95.5517 
         -70      18.6851 -1.66991e-05 -1.08136e-05     -95.5362 
         -70      18.8178   -1.703e-05 -1.14426e-05     -95.5206 
         -70      18.9511 -1.73329e-05 -1.19871e-05     -95.5048 
         -70      19.0847 -1.75717e-05 -1.24423e-05      -95.489 
         -70      19.2189 -1.77234e-05 -1.28084e-05     -95.4731 
         -70      19.3535 -1.77743e-05 -1.30872e-05     -95.4571 
         -70      19.4886 -1.77198e-05 -1.32841e-05      -95.441 
         -70      19.6242 -1.75629e-05  -1.3406e-05     -95.4248 
         -70      19.7602 -1.73127e-05 -1.34615e-05     -95.4085 
         -70      19.8968 -1.69824e-05 -1.34611e-05     -95.3921 
         -70      20.0337 -1.65895e-05 -1.34158e-05     -95.3756 
         -70      20.1712 -1.61527e-05 -1.33373e-05      -95.359 
         -70      20.3091 -1.56932e-05 -1.32377e-05     -95.3424 
         -70      20.4475 -1.52306e-05 -1.31284e-05     -95.3257 
         -70      20.5864 -1.47847e-05 -1.30207e-05     -95.3088 
         -70      20.7257 -1.43736e-05  -1.2925e-05     -95.2919 
         -70      20.8655 -1.40117e-05   -1.285e-05     -95.2749 
         -70      21.0058 -1.37114e-05 -1.28033e-05     -95.2578 
         -70      21.1465 -1.34803e-05 -1.27901e-05     -95.2406 
         -70      21.2877 -1.33226e-05 -1.28138e-05     -95.2233 
         -70      21.4294 -1.32376e-05  -1.2875e-05      -95.206 
         -70      21.5716 -1.32203e-05 -1.29716e-05     -95.1885 
         -70      21.7142 -1.32611e-05 -1.30983e-05      -95.171 
         -70      21.8573 -1.33465e-05 -1.32467e-05     -95.1534 
         -70      22.0008 -1.34587e-05 -1.34048e-05     -95.1357 
         -70      22.1449 -1.35774e-05 -1.35572e-05     -95.1179 
         -70      22.2893 -1.36796e-05 -1.36841e-05     -95.1001 
         -70      22.4344 -1.37414e-05 -1.37626e-05     -95.0821 
         -70      22.5797  -1.3739e-05 -1.37651e-05     -95.0641 
         -70      22.7257 -1.36503e-05 -1.36603e-05      -95.046 
         -70      22.8721 -1.36876e-05 -1.37724e-05     -95.0278 
         -70      23.0189 -1.39208e-05 -1.41133e-05     -95.0096 
         -70      23.1663 -1.41164e-05 -1.43187e-05     -94.9913 
         -70       23.314 -1.42744e-05 -1.44194e-05     -94.9729 
         -70      23.4623 -1.43966e-05 -1.44401e-05     -94.9544 
         -70       23.611 -1.44855e-05    -1.44e-05     -94.9358 
         -70      23.7602 -1.45446e-05 -1.43133e-05     -94.9172 
         -70        23.91 -1.45778e-05 -1.41905e-05     -94.8984 
         -70        24.06 -1.45895e-05 -1.40382e-05     -94.8797 
         -70      24.2107 -1.45839e-05 -1.38604e-05     -94.8608 
         -70      24.3617 -1.45652e-05  -1.3659e-05     -94.8419 
         -70      24.5133 -1.45369e-05 -1.34337e-05     -94.8228 
         -70      24.6653 -1.45019e-05 -1.31834e-05     -94.8038 
         -70      24.8178 -1.44618e-05 -1.29055e-05     -94.7846 
         -70      24.9708 -1.44168e-05 -1.25973e-05     -94.7654 
         -70      25.1242 -1.43655e-05 -1.22558e-05     -94.7461 
         -70      25.2781 -1.43045e-05  -1.1877e-05     -94.7268 
         -70      25.4324 -1.42279e-05 -1.14579e-05     -94.7073 
         -70      25.5873  -1.4127e-05 -1.09939e-05     -94.6878 
         -70      25.7426 -1.39905e-05 -1.04819e-05     -94.6683 
         -70      25.8984  -1.3803e-05 -9.91618e-06     -94.6487 
         -70      26.0546 -1.35462e-05 -9.29231e-06      -94.629 
         -70      26.2114 -1.31966e-05 -8.60243e-06     -94.6092 
         -70      26.3686 -1.32569e-05 -9.39552e-06     -94.5894 
         -70      26.5262 -1.32164e-05 -1.01711e-05     -94.5695 
         -70      26.6844 -1.30577e-05  -1.0709e-05     -94.5496 
         -70      26.8429 -1.28347e-05 -1.10275e-05     -94.5296 
         -70       27.002 -1.25903e-05 -1.11526e-05     -94.5095 
         -70      27.1615 -1.23585e-05 -1.11144e-05     -94.4894 
         -70      27.3216  -1.2163e-05 -1.09473e-05     -94.4692 
         -70      27.4821 -1.20188e-05 -1.06882e-05      -94.449 
         -70       27.643 -1.19329e-05 -1.03751e-05     -94.4287 
         -70      27.8044 -1.19043e-05 -1.00452e-05     -94.4084 
         -70      27.9663 -1.19255e-05 -9.73407e-06      -94.388 
         -70      28.1287 -1.19836e-05 -9.47256e-06     -94.3675 
         -70      28.2914 -1.20608e-05 -9.28627e-06      -94.347 
         -70      28.4548 -1.21363e-05 -9.19202e-06     -94.3264 
         -70      28.6185 -1.21874e-05 -9.19664e-06     -94.3058 
         -70      28.7828 -1.21913e-05 -9.29396e-06     -94.2851 
         -70      28.9475 -1.21263e-05 -9.46238e-06     -94.2644 
         -70      29.1126 -1.19745e-05 -9.66184e-06     -94.2436 
         -70      29.2784 -1.17232e-05 -9.83159e-06     -94.2228 
         -70      29.4444 -1.13676e-05 -9.88604e-06     -94.2019 
         -70       29.611 -1.09123e-05 -9.71223e-06      -94.181 
         -70       29.778 -1.05441e-05 -9.47332e-06       -94.16 
         -70      29.9456 -1.07145e-05 -1.00103e-05      -94.139 
         -70      30.1137 -1.07764e-05 -1.02785e-05     -94.1179 
         -70      30.2821  -1.0776e-05 -1.04014e-05     -94.0968 
         -70      30.4511 -1.07496e-05 -1.04673e-05     -94.0756 
         -70      30.6204 -1.07243e-05  -1.0535e-05     -94.0545 
         -70      30.7903 -1.07185e-05 -1.06393e-05     -94.0332 
         -70      30.9606 -1.07429e-05 -1.07948e-05     -94.0119 
         -70      31.1315 -1.08012e-05 -1.10019e-05     -93.9906 
         -70      31.3028 -1.08908e-05 -1.12495e-05     -93.9692 
         -70      31.4745 -1.10038e-05 -1.15195e-05     -93.9478 
         -70      31.6468 -1.11282e-05  -1.1791e-05     -93.9264 
         -70      31.8194 -1.12484e-05 -1.20416e-05     -93.9049 
         -70      31.9926 -1.13469e-05 -1.22516e-05     -93.8833 
         -70      32.1662 -1.14048e-05 -1.24049e-05     -93.8618 
         -70      32.3404 -1.14034e-05 -1.24917e-05     -93.8402 
         -70      32.5149 -1.13257e-05 -1.25086e-05     -93.8186 
         -70        32.69 -1.11568e-05 -1.24594e-05     -93.7969 
         -70      32.8655 -1.08864e-05 -1.23553e-05     -93.7752 
         -70      33.0414   -1.051e-05 -1.22139e-05     -93.7535 
         -70       33.218 -1.00294e-05 -1.20574e-05     -93.7317 
         -70      33.3948 -9.45645e-06 -1.19114e-05     -93.7099 
         -70      33.5723  -8.8118e-06 -1.18006e-05      -93.688 
         -70        33.75 -8.13033e-06 -1.17467e-05     -93.6662 
         -70      33.9284 -7.45892e-06 -1.17626e-05     -93.6443 
         -70      34.1073  -6.8622e-06 -1.18478e-05     -93.6224 
         -70      34.2865 -6.42266e-06 -1.19814e-05     -93.6004 
         -70      34.4663 -6.24195e-06 -1.21158e-05     -93.5784 
         -70      34.6465 -6.44505e-06 -1.21674e-05     -93.5564 
         -70      34.8272  -7.1818e-06 -1.20081e-05     -93.5344 
         -70      35.0083 -9.54143e-06 -1.05794e-05     -93.5123 
         -70        35.19 -1.28176e-05 -1.06146e-05     -93.4902 
         -70      35.3721 -1.22364e-05 -1.06901e-05     -93.4681 
         -70      35.5546 -1.15548e-05 -1.09914e-05      -93.446 
         -70      35.7377 -1.08537e-05 -1.14033e-05     -93.4238 
         -70      35.9211 -1.01947e-05   -1.184e-05     -93.4017 
         -70      36.1052  -9.6189e-06 -1.22428e-05     -93.3795 
         -70      36.2895 -9.15301e-06 -1.25739e-05     -93.3573 
         -70      36.4745 -8.80876e-06 -1.28149e-05      -93.335 
         -70      36.6598 -8.58801e-06  -1.2961e-05     -93.3128 
         -70      36.8457 -8.48288e-06 -1.30195e-05     -93.2905 
         -70      37.0321 -8.47935e-06 -1.30051e-05     -93.2682 
         -70      37.2188 -8.55835e-06 -1.29382e-05     -93.2459 
         -70      37.4062 -8.69817e-06 -1.28413e-05     -93.2235 
         -70      37.5938 -8.87559e-06 -1.27374e-05     -93.2012 
         -70      37.7821 -9.06812e-06 -1.26474e-05     -93.1788 
         -70      37.9707 -9.25431e-06 -1.25887e-05     -93.1565 
         -70      38.1599 -9.41597e-06 -1.25734e-05     -93.1341 
         -70      38.3496 -9.53802e-06  -1.2608e-05     -93.1117 
         -70      38.5396 -9.60974e-06 -1.26919e-05     -93.0893 
         -70      38.7302  -9.6252e-06 -1.28176e-05     -93.0668 
         -70      38.9211 -9.58314e-06  -1.2971e-05     -93.0444 
         -70      39.1127 -9.48697e-06 -1.31318e-05     -93.0219 
         -70      39.3046 -9.34464e-06 -1.32743e-05     -92.9995 
         -70      39.4971 -9.16736e-06 -1.33701e-05      -92.977 
         -70      39.6899  -8.9695e-06 -1.33886e-05     -92.9545 
         -70      39.8833 -8.76618e-06 -1.33012e-05      -92.932 
         -70      40.0772 -8.57269e-06 -1.30833e-05     -92.9095 
         -70      40.2714 -8.40197e-06 -1.27194e-05      -92.887 
         -70      40.4663 -8.26185e-06 -1.22056e-05     -92.8645 
         -70      40.6615 -8.15317e-06 -1.15576e-05      -92.842 
         -70      40.8573 -8.06573e-06 -1.08126e-05     -92.8195 
         -70      41.0534 -7.97541e-06 -1.00404e-05      -92.797 
         -70      41.2501 -7.83949e-06  -9.3454e-06     -92.7744 
         -70      41.4473 -7.59264e-06  -8.8796e-06     -92.7519 
         -70      41.6448 -7.14213e-06 -8.84807e-06     -92.7294 
         -70      41.8429 -7.24747e-06 -7.87949e-06     -92.7068 
         -70      42.0414 -7.57245e-06 -7.31927e-06     -92.6843 
         -70      42.2405  -7.8192e-06 -8.17467e-06     -92.6618 
         -70      42.4399  -8.0033e-06 -8.69582e-06     -92.6392 
         -70      42.6399 -8.13151e-06 -8.95418e-06     -92.6167 
         -70      42.8404 -8.21065e-06 -9.01283e-06     -92.5941 
         -70      43.0412 -8.24797e-06  -8.9286e-06     -92.5716 
         -70      43.2426 -8.25089e-06 -8.75121e-06     -92.5491 
         -70      43.4444 -8.22669e-06 -8.52416e-06     -92.5265 
         -70      43.6467 -8.18237e-06 -8.28385e-06      -92.504 
         -70      43.8494 -8.12463e-06 -8.06116e-06     -92.4815 
         -70      44.0527 -8.05949e-06  -7.8802e-06     -92.4589 
         -70      44.2563  -7.9925e-06  -7.7599e-06     -92.4364 
         -70      44.4606 -7.92822e-06 -7.71321e-06     -92.4139 
         -70      44.6653 -7.87052e-06 -7.74812e-06     -92.3914 
         -70      44.8704 -7.82233e-06 -7.86744e-06     -92.3689 
         -70       45.076 -7.78546e-06 -8.06969e-06     -92.3464 
         -70       45.282 -7.76082e-06 -8.34866e-06     -92.3239 
         -70      45.4886 -7.74821e-06 -8.69506e-06     -92.3014 
         -70      45.6955 -7.74642e-06 -9.09519e-06      -92.279 
         -70       45.903 -7.75323e-06 -9.53359e-06     -92.2565 
         -70      46.1111 -7.76547e-06 -9.99134e-06      -92.234 
         -70      46.3194 -7.77764e-06 -1.04587e-05     -92.2116 
         -70      46.5283 -7.77434e-06 -1.09419e-05     -92.1892 
         -70      46.7376 -7.75337e-06 -1.13556e-05     -92.1668 
         -70      46.9475 -7.71017e-06 -1.16839e-05     -92.1443 
         -70      47.1577 -7.64158e-06 -1.19117e-05      -92.122 
         -70      47.3685 -7.54573e-06 -1.20276e-05     -92.0996 
         -70      47.5798 -7.42252e-06 -1.20229e-05     -92.0772 
         -70      47.7914  -7.2736e-06 -1.18928e-05     -92.0548 
         -70      48.0037 -7.10194e-06 -1.16362e-05     -92.0325 