Variables = x, y, u, v, p

Zone, I=800, F=POINT
           0            0 -7.94904e-21 -1.65395e-19     -66.9385 
           0     0.000234  8.57098e-06 -2.18626e-06     -66.9386 
           0     0.000939  3.22263e-05 -7.80686e-06     -66.9388 
           0     0.002113  6.49334e-05  -1.4275e-05     -66.9392 
           0     0.003759  9.84898e-05 -1.83192e-05     -66.9397 
           0     0.005872  0.000124329 -1.71415e-05     -66.9403 
           0     0.008457  0.000136062 -9.59707e-06     -66.9409 
           0      0.01151  0.000130966  3.10519e-06     -66.9416 
           0     0.015036  0.000110888  1.74939e-05     -66.9423 
           0     0.019031  8.17799e-05  2.87166e-05      -66.943 
           0     0.023493  5.19055e-05  3.23079e-05     -66.9437 
           0     0.028429  2.90902e-05  2.61791e-05     -66.9444 
           0     0.033831  1.80237e-05  1.22023e-05     -66.9451 
           0     0.039706  1.81803e-05 -3.57872e-06     -66.9458 
           0     0.046047  2.39461e-05 -1.27991e-05     -66.9466 
           0     0.052863   2.7384e-05 -9.10832e-06     -66.9474 
           0      0.06015  2.34292e-05  6.18968e-06     -66.9482 
           0       0.0679  1.53042e-05  2.01813e-05      -66.949 
           0     0.076126  1.44707e-05  1.29859e-05     -66.9498 
           0     0.084816  2.17863e-05 -9.58416e-06     -66.9507 
           0     0.093982  1.67286e-05  1.19257e-06     -66.9515 
           0     0.103611  1.56239e-05  4.49036e-06     -66.9524 
           0     0.113718  1.57442e-05  4.02376e-06     -66.9532 
           0     0.124286  1.53914e-05  2.48248e-06     -66.9541 
           0     0.135333  1.39129e-05   1.4156e-06      -66.955 
           0      0.14685  1.15313e-05  1.30976e-06     -66.9559 
           0     0.158827  8.98708e-06  1.85448e-06     -66.9568 
           0     0.171284  7.03923e-06  2.38236e-06     -66.9577 
           0     0.184201  5.96935e-06  2.37751e-06     -66.9586 
           0     0.197599  5.23278e-06  1.90422e-06     -66.9595 
           0     0.211455  3.59609e-06  1.69685e-06     -66.9604 
           0     0.225792  1.42911e-07  2.54236e-06     -66.9613 
           0       0.2406 -3.23671e-06  3.44182e-06     -66.9623 
           0     0.255865 -3.49253e-06  2.64057e-06     -66.9632 
           0     0.271613 -5.77517e-06  3.18072e-06     -66.9642 
           0     0.287818  -7.7481e-06   3.4301e-06     -66.9651 
           0     0.304506 -9.76538e-06  3.82172e-06     -66.9661 
           0      0.32165 -1.15882e-05  4.12767e-06      -66.967 
           0     0.339278 -1.33797e-05  4.52618e-06      -66.968 
           0     0.357377 -1.51353e-05  4.97434e-06     -66.9689 
           0      0.37593 -1.67225e-05  5.40556e-06     -66.9699 
           0     0.394968 -1.81878e-05  5.88107e-06     -66.9708 
           0     0.414461 -1.95313e-05  6.38267e-06     -66.9718 
           0      0.43444 -2.07332e-05  6.90774e-06     -66.9728 
           0     0.454872 -2.17722e-05  7.45385e-06     -66.9737 
           0     0.475791 -2.26469e-05  8.02258e-06     -66.9747 
           0     0.497163 -2.33599e-05  8.61455e-06     -66.9757 
           0     0.519021 -2.38875e-05  9.22847e-06     -66.9767 
           0      0.54135  -2.4243e-05  9.86494e-06     -66.9776 
           0     0.564131 -2.44141e-05  1.05205e-05     -66.9786 
           0       0.5874 -2.44061e-05   1.1197e-05     -66.9796 
           0     0.611121  -2.4222e-05  1.18924e-05     -66.9806 
           0      0.63533 -2.38701e-05  1.26065e-05     -66.9815 
           0      0.65999 -2.33624e-05   1.3337e-05     -66.9825 
           0     0.685139  -2.2713e-05  1.40839e-05     -66.9835 
           0     0.710759 -2.19398e-05  1.48456e-05     -66.9845 
           0     0.736828 -2.10645e-05  1.56197e-05     -66.9854 
           0     0.763387 -2.01095e-05  1.64055e-05     -66.9864 
           0     0.790396 -1.91033e-05   1.7199e-05     -66.9874 
           0     0.817896 -1.80655e-05  1.80009e-05     -66.9884 
           0     0.845843 -1.70292e-05  1.88062e-05     -66.9893 
           0     0.874283 -1.60179e-05  1.96143e-05     -66.9903 
           0      0.90317 -1.50554e-05  2.04217e-05     -66.9913 
           0     0.932551 -1.41577e-05   2.1228e-05     -66.9922 
           0     0.962401 -1.33459e-05  2.20303e-05     -66.9932 
           0     0.992697 -1.26334e-05  2.28257e-05     -66.9942 
           0      1.02349 -1.20261e-05  2.36131e-05     -66.9951 
           0      1.05472 -1.15261e-05  2.43891e-05     -66.9961 
           0      1.08645 -1.11281e-05  2.51533e-05      -66.997 
           0      1.11863 -1.08231e-05  2.59034e-05      -66.998 
           0       1.1513 -1.05941e-05  2.66369e-05     -66.9989 
           0      1.18444 -1.04274e-05  2.73541e-05     -66.9999 
           0      1.21802 -1.03069e-05  2.80542e-05     -67.0008 
           0      1.25211 -1.02148e-05  2.87377e-05     -67.0018 
           0      1.28663 -1.01323e-05  2.94012e-05     -67.0027 
           0      1.32165  -1.0042e-05  3.00461e-05     -67.0036 
           0      1.35712 -9.94393e-06  3.06659e-05     -67.0046 
           0      1.39308 -9.82623e-06   3.1258e-05     -67.0055 
           0      1.42951 -9.68379e-06  3.18265e-05     -67.0064 
           0      1.46638 -9.51774e-06  3.23718e-05     -67.0073 
           0      1.50375 -9.32845e-06  3.29006e-05     -67.0083 
           0      1.54156 -9.12709e-06  3.34062e-05     -67.0092 
           0      1.57987  -8.9229e-06  3.38787e-05     -67.0101 
           0      1.61863 -8.72424e-06  3.43114e-05      -67.011 
           0      1.65788 -8.53573e-06  3.47056e-05     -67.0119 
           0      1.69757 -8.35853e-06  3.50674e-05     -67.0128 
           0      1.73776 -8.18977e-06  3.54073e-05     -67.0137 
           0      1.77842 -8.02657e-06  3.57315e-05     -67.0146 
           0      1.81952 -7.87125e-06  3.60318e-05     -67.0155 
           0      1.86113 -7.73991e-06  3.62701e-05     -67.0163 
           0      1.90316 -7.58229e-06  3.64844e-05     -67.0172 
           0      1.94571 -7.38349e-06   3.6691e-05     -67.0181 
           0      1.98869 -7.17007e-06  3.68461e-05     -67.0189 
           0      2.03217 -6.91615e-06  3.69781e-05     -67.0198 
           0      2.07612 -6.60886e-06  3.71015e-05     -67.0207 
           0      2.12051 -6.24648e-06  3.72177e-05     -67.0215 
           0       2.1654 -5.83977e-06  3.73214e-05     -67.0224 
           0      2.21073 -5.39172e-06  3.74068e-05     -67.0232 
           0      2.25656 -4.91056e-06  3.74612e-05      -67.024 
           0      2.30283 -4.41573e-06  3.74738e-05     -67.0249 
           0       2.3496 -3.92981e-06  3.74367e-05     -67.0257 
           0      2.39685 -3.47913e-06  3.73445e-05     -67.0265 
           0      2.44452 -3.09042e-06  3.71941e-05     -67.0273 
           0      2.49271 -2.78796e-06  3.69832e-05     -67.0281 
           0      2.54132 -2.59373e-06  3.67095e-05     -67.0289 
           0      2.59044 -2.52403e-06   3.6367e-05     -67.0297 
           0         2.64 -2.58926e-06  3.59442e-05     -67.0305 
           0      2.69006 -2.79271e-06  3.54182e-05     -67.0313 
           0      2.74056  -3.1297e-06  3.47514e-05     -67.0321 
           0      2.79156 -3.67242e-06  3.40408e-05     -67.0328 
           0      2.84304 -4.36511e-06  3.32675e-05     -67.0336 
           0      2.89494 -5.14988e-06  3.23743e-05     -67.0343 
           0      2.94735 -6.02164e-06  3.13808e-05     -67.0351 
           0       3.0002 -6.96814e-06   3.0308e-05     -67.0358 
           0      3.05355 -7.97472e-06  2.91733e-05     -67.0366 
           0      3.10733 -9.01794e-06  2.79977e-05     -67.0373 
           0      3.16163 -1.00717e-05  2.68002e-05      -67.038 
           0      3.21639  -1.1102e-05  2.56042e-05     -67.0388 
           0      3.27158 -1.20592e-05  2.43943e-05     -67.0395 
           0      3.32729 -1.28922e-05  2.31765e-05     -67.0402 
           0      3.38342  -1.3578e-05  2.19967e-05     -67.0409 
           0      3.44007 -1.41089e-05   2.0866e-05     -67.0416 
           0      3.49714 -1.44888e-05  1.97934e-05     -67.0422 
           0      3.55472 -1.47332e-05  1.87789e-05     -67.0429 
           0      3.61273 -1.48627e-05  1.78206e-05     -67.0436 
           0      3.67125 -1.49017e-05  1.69099e-05     -67.0443 
           0      3.73025 -1.48737e-05  1.60382e-05     -67.0449 
           0      3.78967 -1.47996e-05  1.51982e-05     -67.0456 
           0      3.84961 -1.46942e-05  1.43858e-05     -67.0462 
           0      3.90996 -1.45656e-05    1.361e-05     -67.0468 
           0      3.97084 -1.44125e-05  1.28947e-05     -67.0475 
           0      4.03214 -1.42253e-05  1.22917e-05     -67.0481 
           0      4.09395 -1.41686e-05  1.15525e-05     -67.0487 
           0      4.15624 -1.40926e-05  1.08563e-05     -67.0493 
           0      4.21895 -1.39856e-05  1.02137e-05     -67.0499 
           0      4.28217 -1.38541e-05  9.61026e-06     -67.0505 
           0      4.34582 -1.37046e-05  9.03835e-06      -67.051 
           0      4.40998 -1.35416e-05   8.4924e-06     -67.0516 
           0      4.47457 -1.33699e-05   7.9713e-06     -67.0522 
           0      4.53968 -1.31927e-05  7.47385e-06     -67.0527 
           0      4.60525 -1.30131e-05  7.00085e-06     -67.0533 
           0      4.67125 -1.28338e-05  6.55295e-06     -67.0538 
           0      4.73777 -1.26565e-05  6.12914e-06     -67.0544 
           0       4.8047 -1.24832e-05   5.7288e-06     -67.0549 
           0      4.87216  -1.2315e-05  5.34895e-06     -67.0554 
           0      4.94003 -1.21531e-05  4.98702e-06     -67.0559 
           0      5.00843  -1.1998e-05  4.63902e-06     -67.0564 
           0      5.07724 -1.18505e-05  4.30285e-06     -67.0569 
           0      5.14658 -1.17106e-05  3.97749e-06     -67.0574 
           0      5.21639  -1.1578e-05  3.66696e-06     -67.0579 
           0      5.28661 -1.14523e-05  3.38192e-06     -67.0583 
           0      5.35736 -1.13317e-05  3.14227e-06     -67.0588 
           0      5.42852 -1.12143e-05  2.98254e-06     -67.0592 
           0      5.50021 -1.11458e-05  2.82833e-06     -67.0597 
           0      5.57231 -1.11289e-05  2.65708e-06     -67.0601 
           0      5.64493 -1.11715e-05  2.43556e-06     -67.0605 
           0      5.71803 -1.11712e-05  2.28193e-06      -67.061 
           0      5.79154 -1.11998e-05  1.97312e-06     -67.0614 
           0      5.86558 -1.11483e-05   1.6745e-06     -67.0618 
           0      5.94003 -1.11171e-05  1.43237e-06     -67.0622 
           0      6.01501 -1.11041e-05  1.21652e-06     -67.0625 
           0       6.0904 -1.11051e-05  1.00576e-06     -67.0629 
           0      6.16632 -1.11143e-05  7.85422e-07     -67.0633 
           0      6.24271 -1.11254e-05  5.47474e-07     -67.0636 
           0       6.3195 -1.11323e-05  2.89034e-07      -67.064 
           0      6.39683   -1.113e-05  1.06173e-08     -67.0643 
           0      6.47457 -1.11147e-05 -2.83369e-07     -67.0646 
           0      6.55284 -1.10849e-05 -5.87402e-07      -67.065 
           0      6.63152  -1.1041e-05 -8.93899e-07     -67.0653 
           0      6.71073 -1.09856e-05 -1.19597e-06     -67.0656 
           0      6.79034 -1.09231e-05  -1.4863e-06     -67.0659 
           0      6.87049 -1.08594e-05 -1.75966e-06     -67.0661 
           0      6.95111  -1.0801e-05 -2.01185e-06     -67.0664 
           0      7.03214 -1.07541e-05 -2.24084e-06     -67.0667 
           0       7.1137 -1.07226e-05  -2.4475e-06     -67.0669 
           0      7.19566 -1.07068e-05 -2.63441e-06     -67.0672 
           0      7.27816 -1.07009e-05   -2.807e-06     -67.0674 
           0      7.36106 -1.06902e-05 -2.97196e-06     -67.0676 
           0      7.44451 -1.06476e-05  -3.1377e-06     -67.0679 
           0      7.52842   -1.053e-05 -3.31247e-06     -67.0681 
           0      7.61273 -1.03985e-05 -3.49464e-06     -67.0683 
           0      7.69758 -1.04611e-05 -3.64698e-06     -67.0685 
           0      7.78283 -1.04728e-05  -3.7886e-06     -67.0686 
           0      7.86862 -1.04412e-05  -3.9325e-06     -67.0688 
           0      7.95481  -1.0376e-05 -4.08521e-06      -67.069 
           0      8.04155 -1.02884e-05 -4.24895e-06     -67.0691 
           0      8.12868 -1.01904e-05 -4.42174e-06     -67.0693 
           0      8.21635 -1.00939e-05 -4.59952e-06     -67.0694 
           0      8.30449 -1.00105e-05 -4.77635e-06     -67.0695 
           0      8.39303 -9.94941e-06 -4.94573e-06     -67.0696 
           0      8.48211 -9.91703e-06 -5.10202e-06     -67.0697 
           0      8.57159 -9.91521e-06 -5.24038e-06     -67.0698 
           0      8.66161 -9.93965e-06 -5.35848e-06     -67.0699 
           0      8.75203  -9.9781e-06 -5.45635e-06       -67.07 
           0      8.84299 -1.00084e-05 -5.53765e-06     -67.0701 
           0      8.93443 -9.99611e-06 -5.60947e-06     -67.0701 
           0      9.02626 -9.89198e-06 -5.68289e-06     -67.0702 
           0      9.11863  -9.7213e-06 -5.77274e-06     -67.0702 
           0      9.21139  -9.7136e-06 -5.81246e-06     -67.0702 
           0      9.30471  -9.6855e-06 -5.77295e-06     -67.0702 
           0      9.39841 -9.64297e-06 -5.67146e-06     -67.0702 
           0      9.49267 -9.58878e-06 -5.52387e-06     -67.0702 
           0      9.58739 -9.52301e-06 -5.34586e-06     -67.0702 
           0      9.68251 -9.44329e-06 -5.15405e-06     -67.0702 
           0      9.77817 -9.34503e-06 -4.96733e-06     -67.0702 
           0      9.87422 -9.22227e-06 -4.81042e-06     -67.0701 
           0      9.97083 -9.06759e-06 -4.71595e-06     -67.0701 
           0      10.0678 -8.87341e-06 -4.72933e-06       -67.07 
           0      10.1654 -8.63158e-06 -4.91307e-06     -67.0699 
           0      10.2633 -8.56895e-06 -4.72196e-06     -67.0699 
           0      10.3618 -8.52648e-06 -4.49618e-06     -67.0698 
           0      10.4607 -8.44649e-06 -4.36429e-06     -67.0697 
           0      10.5601 -8.33713e-06 -4.29701e-06     -67.0695 
           0        10.66 -8.20574e-06 -4.27149e-06     -67.0694 
           0      10.7603 -8.05948e-06  -4.2707e-06     -67.0693 
           0      10.8611 -7.90446e-06  -4.2824e-06     -67.0691 
           0      10.9623 -7.74668e-06 -4.29839e-06      -67.069 
           0      11.0641 -7.59107e-06 -4.31381e-06     -67.0688 
           0      11.1663  -7.4423e-06 -4.32641e-06     -67.0686 
           0       11.269 -7.30446e-06 -4.33595e-06     -67.0685 
           0      11.3721 -7.18072e-06  -4.3437e-06     -67.0683 
           0      11.4757 -7.07406e-06 -4.35194e-06      -67.068 
           0      11.5798 -6.98658e-06 -4.36362e-06     -67.0678 
           0      11.6844 -6.92012e-06 -4.38214e-06     -67.0676 
           0      11.7894  -6.8758e-06 -4.41124e-06     -67.0674 
           0       11.895 -6.85444e-06 -4.45498e-06     -67.0671 
           0      12.0009 -6.85635e-06 -4.51787e-06     -67.0669 
           0      12.1073 -6.88151e-06 -4.60541e-06     -67.0666 
           0      12.2142 -6.92951e-06 -4.72421e-06     -67.0663 
           0      12.3216 -6.91606e-06 -4.79359e-06      -67.066 
           0      12.4294  -6.9212e-06 -4.84366e-06     -67.0657 
           0      12.5378 -6.95723e-06 -4.88859e-06     -67.0654 
           0      12.6465 -7.01459e-06 -4.92921e-06     -67.0651 
           0      12.7558 -7.08512e-06 -4.97033e-06     -67.0647 
           0      12.8656 -7.16219e-06 -5.01956e-06     -67.0644 
           0      12.9757 -7.24109e-06 -5.08607e-06      -67.064 
           0      13.0864 -7.31946e-06 -5.17912e-06     -67.0637 
           0      13.1975 -7.39701e-06 -5.30556e-06     -67.0633 
           0      13.3092 -7.47619e-06 -5.46787e-06     -67.0629 
           0      13.4212  -7.5087e-06 -5.64371e-06     -67.0625 
           0      13.5338  -7.2414e-06 -5.70482e-06     -67.0621 
           0      13.6468 -6.97412e-06 -5.74723e-06     -67.0617 
           0      13.7603 -6.74271e-06  -5.8083e-06     -67.0612 
           0      13.8743 -6.57647e-06 -5.90579e-06     -67.0608 
           0      13.9886 -6.50016e-06 -6.04126e-06     -67.0603 
           0      14.1036  -6.5335e-06  -6.2045e-06     -67.0599 
           0      14.2189 -6.69207e-06 -6.37638e-06     -67.0594 
           0      14.3348 -6.61242e-06 -6.57617e-06     -67.0589 
           0       14.451 -6.55704e-06 -6.78049e-06     -67.0584 
           0      14.5678 -6.54147e-06  -6.9737e-06     -67.0579 
           0      14.6851 -6.55724e-06 -7.14677e-06     -67.0574 
           0      14.8028  -6.5932e-06 -7.29513e-06     -67.0569 
           0       14.921 -6.63722e-06  -7.4177e-06     -67.0563 
           0      15.0396 -6.67728e-06 -7.51511e-06     -67.0558 
           0      15.1588 -6.70288e-06 -7.58953e-06     -67.0552 
           0      15.2783 -6.70579e-06 -7.64336e-06     -67.0546 
           0      15.3984 -6.68089e-06 -7.67913e-06      -67.054 
           0       15.519 -6.62662e-06 -7.69884e-06     -67.0534 
           0        15.64 -6.54535e-06 -7.70401e-06     -67.0528 
           0      15.7615 -6.44297e-06 -7.69581e-06     -67.0522 
           0      15.8834 -6.32909e-06 -7.67542e-06     -67.0516 
           0      16.0058 -6.21566e-06 -7.64466e-06     -67.0509 
           0      16.1286 -6.11664e-06 -7.60714e-06     -67.0503 
           0       16.252 -6.04586e-06 -7.56936e-06     -67.0496 
           0      16.3759 -6.01576e-06 -7.54261e-06     -67.0489 
           0      16.5002 -6.03469e-06 -7.54489e-06     -67.0482 
           0       16.625 -6.10433e-06  -7.6034e-06     -67.0475 
           0      16.7501 -6.21622e-06 -7.75732e-06     -67.0468 
           0      16.8759 -6.28241e-06 -7.92175e-06     -67.0461 
           0       17.002 -6.13127e-06 -7.72171e-06     -67.0453 
           0      17.1287 -6.02807e-06  -7.6575e-06     -67.0446 
           0      17.2557 -5.94717e-06 -7.66986e-06     -67.0438 
           0      17.3834 -5.87251e-06 -7.71538e-06      -67.043 
           0      17.5115 -5.79639e-06 -7.76432e-06     -67.0423 
           0      17.6399 -5.71747e-06 -7.79844e-06     -67.0415 
           0       17.769 -5.63896e-06 -7.80896e-06     -67.0406 
           0      17.8984 -5.56742e-06 -7.79437e-06     -67.0398 
           0      18.0284 -5.51082e-06 -7.75851e-06      -67.039 
           0      18.1587  -5.4775e-06 -7.70885e-06     -67.0381 
           0      18.2896 -5.47464e-06 -7.65452e-06     -67.0373 
           0       18.421 -5.50727e-06 -7.60503e-06     -67.0364 
           0      18.5528 -5.57703e-06 -7.56867e-06     -67.0355 
           0      18.6851 -5.68165e-06  -7.5512e-06     -67.0346 
           0      18.8178 -5.81376e-06 -7.55494e-06     -67.0337 
           0      18.9511 -5.96099e-06 -7.57783e-06     -67.0328 
           0      19.0847 -6.10492e-06 -7.61274e-06     -67.0319 
           0      19.2189 -6.22176e-06 -7.64722e-06     -67.0309 
           0      19.3535  -6.2817e-06 -7.66317e-06       -67.03 
           0      19.4886  -6.2499e-06 -7.63711e-06      -67.029 
           0      19.6242 -6.08665e-06 -7.54056e-06      -67.028 
           0      19.7602 -5.92562e-06 -7.39173e-06      -67.027 
           0      19.8968 -5.85845e-06  -7.2593e-06      -67.026 
           0      20.0337 -5.73888e-06    -7.13e-06      -67.025 
           0      20.1712 -5.60291e-06 -7.01988e-06      -67.024 
           0      20.3091 -5.47798e-06 -6.93623e-06     -67.0229 
           0      20.4475 -5.37966e-06 -6.87441e-06     -67.0219 
           0      20.5864 -5.30966e-06 -6.81575e-06     -67.0208 
           0      20.7257 -5.25241e-06  -6.7243e-06     -67.0197 
           0      20.8655 -4.91092e-06 -6.49141e-06     -67.0186 
           0      21.0058 -4.68624e-06 -6.28744e-06     -67.0175 
           0      21.1465 -4.57945e-06 -6.13577e-06     -67.0164 
           0      21.2877 -4.54642e-06 -6.03656e-06     -67.0153 
           0      21.4294 -4.55356e-06  -5.9855e-06     -67.0141 
           0      21.5716 -4.57686e-06 -5.97548e-06      -67.013 
           0      21.7142 -4.60035e-06 -5.99713e-06     -67.0118 
           0      21.8573 -4.61495e-06 -6.03991e-06     -67.0106 
           0      22.0008  -4.6171e-06 -6.09272e-06     -67.0094 
           0      22.1449 -4.60759e-06 -6.14491e-06     -67.0082 
           0      22.2893 -4.59042e-06 -6.18662e-06      -67.007 
           0      22.4344 -4.57165e-06 -6.20959e-06     -67.0058 
           0      22.5797 -4.55849e-06 -6.20745e-06     -67.0045 
           0      22.7257 -4.55822e-06 -6.17614e-06     -67.0032 
           0      22.8721 -4.57745e-06 -6.11413e-06      -67.002 
           0      23.0189 -4.62124e-06 -6.02269e-06     -67.0007 
           0      23.1663 -4.69259e-06 -5.90546e-06     -66.9994 
           0       23.314 -4.79163e-06 -5.76894e-06     -66.9981 
           0      23.4623 -4.91558e-06 -5.62138e-06     -66.9967 
           0       23.611 -5.07004e-06 -5.47161e-06     -66.9954 
           0      23.7602 -5.27505e-06 -5.33876e-06      -66.994 
           0        23.91  -5.4848e-06 -5.24933e-06     -66.9927 
           0        24.06 -5.68025e-06 -5.21512e-06     -66.9913 
           0      24.2107 -5.84362e-06 -5.24113e-06     -66.9899 
           0      24.3617 -5.95883e-06 -5.32503e-06     -66.9885 
           0      24.5133  -6.0141e-06 -5.45697e-06     -66.9871 
           0      24.6653 -6.00321e-06 -5.61899e-06     -66.9856 
           0      24.8178 -5.92811e-06 -5.78594e-06     -66.9842 
           0      24.9708 -5.80138e-06 -5.92511e-06     -66.9827 
           0      25.1242 -5.64928e-06 -5.99746e-06     -66.9812 
           0      25.2781 -5.51444e-06 -5.95871e-06     -66.9797 
           0      25.4324 -5.46025e-06 -5.76067e-06     -66.9782 
           0      25.5873 -5.57415e-06 -5.35247e-06     -66.9767 
           0      25.7426 -5.97207e-06 -4.68422e-06     -66.9752 
           0      25.8984 -5.86805e-06 -4.89916e-06     -66.9736 
           0      26.0546 -5.48799e-06 -5.38783e-06     -66.9721 
           0      26.2114 -4.91889e-06 -6.07729e-06     -66.9705 
           0      26.3686 -4.54351e-06 -5.81269e-06     -66.9689 
           0      26.5262 -4.33337e-06 -5.26784e-06     -66.9673 
           0      26.6844 -4.19753e-06 -4.85261e-06     -66.9657 
           0      26.8429  -4.1364e-06 -4.53427e-06     -66.9641 
           0       27.002 -4.14935e-06 -4.28364e-06     -66.9624 
           0      27.1615 -4.23499e-06  -4.0769e-06     -66.9608 
           0      27.3216 -4.39116e-06 -3.89356e-06     -66.9591 
           0      27.4821 -4.61453e-06 -3.71733e-06     -66.9574 
           0       27.643 -4.90052e-06 -3.53535e-06     -66.9557 
           0      27.8044 -5.24416e-06 -3.33737e-06      -66.954 
           0      27.9663 -5.63834e-06 -3.11655e-06     -66.9523 
           0      28.1287 -5.71594e-06 -3.23224e-06     -66.9505 
           0      28.2914 -5.64459e-06   -3.447e-06     -66.9488 
           0      28.4548 -5.55625e-06  -3.6255e-06      -66.947 
           0      28.6185 -5.45684e-06  -3.7696e-06     -66.9452 
           0      28.7828 -5.35123e-06 -3.88182e-06     -66.9434 
           0      28.9475 -5.24381e-06 -3.96453e-06     -66.9416 
           0      29.1126 -5.13844e-06 -4.02038e-06     -66.9398 
           0      29.2784 -5.03819e-06 -4.05233e-06     -66.9379 
           0      29.4444 -4.94602e-06 -4.06337e-06     -66.9361 
           0       29.611  -4.8642e-06 -4.05673e-06     -66.9342 
           0       29.778 -4.79491e-06 -4.03574e-06     -66.9323 
           0      29.9456 -4.73976e-06 -4.00377e-06     -66.9304 
           0      30.1137 -4.70019e-06 -3.96426e-06     -66.9285 
           0      30.2821 -4.67722e-06 -3.92062e-06     -66.9266 
           0      30.4511 -4.67144e-06 -3.87603e-06     -66.9246 
           0      30.6204 -4.68302e-06 -3.83356e-06     -66.9227 
           0      30.7903  -4.7116e-06 -3.79581e-06     -66.9207 
           0      30.9606 -4.75612e-06 -3.76504e-06     -66.9187 
           0      31.1315 -4.81488e-06 -3.74277e-06     -66.9167 
           0      31.3028 -4.88512e-06 -3.72983e-06     -66.9147 
           0      31.4745 -4.96297e-06 -3.72606e-06     -66.9127 
           0      31.6468 -5.04343e-06 -3.73012e-06     -66.9106 
           0      31.8194 -5.11969e-06 -3.73934e-06     -66.9086 
           0      31.9926 -5.18335e-06  -3.7494e-06     -66.9065 
           0      32.1662  -5.2237e-06 -3.75413e-06     -66.9044 
           0      32.3404 -5.22769e-06  -3.7452e-06     -66.9023 
           0      32.5149  -5.1794e-06 -3.71182e-06     -66.9002 
           0        32.69 -5.05956e-06 -3.64038e-06     -66.8981 
           0      32.8655 -4.84529e-06 -3.51414e-06     -66.8959 
           0      33.0414 -4.50982e-06 -3.31304e-06     -66.8937 
           0       33.218 -4.02083e-06 -3.01259e-06     -66.8916 
           0      33.3948 -4.08799e-06 -3.19448e-06     -66.8894 
           0      33.5723 -4.20458e-06  -3.3123e-06     -66.8872 
           0        33.75 -4.34269e-06 -3.36658e-06     -66.8849 
           0      33.9284 -4.49507e-06 -3.37609e-06     -66.8827 
           0      34.1073 -4.65308e-06 -3.35748e-06     -66.8805 
           0      34.2865 -4.80699e-06 -3.32539e-06     -66.8782 
           0      34.4663 -4.94632e-06 -3.29228e-06     -66.8759 
           0      34.6465   -5.059e-06 -3.26851e-06     -66.8736 
           0      34.8272 -5.13216e-06 -3.26215e-06     -66.8713 
           0      35.0083 -5.15138e-06 -3.27902e-06      -66.869 
           0        35.19 -5.10107e-06 -3.32266e-06     -66.8666 
           0      35.3721 -4.96413e-06 -3.39421e-06     -66.8643 
           0      35.5546 -4.72226e-06 -3.49233e-06     -66.8619 
           0      35.7377 -4.35492e-06  -3.6135e-06     -66.8595 
           0      35.9211 -3.84082e-06 -3.75138e-06     -66.8571 
           0      36.1052 -3.83146e-06 -3.80168e-06     -66.8547 
           0      36.2895 -4.24262e-06 -3.77359e-06     -66.8523 
           0      36.4745 -4.61717e-06 -3.73594e-06     -66.8499 
           0      36.6598 -4.94386e-06 -3.69344e-06     -66.8474 
           0      36.8457 -5.21571e-06 -3.64977e-06     -66.8449 
           0      37.0321 -5.42796e-06 -3.60783e-06     -66.8424 
           0      37.2188 -5.57879e-06  -3.5696e-06     -66.8399 
           0      37.4062 -5.66927e-06 -3.53607e-06     -66.8374 
           0      37.5938 -5.70238e-06 -3.50753e-06     -66.8349 
           0      37.7821  -5.6833e-06 -3.48333e-06     -66.8323 
           0      37.9707 -5.61887e-06  -3.4622e-06     -66.8298 
           0      38.1599 -5.51726e-06 -3.44216e-06     -66.8272 
           0      38.3496 -5.38779e-06 -3.42078e-06     -66.8246 
           0      38.5396 -5.24061e-06 -3.39524e-06      -66.822 
           0      38.7302 -5.08583e-06 -3.36248e-06     -66.8194 
           0      38.9211 -4.93394e-06  -3.3195e-06     -66.8167 
           0      39.1127 -4.79445e-06 -3.26338e-06     -66.8141 
           0      39.3046 -4.67638e-06 -3.19184e-06     -66.8114 
           0      39.4971 -4.58688e-06 -3.10309e-06     -66.8088 
           0      39.6899 -4.53153e-06 -2.99663e-06     -66.8061 
           0      39.8833 -4.51318e-06 -2.87303e-06     -66.8034 
           0      40.0772 -4.53182e-06 -2.73483e-06     -66.8006 
           0      40.2714 -4.58369e-06 -2.58676e-06     -66.7979 
           0      40.4663 -4.66096e-06 -2.43576e-06     -66.7951 
           0      40.6615 -4.75072e-06  -2.2923e-06     -66.7924 
           0      40.8573 -4.83475e-06 -2.16996e-06     -66.7896 
           0      41.0534 -4.88834e-06 -2.08681e-06     -66.7868 
           0      41.2501 -4.93549e-06 -2.11079e-06      -66.784 
           0      41.4473 -4.97783e-06 -2.13695e-06     -66.7812 
           0      41.6448 -5.00463e-06 -2.14172e-06     -66.7783 
           0      41.8429 -5.01808e-06 -2.13178e-06     -66.7755 
           0      42.0414 -5.02028e-06 -2.11262e-06     -66.7726 
           0      42.2405 -5.01331e-06 -2.08856e-06     -66.7697 
           0      42.4399 -4.99916e-06 -2.06305e-06     -66.7668 
           0      42.6399 -4.97964e-06 -2.03857e-06     -66.7639 
           0      42.8404 -4.95646e-06 -2.01693e-06      -66.761 
           0      43.0412 -4.93114e-06 -1.99928e-06      -66.758 
           0      43.2426 -4.90494e-06  -1.9862e-06     -66.7551 
           0      43.4444 -4.87896e-06 -1.97785e-06     -66.7521 
           0      43.6467 -4.85402e-06 -1.97401e-06     -66.7491 
           0      43.8494 -4.83074e-06 -1.97425e-06     -66.7461 
           0      44.0527 -4.80946e-06 -1.97791e-06     -66.7431 
           0      44.2563 -4.79035e-06 -1.98424e-06     -66.7401 
           0      44.4606  -4.7733e-06 -1.99246e-06     -66.7371 
           0      44.6653 -4.75806e-06  -2.0018e-06      -66.734 
           0      44.8704 -4.74419e-06 -2.01159e-06     -66.7309 
           0       45.076 -4.73111e-06 -2.02128e-06     -66.7279 
           0       45.282 -4.71818e-06 -2.03048e-06     -66.7248 
           0      45.4886 -4.70468e-06 -2.03903e-06     -66.7217 
           0      45.6955 -4.68996e-06 -2.04694e-06     -66.7185 
           0       45.903 -4.67342e-06  -2.0545e-06     -66.7154 
           0      46.1111 -4.65465e-06 -2.06222e-06     -66.7123 
           0      46.3194 -4.63352e-06 -2.07083e-06     -66.7091 
           0      46.5283 -4.61018e-06 -2.08129e-06     -66.7059 
           0      46.7376 -4.58534e-06  -2.0947e-06     -66.7027 
           0      46.9475 -4.56018e-06 -2.11236e-06     -66.6995 
           0      47.1577 -4.53669e-06 -2.13557e-06     -66.6963 
           0      47.3685 -4.51761e-06 -2.16573e-06     -66.6931 
           0      47.5798 -4.50676e-06 -2.20413e-06     -66.6898 
           0      47.7914 -4.50909e-06 -2.25184e-06     -66.6866 
           0      48.0037 -4.53089e-06 -2.30981e-06     -66.6833 