Variables = x, y, u, v, p

Zone, I=800, F=POINT
         350            0           -0           -0      36.0104 
         350     0.000234 -1.63182e-06 -9.76079e-12      36.0104 
         350     0.000939 -6.37269e-06 -1.57522e-10      36.0104 
         350     0.002113 -1.37229e-05 -7.98727e-10      36.0104 
         350     0.003759 -2.30143e-05 -2.53176e-09      36.0104 
         350     0.005872 -3.34911e-05  -6.1895e-09      36.0104 
         350     0.008457 -4.45707e-05 -1.28661e-08      36.0104 
         350      0.01151 -5.58746e-05 -2.38889e-08      36.0104 
         350     0.015036 -6.73614e-05 -4.08715e-08      36.0104 
         350     0.019031 -7.92198e-05 -6.56507e-08      36.0104 
         350     0.023493 -9.17807e-05 -1.00316e-07      36.0104 
         350     0.028429 -0.000105345 -1.47291e-07      36.0104 
         350     0.033831 -0.000119934 -2.09118e-07      36.0104 
         350     0.039706 -0.000135275 -2.88733e-07      36.0104 
         350     0.046047 -0.000150789 -3.89125e-07      36.0104 
         350     0.052863 -0.000165925 -5.13733e-07      36.0104 
         350      0.06015 -0.000180482 -6.65987e-07      36.0104 
         350       0.0679 -0.000194912 -8.49328e-07      36.0104 
         350     0.076126 -0.000209968 -1.06782e-06      36.0104 
         350     0.084816  -0.00022456 -1.32497e-06      36.0104 
         350     0.093982 -0.000237641 -1.62503e-06      36.0104 
         350     0.103611 -0.000250306 -1.97145e-06      36.0104 
         350     0.113718 -0.000262278 -2.36861e-06      36.0104 
         350     0.124286 -0.000273309  -2.8196e-06      36.0104 
         350     0.135333 -0.000283267 -3.32879e-06      36.0104 
         350      0.14685  -0.00029206 -3.89927e-06      36.0104 
         350     0.158827  -0.00029966 -4.53373e-06      36.0104 
         350     0.171284 -0.000306086  -5.2362e-06      36.0104 
         350     0.184201 -0.000311337 -6.00826e-06      36.0104 
         350     0.197599 -0.000315416 -6.85358e-06      36.0104 
         350     0.211455 -0.000318285 -7.77278e-06      36.0104 
         350     0.225792 -0.000319932 -8.76915e-06      36.0104 
         350       0.2406 -0.000320456 -9.84346e-06      36.0104 
         350     0.255865 -0.000320068 -1.09957e-05      36.0104 
         350     0.271613 -0.000318594 -1.22287e-05      36.0104 
         350     0.287818 -0.000316241 -1.35407e-05      36.0104 
         350     0.304506 -0.000313084 -1.49341e-05      36.0104 
         350      0.32165 -0.000309214 -1.64064e-05      36.0104 
         350     0.339278 -0.000304716 -1.79595e-05      36.0104 
         350     0.357377 -0.000299687  -1.9592e-05      36.0104 
         350      0.37593 -0.000294227 -2.13014e-05      36.0104 
         350     0.394968 -0.000288425 -2.30897e-05      36.0104 
         350     0.414461 -0.000282383  -2.4953e-05      36.0104 
         350      0.43444 -0.000276184 -2.68932e-05      36.0104 
         350     0.454872 -0.000269926 -2.89059e-05      36.0104 
         350     0.475791 -0.000263679  -3.0993e-05      36.0104 
         350     0.497163 -0.000257531 -3.31499e-05      36.0104 
         350     0.519021 -0.000251543 -3.53785e-05      36.0104 
         350      0.54135 -0.000245785  -3.7676e-05      36.0104 
         350     0.564131 -0.000240321 -4.00392e-05      36.0104 
         350       0.5874   -0.0002352 -4.24707e-05      36.0104 
         350     0.611121 -0.000230486 -4.49657e-05      36.0104 
         350      0.63533 -0.000226209 -4.75264e-05      36.0104 
         350      0.65999 -0.000222382 -5.01459e-05      36.0104 
         350     0.685139 -0.000219036 -5.28273e-05      36.0104 
         350     0.710759   -0.0002162 -5.55677e-05      36.0104 
         350     0.736828 -0.000213889 -5.83629e-05      36.0104 
         350     0.763387 -0.000212101 -6.12155e-05      36.0104 
         350     0.790396  -0.00021083 -6.41187e-05      36.0104 
         350     0.817896 -0.000210051  -6.7074e-05      36.0104 
         350     0.845843 -0.000209732 -7.00734e-05      36.0104 
         350     0.874283 -0.000209826 -7.31181e-05      36.0104 
         350      0.90317 -0.000210278  -7.6199e-05      36.0104 
         350     0.932551 -0.000211023 -7.93166e-05      36.0104 
         350     0.962401 -0.000211988 -8.24631e-05      36.0104 
         350     0.992697 -0.000213092 -8.56308e-05      36.0104 
         350      1.02349 -0.000214252 -8.88192e-05      36.0104 
         350      1.05472  -0.00021538 -9.20171e-05      36.0104 
         350      1.08645  -0.00021639 -9.52235e-05      36.0104 
         350      1.11863 -0.000217195 -9.84269e-05      36.0104 
         350       1.1513 -0.000217716 -0.000101626      36.0104 
         350      1.18444 -0.000217878 -0.000104812      36.0104 
         350      1.21802 -0.000217618 -0.000107975      36.0104 
         350      1.25211 -0.000216883 -0.000111115      36.0104 
         350      1.28663 -0.000215636 -0.000114221      36.0104 
         350      1.32165 -0.000213854 -0.000117291      36.0104 
         350      1.35712 -0.000211536 -0.000120317      36.0104 
         350      1.39308 -0.000208691 -0.000123299      36.0104 
         350      1.42951 -0.000205355  -0.00012623      36.0104 
         350      1.46638  -0.00020158 -0.000129107      36.0104 
         350      1.50375 -0.000197426 -0.000131931      36.0104 
         350      1.54156 -0.000192713 -0.000134679      36.0104 
         350      1.57987 -0.000187833 -0.000137374      36.0104 
         350      1.61863 -0.000182832 -0.000140008      36.0104 
         350      1.65788 -0.000177713 -0.000142583      36.0104 
         350      1.69757 -0.000172496 -0.000145089      36.0104 
         350      1.73776 -0.000167183 -0.000147528      36.0104 
         350      1.77842 -0.000161789 -0.000149893      36.0104 
         350      1.81952 -0.000156326 -0.000152179      36.0104 
         350      1.86113 -0.000150795 -0.000154387      36.0104 
         350      1.90316 -0.000145212  -0.00015651      36.0104 
         350      1.94571 -0.000139577 -0.000158548      36.0104 
         350      1.98869 -0.000133904 -0.000160495      36.0104 
         350      2.03217 -0.000128191 -0.000162352      36.0104 
         350      2.07612 -0.000122448 -0.000164113      36.0104 
         350      2.12051 -0.000116687 -0.000165776      36.0104 
         350       2.1654 -0.000110904  -0.00016734      36.0104 
         350      2.21073 -0.000105112 -0.000168801      36.0104 
         350      2.25656 -9.93099e-05 -0.000170159      36.0104 
         350      2.30283 -9.35109e-05 -0.000171411      36.0104 
         350       2.3496 -8.77124e-05 -0.000172556      36.0104 
         350      2.39685 -8.19255e-05 -0.000173592      36.0104 
         350      2.44452 -7.61616e-05 -0.000174517      36.0104 
         350      2.49271 -7.04193e-05 -0.000175331      36.0104 
         350      2.54132 -6.47158e-05 -0.000176032      36.0104 
         350      2.59044  -5.9051e-05 -0.000176621      36.0104 
         350         2.64 -5.34439e-05 -0.000177095      36.0104 
         350      2.69006 -4.78963e-05 -0.000177455      36.0104 
         350      2.74056 -4.24287e-05 -0.000177701      36.0104 
         350      2.79156  -3.7045e-05 -0.000177832      36.0104 
         350      2.84304 -3.17627e-05  -0.00017785      36.0104 
         350      2.89494    -2.66e-05 -0.000177755      36.0104 
         350      2.94735  -2.1563e-05 -0.000177548      36.0104 
         350       3.0002 -1.66747e-05  -0.00017723      36.0104 
         350      3.05355  -1.1942e-05 -0.000176804      36.0104 
         350      3.10733 -7.38664e-06 -0.000176273      36.0104 
         350      3.16163 -3.01482e-06 -0.000175638      36.0104 
         350      3.21639  1.15781e-06 -0.000174904      36.0104 
         350      3.27158   5.1185e-06 -0.000174076      36.0104 
         350      3.32729  8.86688e-06 -0.000173159      36.0104 
         350      3.38342  1.23944e-05 -0.000172159      36.0104 
         350      3.44007   1.5709e-05 -0.000171083      36.0104 
         350      3.49714  1.88144e-05 -0.000169942      36.0104 
         350      3.55472  2.17324e-05 -0.000168743      36.0104 
         350      3.61273   2.4485e-05 -0.000167501      36.0104 
         350      3.67125  2.71145e-05 -0.000166227      36.0104 
         350      3.73025  2.96706e-05 -0.000164937      36.0104 
         350      3.78967  3.19483e-05 -0.000163418      36.0104 
         350      3.84961  3.39622e-05 -0.000161809      36.0104 
         350      3.90996  3.58096e-05 -0.000160215      36.0104 
         350      3.97084  3.74909e-05 -0.000158616      36.0104 
         350      4.03214  3.90027e-05 -0.000157004      36.0104 
         350      4.09395  4.03479e-05 -0.000155368      36.0104 
         350      4.15624  4.15271e-05 -0.000153706      36.0104 
         350      4.21895  4.25428e-05 -0.000152018      36.0104 
         350      4.28217  4.34009e-05 -0.000150304      36.0104 
         350      4.34582  4.41052e-05  -0.00014857      36.0104 
         350      4.40998  4.46632e-05 -0.000146817      36.0104 
         350      4.47457  4.50811e-05 -0.000145056      36.0104 
         350      4.53968  4.53671e-05 -0.000143289      36.0104 
         350      4.60525  4.55291e-05 -0.000141526      36.0104 
         350      4.67125  4.55759e-05 -0.000139772      36.0104 
         350      4.73777  4.55166e-05 -0.000138031      36.0104 
         350       4.8047  4.53603e-05 -0.000136309      36.0104 
         350      4.87216  4.51161e-05 -0.000134607      36.0104 
         350      4.94003  4.47936e-05 -0.000132928      36.0104 
         350      5.00843  4.44013e-05 -0.000131269      36.0104 
         350      5.07724  4.39489e-05 -0.000129631      36.0104 
         350      5.14658  4.34441e-05 -0.000128006      36.0104 
         350      5.21639  4.28956e-05 -0.000126391      36.0104 
         350      5.28661  4.23118e-05 -0.000124782      36.0104 
         350      5.35736  4.16991e-05 -0.000123171      36.0104 
         350      5.42852  4.10659e-05 -0.000121556      36.0104 
         350      5.50021  4.04179e-05 -0.000119933      36.0104 
         350      5.57231  3.97626e-05 -0.000118303      36.0104 
         350      5.64493  3.91057e-05 -0.000116672      36.0104 
         350      5.71803  3.84359e-05 -0.000115067      36.0104 
         350      5.79154  3.77309e-05 -0.000113527      36.0104 
         350      5.86558  3.70475e-05 -0.000112037      36.0104 
         350      5.94003   3.6408e-05  -0.00011061      36.0104 
         350      6.01501  3.56738e-05  -0.00010912      36.0104 
         350       6.0904  3.49099e-05 -0.000107584      36.0104 
         350      6.16632  3.41761e-05  -0.00010607      36.0104 
         350      6.24271  3.34723e-05 -0.000104557      36.0104 
         350       6.3195  3.27998e-05 -0.000102967      36.0104 
         350      6.39683   3.2121e-05 -0.000101437      36.0104 
         350      6.47457  3.14438e-05 -9.99583e-05      36.0104 
         350      6.55284  3.07719e-05 -9.85167e-05      36.0104 
         350      6.63152  3.01091e-05 -9.71056e-05      36.0104 
         350      6.71073  2.94559e-05  -9.5715e-05      36.0104 
         350      6.79034  2.88132e-05 -9.43405e-05      36.0104 
         350      6.87049  2.81793e-05 -9.29748e-05      36.0104 
         350      6.95111  2.75532e-05 -9.16152e-05      36.0104 
         350      7.03214  2.69333e-05 -9.02602e-05      36.0104 
         350       7.1137  2.63167e-05 -8.89063e-05      36.0104 
         350      7.19566  2.57023e-05 -8.75553e-05      36.0104 
         350      7.27816  2.50875e-05 -8.62058e-05      36.0104 
         350      7.36106  2.44718e-05 -8.48613e-05      36.0104 
         350      7.44451  2.38537e-05 -8.35221e-05      36.0104 
         350      7.52842  2.32333e-05 -8.21917e-05      36.0104 
         350      7.61273   2.2612e-05 -8.08741e-05      36.0104 
         350      7.69758  2.19899e-05 -7.95703e-05      36.0104 
         350      7.78283  2.13698e-05 -7.82849e-05      36.0104 
         350      7.86862   2.0753e-05 -7.70181e-05      36.0104 
         350      7.95481   2.0143e-05  -7.5773e-05      36.0104 
         350      8.04155  1.95412e-05 -7.45475e-05      36.0104 
         350      8.12868  1.89504e-05 -7.33418e-05      36.0104 
         350      8.21635  1.83703e-05 -7.21498e-05      36.0104 
         350      8.30449  1.78009e-05 -7.09659e-05      36.0104 
         350      8.39303  1.72392e-05 -6.97809e-05      36.0104 
         350      8.48211  1.66782e-05 -6.85791e-05      36.0104 
         350      8.57159   1.6108e-05  -6.7344e-05      36.0104 
         350      8.66161  1.55117e-05 -6.60499e-05      36.0104 
         350      8.75203  1.49649e-05 -6.51086e-05      36.0104 
         350      8.84299  1.44296e-05 -6.41283e-05      36.0104 
         350      8.93443  1.39016e-05 -6.30982e-05      36.0104 
         350      9.02626  1.33821e-05 -6.20421e-05      36.0104 
         350      9.11863  1.28703e-05 -6.09761e-05      36.0104 
         350      9.21139  1.23666e-05  -5.9915e-05      36.0104 
         350      9.30471  1.18693e-05 -5.88666e-05      36.0104 
         350      9.39841  1.13781e-05 -5.78388e-05      36.0104 
         350      9.49267  1.08913e-05 -5.68333e-05      36.0104 
         350      9.58739   1.0408e-05 -5.58523e-05      36.0104 
         350      9.68251  9.92779e-06  -5.4896e-05      36.0104 
         350      9.77817  9.44937e-06 -5.39616e-05      36.0104 
         350      9.87422  8.97321e-06 -5.30483e-05      36.0104 
         350      9.97083  8.49872e-06 -5.21518e-05      36.0104 
         350      10.0678   8.0272e-06 -5.12712e-05      36.0104 
         350      10.1654  7.55889e-06 -5.04025e-05      36.0104 
         350      10.2633  7.09588e-06 -4.95452e-05      36.0104 
         350      10.3618  6.63904e-06 -4.86966e-05      36.0104 
         350      10.4607  6.19054e-06 -4.78564e-05      36.0104 
         350      10.5601  5.75253e-06 -4.70248e-05      36.0104 
         350        10.66   5.3259e-06 -4.62004e-05      36.0104 
         350      10.7603  4.91245e-06 -4.53842e-05      36.0104 
         350      10.8611  4.51184e-06 -4.45742e-05      36.0104 
         350      10.9623  4.12389e-06 -4.37695e-05      36.0104 
         350      11.0641  3.74553e-06 -4.29652e-05      36.0104 
         350      11.1663  3.37251e-06 -4.21551e-05      36.0104 
         350       11.269  2.99784e-06 -4.13292e-05      36.0104 
         350      11.3721  2.56638e-06  -4.0587e-05      36.0104 
         350      11.4757  2.08298e-06 -3.99698e-05      36.0104 
         350      11.5798  1.61709e-06 -3.93485e-05      36.0104 
         350      11.6844  1.18203e-06 -3.87331e-05      36.0104 
         350      11.7894  7.97723e-07 -3.81226e-05      36.0104 
         350       11.895  5.87234e-07 -3.73309e-05      36.0104 
         350      12.0009  4.18465e-07 -3.65127e-05      36.0104 
         350      12.1073  2.05281e-07  -3.5789e-05      36.0104 
         350      12.2142  -5.5271e-08 -3.51531e-05      36.0104 
         350      12.3216 -3.94414e-07  -3.4546e-05      36.0104 
         350      12.4294 -8.12767e-07 -3.38789e-05      36.0104 
         350      12.5378 -1.23155e-06 -3.32201e-05      36.0104 
         350      12.6465 -1.63991e-06 -3.25758e-05      36.0104 
         350      12.7558 -2.03172e-06 -3.19479e-05      36.0104 
         350      12.8656 -2.40269e-06 -3.13381e-05      36.0104 
         350      12.9757 -2.75096e-06  -3.0747e-05      36.0104 
         350      13.0864 -3.07731e-06 -3.01724e-05      36.0104 
         350      13.1975 -3.38279e-06 -2.96135e-05      36.0104 
         350      13.3092 -3.67041e-06 -2.90673e-05      36.0104 
         350      13.4212 -3.94273e-06 -2.85321e-05      36.0104 
         350      13.5338 -4.20339e-06 -2.80051e-05      36.0104 
         350      13.6468 -4.45525e-06 -2.74845e-05      36.0104 
         350      13.7603 -4.70084e-06 -2.69695e-05      36.0104 
         350      13.8743 -4.94271e-06 -2.64582e-05      36.0104 
         350      13.9886 -5.18195e-06 -2.59515e-05      36.0104 
         350      14.1036 -5.41974e-06  -2.5449e-05      36.0104 
         350      14.2189 -5.65582e-06 -2.49529e-05      36.0104 
         350      14.3348 -5.89016e-06 -2.44645e-05      36.0104 
         350       14.451 -6.12168e-06  -2.3987e-05      36.0104 
         350      14.5678 -6.35007e-06 -2.35228e-05      36.0104 
         350      14.6851 -6.57496e-06 -2.30752e-05      36.0104 
         350      14.8028 -6.79702e-06 -2.26474e-05      36.0104 
         350       14.921  -7.0192e-06  -2.2241e-05      36.0104 
         350      15.0396 -7.24634e-06 -2.18576e-05      36.0104 
         350      15.1588 -7.48205e-06 -2.14507e-05      36.0104 
         350      15.2783 -7.66938e-06 -2.07916e-05      36.0104 
         350      15.3984 -7.85758e-06 -2.03028e-05      36.0104 
         350       15.519 -8.07225e-06 -1.99351e-05      36.0104 
         350        15.64 -8.32525e-06 -1.96242e-05      36.0104 
         350      15.7615 -8.61334e-06  -1.9304e-05      36.0104 
         350      15.8834 -8.91588e-06 -1.89271e-05      36.0104 
         350      16.0058 -9.19675e-06  -1.8485e-05      36.0104 
         350      16.1286 -9.40407e-06 -1.80392e-05      36.0104 
         350       16.252 -9.47459e-06 -1.77522e-05      36.0104 
         350      16.3759 -9.54213e-06 -1.75729e-05      36.0104 
         350      16.5002 -9.79149e-06  -1.7114e-05      36.0104 
         350       16.625 -9.98876e-06 -1.67027e-05      36.0104 
         350      16.7501 -1.01494e-05 -1.63286e-05      36.0104 
         350      16.8759 -1.02865e-05 -1.59821e-05      36.0104 
         350       17.002 -1.04098e-05 -1.56565e-05      36.0104 
         350      17.1287 -1.05273e-05 -1.53456e-05      36.0104 
         350      17.2557 -1.06442e-05 -1.50456e-05      36.0104 
         350      17.3834 -1.07642e-05 -1.47531e-05      36.0104 
         350      17.5115 -1.08894e-05 -1.44664e-05      36.0104 
         350      17.6399 -1.10202e-05 -1.41847e-05      36.0104 
         350       17.769 -1.11565e-05 -1.39075e-05      36.0104 
         350      17.8984 -1.12966e-05 -1.36355e-05      36.0104 
         350      18.0284  -1.1439e-05  -1.3369e-05      36.0104 
         350      18.1587  -1.1581e-05 -1.31092e-05      36.0104 
         350      18.2896 -1.17204e-05 -1.28568e-05      36.0104 
         350       18.421 -1.18546e-05 -1.26125e-05      36.0104 
         350      18.5528 -1.19809e-05 -1.23768e-05      36.0104 
         350      18.6851 -1.20977e-05 -1.21491e-05      36.0104 
         350      18.8178 -1.22029e-05 -1.19286e-05      36.0104 
         350      18.9511 -1.22958e-05 -1.17128e-05      36.0104 
         350      19.0847 -1.23811e-05 -1.14955e-05      36.0104 
         350      19.2189 -1.25372e-05 -1.12279e-05      36.0104 
         350      19.3535 -1.27042e-05 -1.09498e-05      36.0104 
         350      19.4886 -1.28742e-05 -1.06675e-05      36.0104 
         350      19.6242  -1.3039e-05 -1.03873e-05      36.0104 
         350      19.7602 -1.31909e-05 -1.01144e-05      36.0104 
         350      19.8968 -1.33235e-05 -9.85174e-06      36.0104 
         350      20.0337 -1.34314e-05  -9.6021e-06      36.0104 
         350      20.1712 -1.35112e-05  -9.3657e-06      36.0104 
         350      20.3091 -1.35617e-05  -9.1419e-06      36.0104 
         350      20.4475  -1.3585e-05 -8.92759e-06      36.0104 
         350      20.5864 -1.35869e-05 -8.71838e-06      36.0104 
         350      20.7257 -1.35776e-05 -8.50796e-06      36.0104 
         350      20.8655 -1.35731e-05 -8.28767e-06      36.0104 
         350      21.0058 -1.35957e-05  -8.0476e-06      36.0104 
         350      21.1465 -1.36755e-05  -7.7753e-06      36.0104 
         350      21.2877 -1.38265e-05 -7.62378e-06      36.0104 
         350      21.4294 -1.39577e-05 -7.56393e-06      36.0104 
         350      21.5716 -1.40634e-05 -7.47736e-06      36.0104 
         350      21.7142 -1.41522e-05 -7.36613e-06      36.0104 
         350      21.8573 -1.42314e-05 -7.23438e-06      36.0104 
         350      22.0008 -1.43063e-05 -7.08823e-06      36.0104 
         350      22.1449 -1.43811e-05 -6.93413e-06      36.0104 
         350      22.2893 -1.44582e-05 -6.77906e-06      36.0104 
         350      22.4344 -1.45392e-05  -6.6289e-06      36.0104 
         350      22.5797  -1.4624e-05 -6.48875e-06      36.0104 
         350      22.7257 -1.47118e-05 -6.36152e-06      36.0104 
         350      22.8721 -1.48009e-05 -6.24825e-06      36.0104 
         350      23.0189 -1.48884e-05 -6.14732e-06      36.0104 
         350      23.1663 -1.49715e-05 -6.05404e-06      36.0104 
         350       23.314 -1.50467e-05 -5.96097e-06      36.0104 
         350      23.4623 -1.51103e-05 -5.85728e-06      36.0104 
         350       23.611 -1.51537e-05 -5.76159e-06      36.0104 
         350      23.7602 -1.51668e-05 -5.70027e-06      36.0104 
         350        23.91 -1.51648e-05 -5.62253e-06      36.0104 
         350        24.06 -1.51575e-05 -5.53092e-06      36.0104 
         350      24.2107  -1.5154e-05 -5.42885e-06      36.0104 
         350      24.3617 -1.51623e-05  -5.3209e-06      36.0104 
         350      24.5133 -1.51888e-05 -5.21191e-06      36.0104 
         350      24.6653  -1.5238e-05 -5.10707e-06      36.0104 
         350      24.8178 -1.53116e-05 -5.01066e-06      36.0104 
         350      24.9708 -1.54083e-05 -4.92572e-06      36.0104 
         350      25.1242 -1.55229e-05 -4.85274e-06      36.0104 
         350      25.2781 -1.56462e-05 -4.78823e-06      36.0104 
         350      25.4324 -1.57637e-05  -4.7237e-06      36.0104 
         350      25.5873 -1.58555e-05 -4.64343e-06      36.0104 
         350      25.7426 -1.58956e-05 -4.52309e-06      36.0104 
         350      25.8984 -1.58508e-05 -4.32685e-06      36.0104 
         350      26.0546 -1.56805e-05 -4.00585e-06      36.0104 
         350      26.2114  -1.5544e-05 -3.86323e-06      36.0104 
         350      26.3686  -1.5548e-05 -3.91513e-06      36.0104 
         350      26.5262   -1.557e-05  -3.9192e-06      36.0104 
         350      26.6844 -1.56042e-05 -3.89066e-06      36.0104 
         350      26.8429 -1.56462e-05 -3.84065e-06      36.0104 
         350       27.002 -1.56928e-05  -3.7766e-06      36.0104 
         350      27.1615 -1.57417e-05 -3.70293e-06      36.0104 
         350      27.3216 -1.57915e-05 -3.62119e-06      36.0104 
         350      27.4821 -1.58415e-05 -3.53093e-06      36.0104 
         350       27.643 -1.58914e-05 -3.43005e-06      36.0104 
         350      27.8044 -1.59413e-05 -3.31503e-06      36.0104 
         350      27.9663 -1.59918e-05 -3.18204e-06      36.0104 
         350      28.1287 -1.60434e-05 -3.02668e-06      36.0104 
         350      28.2914  -1.6097e-05 -2.84541e-06      36.0104 
         350      28.4548 -1.61533e-05 -2.63504e-06      36.0104 
         350      28.6185 -1.62034e-05 -2.42136e-06      36.0104 
         350      28.7828 -1.61545e-05 -2.48215e-06      36.0104 
         350      28.9475 -1.61281e-05 -2.48938e-06      36.0104 
         350      29.1126 -1.61184e-05 -2.45454e-06      36.0104 
         350      29.2784   -1.612e-05 -2.38881e-06      36.0104 
         350      29.4444 -1.61283e-05 -2.30296e-06      36.0104 
         350       29.611 -1.61396e-05 -2.20664e-06      36.0104 
         350       29.778 -1.61513e-05 -2.10854e-06      36.0104 
         350      29.9456 -1.61619e-05 -2.01565e-06      36.0104 
         350      30.1137 -1.61711e-05 -1.93352e-06      36.0104 
         350      30.2821 -1.61793e-05  -1.8659e-06      36.0104 
         350      30.4511 -1.61883e-05 -1.81454e-06      36.0104 
         350      30.6204 -1.61999e-05 -1.77946e-06      36.0104 
         350      30.7903 -1.62168e-05 -1.75873e-06      36.0104 
         350      30.9606  -1.6241e-05 -1.74878e-06      36.0104 
         350      31.1315  -1.6274e-05 -1.74445e-06      36.0104 
         350      31.3028 -1.63161e-05 -1.73933e-06      36.0104 
         350      31.4745 -1.63652e-05 -1.72611e-06      36.0104 
         350      31.6468 -1.64164e-05 -1.69693e-06      36.0104 
         350      31.8194 -1.64608e-05 -1.64403e-06      36.0104 
         350      31.9926 -1.64844e-05 -1.56017e-06      36.0104 
         350      32.1662 -1.64669e-05 -1.43969e-06      36.0104 
         350      32.3404 -1.65908e-05 -1.48541e-06      36.0104 
         350      32.5149   -1.667e-05 -1.53235e-06      36.0104 
         350        32.69 -1.66798e-05 -1.54179e-06      36.0104 
         350      32.8655 -1.66444e-05 -1.52363e-06      36.0104 
         350      33.0414 -1.65847e-05 -1.48672e-06      36.0104 
         350       33.218 -1.65187e-05 -1.43929e-06      36.0104 
         350      33.3948 -1.64627e-05 -1.38978e-06      36.0104 
         350      33.5723 -1.64313e-05 -1.34719e-06      36.0104 
         350        33.75 -1.64384e-05 -1.32197e-06      36.0104 
         350      33.9284 -1.64978e-05 -1.32632e-06      36.0104 
         350      34.1073 -1.66235e-05 -1.37499e-06      36.0104 
         350      34.2865 -1.68303e-05 -1.48561e-06      36.0104 
         350      34.4663 -1.68226e-05 -1.44216e-06      36.0104 
         350      34.6465 -1.67177e-05 -1.31715e-06      36.0104 
         350      34.8272  -1.6641e-05  -1.2052e-06      36.0104 
         350      35.0083 -1.65873e-05 -1.10576e-06      36.0104 
         350        35.19  -1.6552e-05 -1.01799e-06      36.0104 
         350      35.3721 -1.65311e-05 -9.41402e-07      36.0104 
         350      35.5546 -1.65212e-05  -8.7548e-07      36.0104 
         350      35.7377 -1.65195e-05 -8.19593e-07      36.0104 
         350      35.9211 -1.65236e-05  -7.7331e-07      36.0104 
         350      36.1052 -1.65315e-05 -7.36023e-07      36.0104 
         350      36.2895 -1.65416e-05 -7.07237e-07      36.0104 
         350      36.4745 -1.65528e-05 -6.86313e-07      36.0104 
         350      36.6598 -1.65641e-05 -6.72649e-07      36.0104 
         350      36.8457 -1.65749e-05 -6.65532e-07      36.0104 
         350      37.0321 -1.65848e-05 -6.64229e-07      36.0104 
         350      37.2188 -1.65933e-05  -6.6793e-07      36.0104 
         350      37.4062 -1.66006e-05 -6.75779e-07      36.0104 
         350      37.5938 -1.66065e-05 -6.86847e-07      36.0104 
         350      37.7821 -1.66112e-05  -7.0019e-07      36.0104 
         350      37.9707 -1.66149e-05 -7.14789e-07      36.0104 
         350      38.1599 -1.66177e-05 -7.29649e-07      36.0104 
         350      38.3496 -1.66198e-05 -7.43733e-07      36.0104 
         350      38.5396 -1.66215e-05 -7.56025e-07      36.0104 
         350      38.7302 -1.66229e-05 -7.65581e-07      36.0104 
         350      38.9211 -1.66243e-05 -7.71495e-07      36.0104 
         350      39.1127 -1.66257e-05 -7.72992e-07      36.0104 
         350      39.3046 -1.66273e-05  -7.6943e-07      36.0104 
         350      39.4971 -1.66291e-05 -7.60353e-07      36.0104 
         350      39.6899 -1.66312e-05 -7.45561e-07      36.0104 
         350      39.8833 -1.66336e-05 -7.25105e-07      36.0104 
         350      40.0772 -1.66364e-05 -6.99418e-07      36.0104 
         350      40.2714 -1.66396e-05 -6.69365e-07      36.0104 
         350      40.4663 -1.66433e-05 -6.36216e-07      36.0104 
         350      40.6615 -1.66477e-05 -6.01904e-07      36.0104 
         350      40.8573 -1.66532e-05 -5.68894e-07      36.0104 
         350      41.0534 -1.66603e-05 -5.40487e-07      36.0104 
         350      41.2501 -1.66696e-05 -5.20715e-07      36.0104 
         350      41.4473 -1.66823e-05 -5.14612e-07      36.0104 
         350      41.6448 -1.66997e-05 -5.28205e-07      36.0104 
         350      41.8429 -1.67235e-05 -5.68715e-07      36.0104 
         350      42.0414 -1.67561e-05 -6.44547e-07      36.0104 
         350      42.2405 -1.68005e-05 -7.65711e-07      36.0104 
         350      42.4399 -1.67811e-05 -7.84109e-07      36.0104 
         350      42.6399 -1.67316e-05 -7.20358e-07      36.0104 
         350      42.8404 -1.66918e-05 -6.44607e-07      36.0104 
         350      43.0412 -1.66646e-05 -5.65351e-07      36.0104 
         350      43.2426 -1.66505e-05 -4.89867e-07      36.0104 
         350      43.4444 -1.66477e-05  -4.2392e-07      36.0104 
         350      43.6467 -1.66512e-05 -3.70456e-07      36.0104 
         350      43.8494 -1.66526e-05 -3.29058e-07      36.0104 
         350      44.0527 -1.66394e-05 -2.94537e-07      36.0104 
         350      44.2563 -1.65946e-05 -2.56034e-07      36.0104 
         350      44.4606 -1.64956e-05 -1.95445e-07      36.0104 
         350      44.6653 -1.64725e-05 -2.21755e-07      36.0104 
         350      44.8704 -1.65193e-05 -3.09397e-07      36.0104 
         350       45.076  -1.6545e-05 -3.74753e-07      36.0104 
         350       45.282 -1.65551e-05 -4.20769e-07      36.0103 
         350      45.4886 -1.65551e-05  -4.5003e-07      36.0103 
         350      45.6955 -1.65499e-05  -4.6447e-07      36.0103 
         350       45.903 -1.65443e-05 -4.65586e-07      36.0103 
         350      46.1111 -1.65428e-05 -4.54344e-07      36.0103 
         350      46.3194 -1.65494e-05 -4.31277e-07      36.0103 
         350      46.5283 -1.65679e-05 -3.96402e-07      36.0103 
         350      46.7376 -1.66016e-05 -3.49389e-07      36.0103 
         350      46.9475 -1.66537e-05 -2.89362e-07      36.0103 
         350      47.1577 -1.67268e-05 -2.15212e-07      36.0103 
         350      47.3685 -1.68235e-05 -1.25234e-07      36.0103 
         350      47.5798  -1.6892e-05 -5.73153e-08      36.0103 
         350      47.7914 -1.68385e-05 -7.77604e-08      36.0103 
         350      48.0037 -1.67901e-05 -9.20898e-08      36.0103 