Variables = x, y, u, v, p

Zone, I=800, F=POINT
         300            0            0            0     -46.6755 
         300     0.000234 -8.16008e-07  1.67764e-11     -46.6755 
         300     0.000939 -2.97399e-06  2.76739e-10     -46.6755 
         300     0.002113  -5.6672e-06  1.40537e-09     -46.6755 
         300     0.003759 -7.87392e-06  4.44422e-09     -46.6755 
         300     0.005872 -8.70185e-06  1.08195e-08     -46.6755 
         300     0.008457 -7.75185e-06  2.23662e-08     -46.6755 
         300      0.01151 -5.30821e-06  4.12519e-08     -46.6755 
         300     0.015036 -2.30639e-06  7.00355e-08     -46.6755 
         300     0.019031 -5.28815e-08  1.11525e-07     -46.6755 
         300     0.023493  2.82119e-07  1.68791e-07     -46.6755 
         300     0.028429 -1.80269e-06  2.45264e-07     -46.6755 
         300     0.033831 -5.78956e-06  3.44339e-07     -46.6755 
         300     0.039706 -1.02592e-05   4.6979e-07     -46.6755 
         300     0.046047 -1.36084e-05  6.25187e-07     -46.6755 
         300     0.052863 -1.53315e-05  8.14486e-07     -46.6755 
         300      0.06015 -1.71748e-05  1.04129e-06     -46.6755 
         300       0.0679 -2.26815e-05  1.30886e-06     -46.6755 
         300     0.076126 -3.21854e-05  1.62103e-06     -46.6755 
         300     0.084816  -3.3474e-05  1.98044e-06     -46.6755 
         300     0.093982   -4.301e-05  2.39039e-06     -46.6755 
         300     0.103611 -5.16695e-05  2.85272e-06     -46.6755 
         300     0.113718 -6.02972e-05  3.37012e-06     -46.6755 
         300     0.124286 -6.94413e-05  3.94324e-06     -46.6755 
         300     0.135333 -7.93862e-05  4.57405e-06     -46.6755 
         300      0.14685 -9.01223e-05  5.26257e-06     -46.6755 
         300     0.158827 -0.000101439   6.0081e-06     -46.6755 
         300     0.171284 -0.000113066  6.81126e-06     -46.6755 
         300     0.184201 -0.000124742  7.66964e-06     -46.6755 
         300     0.197599 -0.000136395  8.58297e-06     -46.6755 
         300     0.211455 -0.000148095  9.54758e-06     -46.6755 
         300     0.225792 -0.000159983  1.05625e-05     -46.6755 
         300       0.2406 -0.000171754  1.16243e-05     -46.6755 
         300     0.255865 -0.000182634  1.27288e-05     -46.6755 
         300     0.271613 -0.000193507  1.38742e-05     -46.6755 
         300     0.287818 -0.000203807  1.50552e-05     -46.6755 
         300     0.304506 -0.000213498  1.62702e-05     -46.6755 
         300      0.32165 -0.000222514  1.75135e-05     -46.6755 
         300     0.339278 -0.000230827  1.87838e-05     -46.6755 
         300     0.357377 -0.000238393  2.00765e-05     -46.6755 
         300      0.37593 -0.000245175  2.13872e-05     -46.6755 
         300     0.394968 -0.000251165   2.2715e-05     -46.6755 
         300     0.414461 -0.000256341   2.4055e-05     -46.6755 
         300      0.43444  -0.00026071   2.5407e-05     -46.6755 
         300     0.454872 -0.000264272  2.67666e-05     -46.6755 
         300     0.475791 -0.000267051  2.81343e-05     -46.6755 
         300     0.497163 -0.000269068  2.95066e-05     -46.6755 
         300     0.519021 -0.000270359  3.08844e-05     -46.6755 
         300      0.54135 -0.000270958   3.2266e-05     -46.6755 
         300     0.564131   -0.0002709  3.36492e-05     -46.6755 
         300       0.5874 -0.000270211  3.50354e-05     -46.6755 
         300     0.611121 -0.000268907  3.64213e-05     -46.6755 
         300      0.63533 -0.000267057  3.78128e-05     -46.6755 
         300      0.65999 -0.000264706  3.92049e-05     -46.6755 
         300     0.685139 -0.000261878  4.05996e-05     -46.6755 
         300     0.710759 -0.000258604  4.19955e-05     -46.6755 
         300     0.736828  -0.00025492  4.33909e-05     -46.6755 
         300     0.763387 -0.000250858  4.47875e-05     -46.6755 
         300     0.790396 -0.000246464  4.61821e-05     -46.6755 
         300     0.817896 -0.000241774  4.75761e-05     -46.6755 
         300     0.845843 -0.000236839  4.89659e-05     -46.6755 
         300     0.874283 -0.000231698  5.03524e-05     -46.6755 
         300      0.90317 -0.000226404  5.17318e-05     -46.6755 
         300     0.932551 -0.000220994  5.31046e-05     -46.6755 
         300     0.962401 -0.000215517  5.44674e-05     -46.6755 
         300     0.992697 -0.000210018  5.58172e-05     -46.6755 
         300      1.02349 -0.000204527  5.71538e-05     -46.6755 
         300      1.05472 -0.000199089  5.84725e-05     -46.6755 
         300      1.08645 -0.000193724  5.97731e-05     -46.6755 
         300      1.11863 -0.000188465  6.10507e-05     -46.6755 
         300       1.1513 -0.000183321  6.23049e-05     -46.6755 
         300      1.18444 -0.000178309  6.35321e-05     -46.6755 
         300      1.21802 -0.000173436  6.47292e-05     -46.6755 
         300      1.25211  -0.00016869  6.58959e-05     -46.6755 
         300      1.28663 -0.000164068  6.70286e-05     -46.6755 
         300      1.32165 -0.000159546   6.8128e-05     -46.6755 
         300      1.35712 -0.000155108  6.91916e-05     -46.6755 
         300      1.39308 -0.000150721  7.02213e-05     -46.6755 
         300      1.42951 -0.000146358  7.12171e-05     -46.6755 
         300      1.46638 -0.000141995  7.21806e-05     -46.6755 
         300      1.50375 -0.000137601  7.31166e-05     -46.6755 
         300      1.54156 -0.000133281  7.39905e-05     -46.6755 
         300      1.57987 -0.000128838  7.48328e-05     -46.6755 
         300      1.61863 -0.000124275  7.56422e-05     -46.6755 
         300      1.65788 -0.000119593  7.64175e-05     -46.6755 
         300      1.69757 -0.000114809  7.71549e-05     -46.6755 
         300      1.73776 -0.000109921  7.78533e-05     -46.6755 
         300      1.77842 -0.000104944    7.851e-05     -46.6754 
         300      1.81952 -9.98899e-05  7.91226e-05     -46.6754 
         300      1.86113 -9.47596e-05  7.96904e-05     -46.6754 
         300      1.90316 -8.95707e-05  8.02108e-05     -46.6754 
         300      1.94571 -8.43243e-05  8.06833e-05     -46.6754 
         300      1.98869 -7.90383e-05  8.11059e-05     -46.6754 
         300      2.03217 -7.37138e-05  8.14782e-05     -46.6754 
         300      2.07612  -6.8365e-05   8.1799e-05     -46.6754 
         300      2.12051 -6.30059e-05  8.20675e-05     -46.6754 
         300       2.1654  -5.7638e-05  8.22836e-05     -46.6754 
         300      2.21073 -5.22799e-05  8.24466e-05     -46.6754 
         300      2.25656 -4.69334e-05  8.25566e-05     -46.6754 
         300      2.30283 -4.16169e-05  8.26133e-05     -46.6754 
         300       2.3496 -3.63325e-05  8.26172e-05     -46.6754 
         300      2.39685 -3.10947e-05  8.25682e-05     -46.6754 
         300      2.44452  -2.5918e-05   8.2467e-05     -46.6754 
         300      2.49271 -2.08048e-05  8.23137e-05     -46.6754 
         300      2.54132 -1.57733e-05  8.21094e-05     -46.6754 
         300      2.59044  -1.0826e-05  8.18543e-05     -46.6754 
         300         2.64 -5.98136e-06  8.15496e-05     -46.6754 
         300      2.69006 -1.24208e-06  8.11955e-05     -46.6754 
         300      2.74056  3.37396e-06  8.07936e-05     -46.6754 
         300      2.79156  7.86373e-06   8.0344e-05     -46.6754 
         300      2.84304  1.22132e-05   7.9848e-05     -46.6754 
         300      2.89494   1.6409e-05  7.93069e-05     -46.6754 
         300      2.94735  2.04477e-05  7.87208e-05     -46.6754 
         300       3.0002   2.4313e-05  7.80915e-05     -46.6754 
         300      3.05355  2.80012e-05  7.74191e-05     -46.6754 
         300      3.10733  3.14972e-05  7.67054e-05     -46.6754 
         300      3.16163  3.47971e-05  7.59504e-05     -46.6754 
         300      3.21639  3.78894e-05  7.51555e-05     -46.6754 
         300      3.27158  4.07632e-05  7.43225e-05     -46.6754 
         300      3.32729  4.34153e-05  7.34512e-05     -46.6754 
         300      3.38342   4.5834e-05  7.25442e-05     -46.6754 
         300      3.44007  4.80163e-05  7.16013e-05     -46.6754 
         300      3.49714  4.99527e-05  7.06258e-05     -46.6754 
         300      3.55472  5.16413e-05  6.96178e-05     -46.6754 
         300      3.61273  5.30751e-05  6.85812e-05     -46.6754 
         300      3.67125  5.42536e-05   6.7517e-05     -46.6754 
         300      3.73025  5.51738e-05  6.64292e-05     -46.6754 
         300      3.78967  5.59254e-05  6.52668e-05     -46.6754 
         300      3.84961  5.64321e-05   6.4088e-05     -46.6754 
         300      3.90996  5.66756e-05  6.29041e-05     -46.6754 
         300      3.97084  5.66971e-05  6.16987e-05     -46.6754 
         300      4.03214   5.6538e-05  6.04705e-05     -46.6754 
         300      4.09395  5.62378e-05  5.92229e-05     -46.6754 
         300      4.15624  5.58328e-05  5.79676e-05     -46.6754 
         300      4.21895  5.53548e-05  5.67199e-05     -46.6754 
         300      4.28217  5.48279e-05  5.54936e-05     -46.6754 
         300      4.34582   5.4271e-05  5.43063e-05     -46.6754 
         300      4.40998  5.36941e-05   5.3171e-05     -46.6754 
         300      4.47457   5.3096e-05  5.19857e-05     -46.6754 
         300      4.53968  5.25145e-05  5.08256e-05     -46.6754 
         300      4.60525  5.19527e-05  4.97118e-05     -46.6754 
         300      4.67125  5.14089e-05  4.86452e-05     -46.6754 
         300      4.73777    5.088e-05  4.76241e-05     -46.6754 
         300       4.8047  5.03649e-05  4.66493e-05     -46.6754 
         300      4.87216  4.98616e-05  4.57181e-05     -46.6754 
         300      4.94003  4.93701e-05  4.48301e-05     -46.6754 
         300      5.00843    4.889e-05  4.39816e-05     -46.6754 
         300      5.07724  4.84233e-05  4.31712e-05     -46.6754 
         300      5.14658  4.79713e-05   4.2394e-05     -46.6754 
         300      5.21639  4.75372e-05  4.16467e-05     -46.6754 
         300      5.28661  4.71242e-05  4.09251e-05     -46.6754 
         300      5.35736  4.67345e-05  4.02229e-05     -46.6754 
         300      5.42852  4.63703e-05  3.95354e-05     -46.6754 
         300      5.50021  4.59922e-05   3.8858e-05     -46.6754 
         300      5.57231  4.55546e-05  3.82094e-05     -46.6754 
         300      5.64493  4.51305e-05  3.75887e-05     -46.6754 
         300      5.71803   4.4712e-05  3.69937e-05     -46.6754 
         300      5.79154  4.42918e-05   3.6421e-05     -46.6754 
         300      5.86558  4.38623e-05  3.58644e-05     -46.6754 
         300      5.94003  4.34178e-05  3.53172e-05     -46.6754 
         300      6.01501  4.29528e-05  3.47702e-05     -46.6754 
         300       6.0904  4.24649e-05  3.42174e-05     -46.6754 
         300      6.16632  4.19532e-05  3.36563e-05     -46.6754 
         300      6.24271  4.14223e-05  3.30969e-05     -46.6754 
         300       6.3195  4.08826e-05  3.25676e-05     -46.6754 
         300      6.39683  4.03514e-05  3.21237e-05     -46.6754 
         300      6.47457  3.97855e-05  3.16015e-05     -46.6754 
         300      6.55284  3.92089e-05  3.09586e-05     -46.6754 
         300      6.63152  3.86744e-05  3.04034e-05     -46.6754 
         300      6.71073  3.81562e-05  2.99065e-05     -46.6754 
         300      6.79034  3.76382e-05  2.94463e-05     -46.6754 
         300      6.87049   3.7109e-05  2.90053e-05     -46.6754 
         300      6.95111  3.65636e-05  2.85722e-05     -46.6754 
         300      7.03214  3.60015e-05  2.81396e-05     -46.6754 
         300       7.1137  3.54239e-05   2.7703e-05     -46.6754 
         300      7.19566   3.4836e-05  2.72616e-05     -46.6754 
         300      7.27816  3.42423e-05  2.68158e-05     -46.6754 
         300      7.36106  3.36495e-05  2.63684e-05     -46.6754 
         300      7.44451  3.30618e-05  2.59222e-05     -46.6754 
         300      7.52842  3.24841e-05  2.54808e-05     -46.6754 
         300      7.61273  3.19192e-05   2.5048e-05     -46.6754 
         300      7.69758  3.13668e-05  2.46256e-05     -46.6754 
         300      7.78283  3.08263e-05   2.4216e-05     -46.6754 
         300      7.86862  3.02931e-05  2.38185e-05     -46.6754 
         300      7.95481  2.97625e-05  2.34326e-05     -46.6754 
         300      8.04155  2.92267e-05  2.30545e-05     -46.6754 
         300      8.12868  2.86791e-05  2.26806e-05     -46.6754 
         300      8.21635   2.8112e-05  2.23041e-05     -46.6754 
         300      8.30449  2.75209e-05  2.19186e-05     -46.6754 
         300      8.39303  2.69053e-05  2.15168e-05     -46.6754 
         300      8.48211   2.6269e-05  2.10911e-05     -46.6754 
         300      8.57159  2.56378e-05  2.06421e-05     -46.6754 
         300      8.66161  2.53382e-05  2.04402e-05     -46.6754 
         300      8.75203      2.5e-05  2.04055e-05     -46.6754 
         300      8.84299  2.43021e-05  1.98818e-05     -46.6754 
         300      8.93443  2.36713e-05  1.94148e-05     -46.6754 
         300      9.02626  2.31312e-05  1.90723e-05     -46.6754 
         300      9.11863  2.26428e-05  1.88036e-05     -46.6754 
         300      9.21139  2.21782e-05  1.85708e-05     -46.6754 
         300      9.30471  2.17162e-05  1.83453e-05     -46.6754 
         300      9.39841  2.12444e-05  1.81085e-05     -46.6754 
         300      9.49267  2.07554e-05  1.78485e-05     -46.6754 
         300      9.58739  2.02501e-05  1.75581e-05     -46.6754 
         300      9.68251  1.97761e-05   1.7197e-05     -46.6754 
         300      9.77817  1.92838e-05    1.684e-05     -46.6754 
         300      9.87422  1.87822e-05   1.6494e-05     -46.6754 
         300      9.97083  1.82792e-05  1.61635e-05     -46.6754 
         300      10.0678  1.77832e-05  1.58528e-05     -46.6754 
         300      10.1654  1.72996e-05  1.55635e-05     -46.6754 
         300      10.2633  1.68334e-05  1.52967e-05     -46.6754 
         300      10.3618  1.63854e-05   1.5051e-05     -46.6753 
         300      10.4607  1.59551e-05  1.48241e-05     -46.6753 
         300      10.5601  1.55396e-05  1.46124e-05     -46.6753 
         300        10.66  1.51333e-05  1.44106e-05     -46.6753 
         300      10.7603  1.47308e-05  1.42135e-05     -46.6753 
         300      10.8611  1.43256e-05  1.40146e-05     -46.6753 
         300      10.9623  1.39144e-05  1.38083e-05     -46.6753 
         300      11.0641  1.34963e-05   1.3589e-05     -46.6753 
         300      11.1663  1.30777e-05  1.33534e-05     -46.6753 
         300       11.269  1.26745e-05  1.31002e-05     -46.6753 
         300      11.3721  1.23143e-05  1.28311e-05     -46.6753 
         300      11.4757  1.20429e-05  1.25532e-05     -46.6753 
         300      11.5798  1.19267e-05  1.22786e-05     -46.6753 
         300      11.6844  1.14747e-05  1.22073e-05     -46.6753 
         300      11.7894  1.10422e-05  1.20627e-05     -46.6753 
         300       11.895  1.06557e-05  1.18494e-05     -46.6753 
         300      12.0009  1.03232e-05   1.1582e-05     -46.6753 
         300      12.1073  9.98745e-06  1.13705e-05     -46.6753 
         300      12.2142   9.5455e-06  1.13744e-05     -46.6753 
         300      12.3216  9.15651e-06  1.13392e-05     -46.6753 
         300      12.4294  8.80694e-06  1.12704e-05     -46.6753 
         300      12.5378  8.48471e-06  1.11731e-05     -46.6753 
         300      12.6465  8.18121e-06  1.10521e-05     -46.6753 
         300      12.7558  7.88895e-06  1.09116e-05     -46.6753 
         300      12.8656  7.60302e-06  1.07557e-05     -46.6753 
         300      12.9757   7.3201e-06   1.0588e-05     -46.6753 
         300      13.0864  7.03754e-06  1.04115e-05     -46.6753 
         300      13.1975  6.75468e-06  1.02293e-05     -46.6753 
         300      13.3092  6.47087e-06  1.00436e-05     -46.6753 
         300      13.4212  6.18698e-06   9.8569e-06     -46.6753 
         300      13.5338  5.90346e-06   9.6706e-06     -46.6753 
         300      13.6468  5.62168e-06  9.48634e-06     -46.6753 
         300      13.7603  5.34308e-06  9.30541e-06     -46.6753 
         300      13.8743  5.06839e-06  9.12838e-06     -46.6753 
         300      13.9886  4.79902e-06  8.95611e-06     -46.6753 
         300      14.1036  4.53524e-06  8.78864e-06     -46.6753 
         300      14.2189  4.27779e-06  8.62633e-06     -46.6753 
         300      14.3348  4.02618e-06  8.46881e-06     -46.6753 
         300       14.451  3.78035e-06  8.31603e-06     -46.6753 
         300      14.5678  3.53905e-06   8.1673e-06     -46.6753 
         300      14.6851  3.30133e-06   8.0222e-06     -46.6753 
         300      14.8028  3.06603e-06   7.8802e-06     -46.6753 
         300       14.921  2.83144e-06  7.74041e-06     -46.6753 
         300      15.0396  2.59678e-06  7.60239e-06     -46.6753 
         300      15.1588    2.361e-06  7.46529e-06     -46.6753 
         300      15.2783  2.12462e-06  7.32883e-06     -46.6753 
         300      15.3984  1.88858e-06  7.19242e-06     -46.6753 
         300       15.519  1.65605e-06  7.05599e-06     -46.6753 
         300        15.64   1.4324e-06  6.91978e-06     -46.6753 
         300      15.7615  1.22526e-06  6.78398e-06     -46.6753 
         300      15.8834   1.0464e-06  6.64965e-06     -46.6753 
         300      16.0058  9.11293e-07  6.51785e-06     -46.6753 
         300      16.1286   8.4099e-07  6.39064e-06     -46.6753 
         300       16.252  8.13319e-07   6.2816e-06     -46.6753 
         300      16.3759  7.13253e-07  6.25749e-06     -46.6753 
         300      16.5002  5.90505e-07    6.259e-06     -46.6753 
         300       16.625  3.63512e-07  6.22149e-06     -46.6753 
         300      16.7501  1.00402e-08  6.09193e-06     -46.6753 
         300      16.8759  7.04418e-08  5.94705e-06     -46.6753 
         300       17.002 -1.17189e-07  5.87071e-06     -46.6753 
         300      17.1287 -4.28791e-07  5.81757e-06     -46.6753 
         300      17.2557 -7.33059e-07  5.77043e-06     -46.6752 
         300      17.3834 -7.71148e-07  5.80268e-06     -46.6752 
         300      17.5115  -8.3836e-07   5.7932e-06     -46.6752 
         300      17.6399 -9.29001e-07  5.75237e-06     -46.6752 
         300       17.769 -1.03818e-06  5.68898e-06     -46.6752 
         300      17.8984 -1.16124e-06  5.61059e-06     -46.6752 
         300      18.0284 -1.29441e-06  5.52328e-06     -46.6752 
         300      18.1587 -1.43402e-06  5.43223e-06     -46.6752 
         300      18.2896 -1.57731e-06  5.34127e-06     -46.6752 
         300       18.421 -1.72164e-06  5.25349e-06     -46.6752 
         300      18.5528 -1.86478e-06  5.17113e-06     -46.6752 
         300      18.6851 -2.00527e-06  5.09548e-06     -46.6752 
         300      18.8178 -2.14154e-06  5.02742e-06     -46.6752 
         300      18.9511  -2.2728e-06  4.96706e-06     -46.6752 
         300      19.0847 -2.39818e-06  4.91425e-06     -46.6752 
         300      19.2189 -2.51746e-06  4.86831e-06     -46.6752 
         300      19.3535 -2.63031e-06  4.82842e-06     -46.6752 
         300      19.4886 -2.73698e-06  4.79346e-06     -46.6752 
         300      19.6242 -2.83764e-06  4.76227e-06     -46.6752 
         300      19.7602 -2.93264e-06  4.73365e-06     -46.6752 
         300      19.8968 -3.02268e-06  4.70636e-06     -46.6752 
         300      20.0337 -3.10825e-06  4.67935e-06     -46.6752 
         300      20.1712  -3.1902e-06  4.65163e-06     -46.6752 
         300      20.3091 -3.26913e-06  4.62248e-06     -46.6752 
         300      20.4475 -3.34589e-06  4.59133e-06     -46.6752 
         300      20.5864 -3.42112e-06  4.55794e-06     -46.6752 
         300      20.7257 -3.49538e-06  4.52236e-06     -46.6752 
         300      20.8655 -3.56932e-06  4.48483e-06     -46.6752 
         300      21.0058 -3.64322e-06  4.44598e-06     -46.6752 
         300      21.1465 -3.71745e-06  4.40661e-06     -46.6752 
         300      21.2877 -3.79191e-06  4.36787e-06     -46.6752 
         300      21.4294 -3.86655e-06  4.33096e-06     -46.6752 
         300      21.5716  -3.9409e-06  4.29732e-06     -46.6752 
         300      21.7142 -4.01416e-06  4.26845e-06     -46.6752 
         300      21.8573 -4.08546e-06  4.24572e-06     -46.6752 
         300      22.0008 -4.15333e-06  4.23045e-06     -46.6752 
         300      22.1449 -4.21617e-06  4.22362e-06     -46.6752 
         300      22.2893  -4.2718e-06  4.22581e-06     -46.6752 
         300      22.4344 -4.31782e-06    4.237e-06     -46.6751 
         300      22.5797 -4.35125e-06  4.25636e-06     -46.6751 
         300      22.7257 -4.42632e-06  3.94296e-06     -46.6751 
         300      22.8721 -4.40078e-06  3.64516e-06     -46.6751 
         300      23.0189 -4.19902e-06  3.67131e-06     -46.6751 
         300      23.1663 -4.00486e-06  3.86775e-06     -46.6751 
         300       23.314 -4.11863e-06   3.7898e-06     -46.6751 
         300      23.4623 -4.28859e-06   3.8685e-06     -46.6751 
         300       23.611 -4.48349e-06  4.08036e-06     -46.6751 
         300      23.7602  -4.6604e-06  4.34444e-06     -46.6751 
         300        23.91 -4.70327e-06  4.18845e-06     -46.6751 
         300        24.06 -4.72853e-06  4.05998e-06     -46.6751 
         300      24.2107  -4.7401e-06  3.95724e-06     -46.6751 
         300      24.3617 -4.74153e-06  3.87837e-06     -46.6751 
         300      24.5133 -4.73603e-06  3.82082e-06     -46.6751 
         300      24.6653 -4.72649e-06  3.78198e-06     -46.6751 
         300      24.8178 -4.71539e-06  3.75892e-06     -46.6751 
         300      24.9708 -4.70492e-06  3.74865e-06     -46.6751 
         300      25.1242  -4.6969e-06  3.74814e-06     -46.6751 
         300      25.2781 -4.69279e-06   3.7544e-06     -46.6751 
         300      25.4324 -4.69373e-06  3.76456e-06     -46.6751 
         300      25.5873 -4.70052e-06  3.77593e-06     -46.6751 
         300      25.7426 -4.71366e-06  3.78604e-06     -46.6751 
         300      25.8984 -4.73333e-06  3.79275e-06     -46.6751 
         300      26.0546 -4.75941e-06  3.79421e-06     -46.6751 
         300      26.2114 -4.79157e-06  3.78896e-06     -46.6751 
         300      26.3686 -4.82918e-06  3.77593e-06     -46.6751 
         300      26.5262 -4.87137e-06  3.75448e-06     -46.6751 
         300      26.6844 -4.91718e-06  3.72435e-06      -46.675 
         300      26.8429 -4.96538e-06  3.68579e-06      -46.675 
         300       27.002 -5.01474e-06  3.63934e-06      -46.675 
         300      27.1615 -5.06382e-06  3.58606e-06      -46.675 
         300      27.3216  -5.1113e-06  3.52722e-06      -46.675 
         300      27.4821 -5.15576e-06   3.4645e-06      -46.675 
         300       27.643 -5.19584e-06  3.39985e-06      -46.675 
         300      27.8044 -5.23044e-06  3.33521e-06      -46.675 
         300      27.9663  -5.2585e-06  3.27282e-06      -46.675 
         300      28.1287 -5.27935e-06  3.21464e-06      -46.675 
         300      28.2914 -5.29256e-06  3.16271e-06      -46.675 
         300      28.4548 -5.29816e-06  3.11855e-06      -46.675 
         300      28.6185 -5.29665e-06   3.0834e-06      -46.675 
         300      28.7828 -5.28915e-06   3.0577e-06      -46.675 
         300      28.9475 -5.27743e-06  3.04115e-06      -46.675 
         300      29.1126 -5.26408e-06  3.03234e-06      -46.675 
         300      29.2784 -5.25254e-06  3.02856e-06      -46.675 
         300      29.4444  -5.2473e-06  3.02551e-06      -46.675 
         300       29.611 -5.25397e-06  3.01703e-06      -46.675 
         300       29.778 -5.27939e-06  2.99479e-06      -46.675 
         300      29.9456 -5.33189e-06  2.94787e-06      -46.675 
         300      30.1137 -5.42127e-06  2.86252e-06      -46.675 
         300      30.2821 -5.55892e-06  2.72179e-06      -46.675 
         300      30.4511 -5.60035e-06  2.69968e-06     -46.6749 
         300      30.6204 -5.59739e-06  2.74412e-06     -46.6749 
         300      30.7903 -5.60913e-06  2.77528e-06     -46.6749 
         300      30.9606  -5.6264e-06  2.79609e-06     -46.6749 
         300      31.1315 -5.64261e-06   2.8089e-06     -46.6749 
         300      31.3028 -5.65335e-06  2.81548e-06     -46.6749 
         300      31.4745 -5.65616e-06  2.81718e-06     -46.6749 
         300      31.6468 -5.65014e-06  2.81498e-06     -46.6749 
         300      31.8194 -5.63571e-06  2.80955e-06     -46.6749 
         300      31.9926 -5.61423e-06  2.80136e-06     -46.6749 
         300      32.1662 -5.58785e-06  2.79072e-06     -46.6749 
         300      32.3404 -5.55908e-06  2.77781e-06     -46.6749 
         300      32.5149 -5.53073e-06  2.76277e-06     -46.6749 
         300        32.69 -5.50549e-06  2.74566e-06     -46.6749 
         300      32.8655 -5.48587e-06  2.72654e-06     -46.6749 
         300      33.0414 -5.47393e-06  2.70547e-06     -46.6749 
         300       33.218 -5.47109e-06  2.68243e-06     -46.6749 
         300      33.3948 -5.47803e-06  2.65743e-06     -46.6749 
         300      33.5723 -5.49454e-06  2.63031e-06     -46.6749 
         300        33.75  -5.5194e-06  2.60088e-06     -46.6748 
         300      33.9284 -5.55037e-06  2.56866e-06     -46.6748 
         300      34.1073 -5.58405e-06  2.53298e-06     -46.6748 
         300      34.2865 -5.61591e-06  2.49278e-06     -46.6748 
         300      34.4663 -5.64039e-06  2.44643e-06     -46.6748 
         300      34.6465 -5.65077e-06  2.39181e-06     -46.6748 
         300      34.8272 -5.62048e-06  2.33894e-06     -46.6748 
         300      35.0083 -5.54738e-06   2.3229e-06     -46.6748 
         300        35.19 -5.50415e-06  2.30964e-06     -46.6748 
         300      35.3721 -5.48367e-06  2.29602e-06     -46.6748 
         300      35.5546 -5.47943e-06  2.27977e-06     -46.6748 
         300      35.7377 -5.48573e-06  2.25945e-06     -46.6748 
         300      35.9211 -5.49768e-06  2.23447e-06     -46.6748 
         300      36.1052 -5.51129e-06  2.20488e-06     -46.6748 
         300      36.2895 -5.52342e-06   2.1715e-06     -46.6748 
         300      36.4745 -5.53189e-06  2.13561e-06     -46.6748 
         300      36.6598 -5.53541e-06  2.09903e-06     -46.6748 
         300      36.8457  -5.5336e-06  2.06378e-06     -46.6747 
         300      37.0321 -5.52692e-06  2.03214e-06     -46.6747 
         300      37.2188 -5.51672e-06  2.00635e-06     -46.6747 
         300      37.4062 -5.50504e-06  1.98838e-06     -46.6747 
         300      37.5938 -5.49467e-06  1.97983e-06     -46.6747 
         300      37.7821 -5.48894e-06  1.98161e-06     -46.6747 
         300      37.9707 -5.49168e-06  1.99368e-06     -46.6747 
         300      38.1599 -5.50705e-06  2.01477e-06     -46.6747 
         300      38.3496 -5.53936e-06  2.04207e-06     -46.6747 
         300      38.5396 -5.59289e-06  2.07083e-06     -46.6747 
         300      38.7302 -5.62177e-06  2.03605e-06     -46.6747 
         300      38.9211 -5.64751e-06  2.00522e-06     -46.6747 
         300      39.1127 -5.66958e-06  1.98017e-06     -46.6747 
         300      39.3046  -5.6858e-06  1.95908e-06     -46.6747 
         300      39.4971 -5.69485e-06   1.9405e-06     -46.6747 
         300      39.6899 -5.69605e-06  1.92346e-06     -46.6746 
         300      39.8833 -5.68933e-06  1.90728e-06     -46.6746 
         300      40.0772 -5.67508e-06  1.89161e-06     -46.6746 
         300      40.2714 -5.65411e-06  1.87637e-06     -46.6746 
         300      40.4663  -5.6275e-06   1.8616e-06     -46.6746 
         300      40.6615 -5.59659e-06  1.84756e-06     -46.6746 
         300      40.8573 -5.56278e-06  1.83457e-06     -46.6746 
         300      41.0534 -5.52763e-06  1.82305e-06     -46.6746 
         300      41.2501 -5.49257e-06   1.8134e-06     -46.6746 
         300      41.4473 -5.45907e-06  1.80605e-06     -46.6746 
         300      41.6448 -5.42845e-06  1.80137e-06     -46.6746 
         300      41.8429 -5.40179e-06  1.79965e-06     -46.6746 
         300      42.0414 -5.38003e-06  1.80111e-06     -46.6746 
         300      42.2405  -5.3638e-06  1.80584e-06     -46.6746 
         300      42.4399  -5.3535e-06   1.8138e-06     -46.6745 
         300      42.6399 -5.34921e-06  1.82483e-06     -46.6745 
         300      42.8404 -5.35074e-06  1.83859e-06     -46.6745 
         300      43.0412 -5.35756e-06   1.8546e-06     -46.6745 
         300      43.2426  -5.3689e-06  1.87228e-06     -46.6745 
         300      43.4444  -5.3837e-06  1.89085e-06     -46.6745 
         300      43.6467  -5.4007e-06  1.90948e-06     -46.6745 
         300      43.8494 -5.41844e-06  1.92719e-06     -46.6745 
         300      44.0527 -5.43536e-06  1.94299e-06     -46.6745 
         300      44.2563 -5.44982e-06  1.95579e-06     -46.6745 
         300      44.4606 -5.46026e-06  1.96459e-06     -46.6745 
         300      44.6653 -5.46523e-06  1.96838e-06     -46.6745 
         300      44.8704 -5.46353e-06  1.96632e-06     -46.6745 
         300       45.076 -5.45433e-06  1.95773e-06     -46.6744 
         300       45.282 -5.43735e-06  1.94221e-06     -46.6744 
         300      45.4886 -5.41296e-06  1.91967e-06     -46.6744 
         300      45.6955 -5.38242e-06  1.89049e-06     -46.6744 
         300       45.903 -5.34801e-06  1.85554e-06     -46.6744 
         300      46.1111 -5.31329e-06  1.81635e-06     -46.6744 
         300      46.3194 -5.28338e-06  1.77528e-06     -46.6744 
         300      46.5283 -5.26503e-06  1.73544e-06     -46.6744 
         300      46.7376 -5.26713e-06  1.70114e-06     -46.6744 
         300      46.9475 -5.30082e-06  1.67773e-06     -46.6744 
         300      47.1577 -5.37986e-06  1.67202e-06     -46.6744 
         300      47.3685 -5.52112e-06   1.6923e-06     -46.6744 
         300      47.5798  -5.5851e-06  1.69297e-06     -46.6743 
         300      47.7914 -5.60235e-06   1.7421e-06     -46.6743 
         300      48.0037 -5.63507e-06  1.86353e-06     -46.6743 