Variables = x, y, u, v, p

Zone, I=800, F=POINT
         500            0           -0           -0      3.66999 
         500     0.000234 -7.76833e-06  2.51857e-11      3.66999 
         500     0.000939 -2.94436e-05  4.10456e-10      3.66999 
         500     0.002113 -6.02394e-05  2.07702e-09      3.66999 
         500     0.003759 -9.37771e-05  6.54942e-09      3.66999 
         500     0.005872 -0.000123554  1.58956e-08      3.66999 
         500     0.008457 -0.000145052  3.27436e-08      3.66999 
         500      0.01151 -0.000156719  6.01479e-08      3.66999 
         500     0.015036 -0.000160498   1.0165e-07      3.66999 
         500     0.019031  -0.00016098  1.61041e-07      3.66999 
         500     0.023493 -0.000163669  2.42362e-07      3.66999 
         500     0.028429 -0.000172701  3.50004e-07      3.66999 
         500     0.033831  -0.00018888  4.88129e-07      3.66999 
         500     0.039706 -0.000209142  6.61224e-07      3.66999 
         500     0.046047  -0.00022808  8.73271e-07      3.66999 
         500     0.052863 -0.000241905  1.12855e-06      3.66999 
         500      0.06015 -0.000252975  1.43059e-06      3.66999 
         500       0.0679 -0.000270809  1.78227e-06      3.66999 
         500     0.076126 -0.000300571   2.1869e-06      3.66999 
         500     0.084816 -0.000313914  2.64606e-06      3.66999 
         500     0.093982 -0.000339024  3.16189e-06      3.66999 
         500     0.103611 -0.000362863  3.73445e-06      3.66999 
         500     0.113718 -0.000386357  4.36474e-06      3.66999 
         500     0.124286 -0.000410045    5.051e-06      3.66999 
         500     0.135333 -0.000434206  5.79296e-06      3.66999 
         500      0.14685 -0.000458744  6.58786e-06      3.66999 
         500     0.158827 -0.000483334  7.43205e-06      3.66999 
         500     0.171284  -0.00050761  8.32337e-06      3.66999 
         500     0.184201 -0.000531185  9.25623e-06      3.66999 
         500     0.197599 -0.000553931  1.02274e-05      3.66999 
         500     0.211455 -0.000575865  1.12302e-05      3.66999 
         500     0.225792 -0.000597134  1.22608e-05      3.66999 
         500       0.2406 -0.000617378  1.33127e-05      3.66999 
         500     0.255865 -0.000635692  1.43791e-05      3.66999 
         500     0.271613 -0.000653066  1.54563e-05      3.66999 
         500     0.287818 -0.000668891  1.65366e-05      3.66999 
         500     0.304506 -0.000683156  1.76164e-05      3.66999 
         500      0.32165 -0.000695819  1.86888e-05      3.66999 
         500     0.339278 -0.000706895  1.97507e-05      3.66999 
         500     0.357377 -0.000716386  2.07972e-05      3.66999 
         500      0.37593 -0.000724311  2.18235e-05      3.66999 
         500     0.394968 -0.000730726  2.28283e-05      3.66999 
         500     0.414461 -0.000735677  2.38076e-05      3.66999 
         500      0.43444 -0.000739241  2.47612e-05      3.66999 
         500     0.454872 -0.000741494  2.56863e-05      3.66999 
         500     0.475791 -0.000742528   2.6584e-05      3.66999 
         500     0.497163 -0.000742437  2.74529e-05      3.66999 
         500     0.519021 -0.000741318  2.82953e-05      3.66999 
         500      0.54135 -0.000739266  2.91118e-05      3.66999 
         500     0.564131  -0.00073637  2.99037e-05      3.66999 
         500       0.5874 -0.000732699  3.06753e-05      3.66999 
         500     0.611121 -0.000728304  3.14289e-05      3.66999 
         500      0.63533 -0.000723251  3.21685e-05      3.66999 
         500      0.65999 -0.000717668  3.28934e-05      3.66999 
         500     0.685139 -0.000711559  3.36097e-05      3.66999 
         500     0.710759 -0.000704936  3.43215e-05      3.66999 
         500     0.736828 -0.000697812  3.50328e-05      3.66999 
         500     0.763387 -0.000690181  3.57489e-05      3.66999 
         500     0.790396 -0.000682058  3.64727e-05      3.66999 
         500     0.817896 -0.000673433  3.72086e-05      3.66999 
         500     0.845843 -0.000664323  3.79584e-05      3.66999 
         500     0.874283 -0.000654718  3.87258e-05      3.66999 
         500      0.90317 -0.000644641  3.95113e-05      3.66999 
         500     0.932551 -0.000634087  4.03174e-05      3.66999 
         500     0.962401 -0.000623083  4.11441e-05      3.66999 
         500     0.992697 -0.000611659  4.19904e-05      3.66999 
         500      1.02349  -0.00059983  4.28571e-05      3.66999 
         500      1.05472 -0.000587654  4.37411e-05      3.66999 
         500      1.08645 -0.000575161  4.46417e-05      3.66999 
         500      1.11863  -0.00056243  4.55547e-05      3.66999 
         500       1.1513  -0.00054951  4.64781e-05      3.66999 
         500      1.18444 -0.000536487  4.74071e-05      3.66999 
         500      1.21802 -0.000523457  4.83365e-05      3.66999 
         500      1.25211 -0.000510488  4.92629e-05      3.66999 
         500      1.28663 -0.000497688  5.01796e-05      3.66999 
         500      1.32165 -0.000485122  5.10825e-05      3.66999 
         500      1.35712 -0.000472882  5.19647e-05      3.66999 
         500      1.39308 -0.000460998  5.28219e-05      3.66999 
         500      1.42951 -0.000449498  5.36483e-05      3.66999 
         500      1.46638 -0.000438361  5.44382e-05      3.66999 
         500      1.50375 -0.000427476  5.51883e-05      3.66999 
         500      1.54156 -0.000417083  5.59186e-05      3.66999 
         500      1.57987 -0.000406891  5.66091e-05      3.66999 
         500      1.61863 -0.000396849  5.72585e-05      3.66999 
         500      1.65788   -0.0003869  5.78691e-05      3.66999 
         500      1.69757 -0.000377023  5.84411e-05      3.66999 
         500      1.73776 -0.000367168  5.89765e-05      3.66999 
         500      1.77842 -0.000357314  5.94758e-05      3.66999 
         500      1.81952 -0.000347442  5.99394e-05      3.66999 
         500      1.86113 -0.000337516  6.03687e-05      3.66999 
         500      1.90316 -0.000327534  6.07633e-05      3.66999 
         500      1.94571 -0.000317467  6.11242e-05      3.66999 
         500      1.98869 -0.000307323   6.1451e-05         3.67 
         500      2.03217  -0.00029708  6.17442e-05         3.67 
         500      2.07612 -0.000286745  6.20035e-05         3.67 
         500      2.12051 -0.000276331  6.22284e-05         3.67 
         500       2.1654 -0.000265827   6.2419e-05         3.67 
         500      2.21073  -0.00025526  6.25746e-05         3.67 
         500      2.25656 -0.000244626   6.2695e-05         3.67 
         500      2.30283 -0.000233959  6.27794e-05         3.67 
         500       2.3496  -0.00022326  6.28275e-05         3.67 
         500      2.39685 -0.000212558  6.28387e-05         3.67 
         500      2.44452 -0.000201884  6.28125e-05         3.67 
         500      2.49271 -0.000191246  6.27485e-05         3.67 
         500      2.54132 -0.000180683  6.26462e-05      3.67001 
         500      2.59044 -0.000170204  6.25054e-05      3.67001 
         500         2.64  -0.00015985   6.2326e-05      3.67001 
         500      2.69006  -0.00014963  6.21078e-05      3.67001 
         500      2.74056 -0.000139583  6.18512e-05      3.67001 
         500      2.79156 -0.000129715  6.15562e-05      3.67001 
         500      2.84304 -0.000120055  6.12234e-05      3.67001 
         500      2.89494 -0.000110628  6.08539e-05      3.67001 
         500      2.94735 -0.000101436  6.04479e-05      3.67001 
         500       3.0002 -9.25072e-05  6.00072e-05      3.67002 
         500      3.05355 -8.38397e-05  5.95324e-05      3.67002 
         500      3.10733 -7.54564e-05  5.90256e-05      3.67002 
         500      3.16163 -6.73517e-05  5.84875e-05      3.67002 
         500      3.21639 -5.95385e-05  5.79202e-05      3.67002 
         500      3.27158 -5.20278e-05  5.73259e-05      3.67002 
         500      3.32729 -4.48129e-05  5.67051e-05      3.67002 
         500      3.38342 -3.79113e-05  5.60603e-05      3.67003 
         500      3.44007  -3.1321e-05  5.53917e-05      3.67003 
         500      3.49714 -2.50652e-05  5.47012e-05      3.67003 
         500      3.55472  -1.9153e-05   5.3988e-05      3.67003 
         500      3.61273 -1.36216e-05  5.32527e-05      3.67003 
         500      3.67125 -8.50188e-06  5.24929e-05      3.67003 
         500      3.73025 -3.85274e-06  5.17065e-05      3.67003 
         500      3.78967  4.47985e-07  5.08838e-05      3.67004 
         500      3.84961  4.46964e-06  5.00432e-05      3.67004 
         500      3.90996  8.14054e-06  4.91952e-05      3.67004 
         500      3.97084  1.14631e-05  4.83407e-05      3.67004 
         500      4.03214  1.44315e-05  4.74834e-05      3.67004 
         500      4.09395  1.70532e-05  4.66245e-05      3.67004 
         500      4.15624   1.9331e-05   4.5767e-05      3.67005 
         500      4.21895  2.12717e-05   4.4914e-05      3.67005 
         500      4.28217  2.28886e-05  4.40664e-05      3.67005 
         500      4.34582  2.41918e-05  4.32279e-05      3.67005 
         500      4.40998  2.52177e-05  4.23249e-05      3.67005 
         500      4.47457  2.59688e-05  4.14054e-05      3.67005 
         500      4.53968  2.64559e-05  4.04892e-05      3.67005 
         500      4.60525  2.66926e-05    3.958e-05      3.67006 
         500      4.67125  2.66942e-05  3.86806e-05      3.67006 
         500      4.73777  2.64757e-05  3.77916e-05      3.67006 
         500       4.8047  2.60529e-05  3.69159e-05      3.67006 
         500      4.87216  2.54404e-05  3.60534e-05      3.67006 
         500      4.94003  2.46545e-05   3.5206e-05      3.67006 
         500      5.00843  2.37092e-05  3.43728e-05      3.67007 
         500      5.07724  2.26207e-05   3.3555e-05      3.67007 
         500      5.14658  2.14018e-05  3.27508e-05      3.67007 
         500      5.21639  2.00674e-05  3.19602e-05      3.67007 
         500      5.28661  1.86321e-05  3.11826e-05      3.67007 
         500      5.35736  1.71066e-05  3.04154e-05      3.67007 
         500      5.42852  1.55055e-05  2.96582e-05      3.67008 
         500      5.50021  1.38374e-05  2.89081e-05      3.67008 
         500      5.57231  1.21157e-05  2.81644e-05      3.67008 
         500      5.64493  1.03473e-05  2.74242e-05      3.67008 
         500      5.71803  8.54247e-06  2.66864e-05      3.67008 
         500      5.79154  6.71056e-06  2.59501e-05      3.67008 
         500      5.86558  4.85576e-06  2.52131e-05      3.67008 
         500      5.94003   2.9873e-06  2.44761e-05      3.67009 
         500      6.01501  1.10766e-06  2.37383e-05      3.67009 
         500       6.0904  -7.7531e-07  2.30018e-05      3.67009 
         500      6.16632 -2.66042e-06  2.22679e-05      3.67009 
         500      6.24271 -4.54232e-06  2.15409e-05      3.67009 
         500       6.3195 -6.41584e-06  2.08267e-05      3.67009 
         500      6.39683 -8.28043e-06  2.01315e-05       3.6701 
         500      6.47457 -1.01292e-05  1.94662e-05       3.6701 
         500      6.55284 -1.19605e-05  1.88419e-05       3.6701 
         500      6.63152 -1.37662e-05   1.8275e-05       3.6701 
         500      6.71073 -1.56706e-05  1.75272e-05       3.6701 
         500      6.79034 -1.75518e-05  1.67508e-05       3.6701 
         500      6.87049 -1.93757e-05  1.60157e-05       3.6701 
         500      6.95111 -2.11506e-05   1.5312e-05      3.67011 
         500      7.03214 -2.28834e-05  1.46323e-05      3.67011 
         500       7.1137 -2.45837e-05  1.39689e-05      3.67011 
         500      7.19566 -2.62541e-05  1.33185e-05      3.67011 
         500      7.27816 -2.79015e-05  1.26767e-05      3.67011 
         500      7.36106 -2.95262e-05  1.20427e-05      3.67011 
         500      7.44451 -3.11328e-05   1.1415e-05      3.67011 
         500      7.52842 -3.27213e-05   1.0794e-05      3.67012 
         500      7.61273 -3.42907e-05  1.01812e-05      3.67012 
         500      7.69758 -3.58435e-05   9.5768e-06      3.67012 
         500      7.78283 -3.73765e-05  8.98349e-06      3.67012 
         500      7.86862 -3.88914e-05  8.40197e-06      3.67012 
         500      7.95481 -4.03846e-05  7.83474e-06      3.67012 
         500      8.04155 -4.18574e-05  7.28219e-06      3.67012 
         500      8.12868 -4.33063e-05  6.74603e-06      3.67013 
         500      8.21635 -4.47328e-05  6.22562e-06      3.67013 
         500      8.30449  -4.6135e-05  5.72086e-06      3.67013 
         500      8.39303 -4.75118e-05  5.23071e-06      3.67013 
         500      8.48211 -4.88654e-05    4.752e-06      3.67013 
         500      8.57159 -5.01945e-05  4.28206e-06      3.67013 
         500      8.66161 -5.15026e-05  3.81558e-06      3.67013 
         500      8.75203 -5.27894e-05  3.34768e-06      3.67013 
         500      8.84299 -5.40596e-05  2.87084e-06      3.67014 
         500      8.93443 -5.53152e-05  2.37766e-06      3.67014 
         500      9.02626 -5.65591e-05  1.85982e-06      3.67014 
         500      9.11863 -5.77925e-05  1.33569e-06      3.67014 
         500      9.21139 -5.89712e-05  9.93337e-07      3.67014 
         500      9.30471 -6.01173e-05  6.49972e-07      3.67014 
         500      9.39841 -6.12295e-05  3.06476e-07      3.67014 
         500      9.49267 -6.23114e-05 -3.58106e-08      3.67015 
         500      9.58739 -6.33652e-05 -3.72718e-07      3.67015 
         500      9.68251 -6.43953e-05 -6.97587e-07      3.67015 
         500      9.77817 -6.54116e-05 -1.00147e-06      3.67015 
         500      9.87422 -6.64309e-05 -1.28221e-06      3.67015 
         500      9.97083 -6.75292e-05 -1.66161e-06      3.67015 
         500      10.0678 -6.86011e-05 -2.01521e-06      3.67015 
         500      10.1654 -6.96438e-05 -2.34806e-06      3.67015 
         500      10.2633 -7.06532e-05 -2.66339e-06      3.67016 
         500      10.3618 -7.16306e-05 -2.96482e-06      3.67016 
         500      10.4607 -7.25763e-05 -3.25458e-06      3.67016 
         500      10.5601 -7.34919e-05 -3.53434e-06      3.67016 
         500        10.66 -7.43823e-05  -3.8059e-06      3.67016 
         500      10.7603   -7.525e-05 -4.06967e-06      3.67016 
         500      10.8611 -7.61004e-05 -4.32648e-06      3.67016 
         500      10.9623 -7.69365e-05 -4.57592e-06      3.67016 
         500      11.0641 -7.77637e-05 -4.81802e-06      3.67017 
         500      11.1663 -7.85848e-05 -5.05197e-06      3.67017 
         500       11.269 -7.94021e-05 -5.27675e-06      3.67017 
         500      11.3721 -8.02188e-05  -5.4917e-06      3.67017 
         500      11.4757 -8.10349e-05  -5.6954e-06      3.67017 
         500      11.5798 -8.18514e-05 -5.88707e-06      3.67017 
         500      11.6844 -8.26661e-05 -6.06537e-06      3.67017 
         500      11.7894 -8.34779e-05  -6.2297e-06      3.67018 
         500       11.895 -8.42767e-05 -6.39091e-06      3.67018 
         500      12.0009 -8.50448e-05 -6.55221e-06      3.67018 
         500      12.1073 -8.57781e-05 -6.70569e-06      3.67018 
         500      12.2142   -8.647e-05  -6.8514e-06      3.67018 
         500      12.3216 -8.71179e-05 -6.98991e-06      3.67018 
         500      12.4294 -8.77204e-05 -7.12146e-06      3.67018 
         500      12.5378 -8.82821e-05  -7.2468e-06      3.67018 
         500      12.6465 -8.88121e-05 -7.36641e-06      3.67019 
         500      12.7558 -8.93285e-05 -7.48129e-06      3.67019 
         500      12.8656 -8.98583e-05 -7.59228e-06      3.67019 
         500      12.9757 -9.04402e-05 -7.70036e-06      3.67019 
         500      13.0864 -9.11289e-05 -7.80691e-06      3.67019 
         500      13.1975 -9.19944e-05 -7.91307e-06      3.67019 
         500      13.3092  -9.2954e-05 -8.01956e-06      3.67019 
         500      13.4212 -9.34468e-05 -8.09743e-06       3.6702 
         500      13.5338  -9.3896e-05 -8.12497e-06       3.6702 
         500      13.6468 -9.42968e-05 -8.13413e-06       3.6702 
         500      13.7603 -9.46514e-05 -8.22306e-06       3.6702 
         500      13.8743 -9.50679e-05 -8.28532e-06       3.6702 
         500      13.9886  -9.5527e-05 -8.32833e-06       3.6702 
         500      14.1036 -9.60137e-05 -8.35832e-06       3.6702 
         500      14.2189 -9.65143e-05 -8.38021e-06       3.6702 
         500      14.3348 -9.70191e-05 -8.39791e-06      3.67021 
         500       14.451 -9.75191e-05 -8.41428e-06      3.67021 
         500      14.5678  -9.8009e-05 -8.43135e-06      3.67021 
         500      14.6851 -9.84842e-05 -8.45039e-06      3.67021 
         500      14.8028 -9.89417e-05   -8.472e-06      3.67021 
         500       14.921 -9.93809e-05  -8.4963e-06      3.67021 
         500      15.0396 -9.98012e-05 -8.52292e-06      3.67021 
         500      15.1588 -0.000100204 -8.55124e-06      3.67022 
         500      15.2783 -0.000100591 -8.58032e-06      3.67022 
         500      15.3984 -0.000100963 -8.60919e-06      3.67022 
         500       15.519 -0.000101325 -8.63675e-06      3.67022 
         500        15.64 -0.000101678 -8.66194e-06      3.67022 
         500      15.7615 -0.000102026 -8.68384e-06      3.67022 
         500      15.8834 -0.000102371 -8.70165e-06      3.67022 
         500      16.0058  -0.00010271 -8.70989e-06      3.67023 
         500      16.1286 -0.000103033  -8.6942e-06      3.67023 
         500       16.252 -0.000103354 -8.66651e-06      3.67023 
         500      16.3759 -0.000103674 -8.62749e-06      3.67023 
         500      16.5002 -0.000103995 -8.57819e-06      3.67023 
         500       16.625 -0.000104319  -8.5199e-06      3.67023 
         500      16.7501 -0.000104644 -8.45433e-06      3.67024 
         500      16.8759 -0.000104971 -8.38326e-06      3.67024 
         500       17.002 -0.000105298 -8.30886e-06      3.67024 
         500      17.1287 -0.000105623 -8.23315e-06      3.67024 
         500      17.2557 -0.000105941 -8.15835e-06      3.67024 
         500      17.3834 -0.000106252 -8.08635e-06      3.67024 
         500      17.5115 -0.000106551 -8.01894e-06      3.67025 
         500      17.6399 -0.000106834 -7.95748e-06      3.67025 
         500       17.769 -0.000107099 -7.90261e-06      3.67025 
         500      17.8984 -0.000107344 -7.85436e-06      3.67025 
         500      18.0284 -0.000107569 -7.81161e-06      3.67025 
         500      18.1587 -0.000107775 -7.77214e-06      3.67025 
         500      18.2896 -0.000107968  -7.7321e-06      3.67026 
         500       18.421 -0.000108154 -7.68595e-06      3.67026 
         500      18.5528 -0.000108347 -7.62604e-06      3.67026 
         500      18.6851 -0.000108563 -7.54214e-06      3.67026 
         500      18.8178 -0.000108828 -7.42142e-06      3.67026 
         500      18.9511 -0.000109173 -7.24746e-06      3.67026 
         500      19.0847 -0.000109447 -7.17638e-06      3.67027 
         500      19.2189 -0.000109606  -7.2353e-06      3.67027 
         500      19.3535  -0.00010968 -7.39786e-06      3.67027 
         500      19.4886  -0.00010971 -7.56533e-06      3.67027 
         500      19.6242 -0.000109848 -7.42104e-06      3.67027 
         500      19.7602 -0.000110011 -7.28844e-06      3.67028 
         500      19.8968 -0.000110191 -7.16795e-06      3.67028 
         500      20.0337 -0.000110381 -7.05991e-06      3.67028 
         500      20.1712 -0.000110573 -6.96385e-06      3.67028 
         500      20.3091 -0.000110763 -6.87926e-06      3.67028 
         500      20.4475 -0.000110948 -6.80507e-06      3.67028 
         500      20.5864 -0.000111125 -6.74016e-06      3.67029 
         500      20.7257 -0.000111293 -6.68321e-06      3.67029 
         500      20.8655 -0.000111452 -6.63268e-06      3.67029 
         500      21.0058 -0.000111601 -6.58712e-06      3.67029 
         500      21.1465 -0.000111741 -6.54496e-06      3.67029 
         500      21.2877 -0.000111873 -6.50478e-06       3.6703 
         500      21.4294 -0.000111998 -6.46514e-06       3.6703 
         500      21.5716 -0.000112119 -6.42482e-06       3.6703 
         500      21.7142 -0.000112235 -6.38277e-06       3.6703 
         500      21.8573 -0.000112349 -6.33803e-06       3.6703 
         500      22.0008 -0.000112463 -6.28997e-06      3.67031 
         500      22.1449 -0.000112576 -6.23808e-06      3.67031 
         500      22.2893 -0.000112691  -6.1822e-06      3.67031 
         500      22.4344 -0.000112808 -6.12225e-06      3.67031 
         500      22.5797 -0.000112928 -6.05856e-06      3.67032 
         500      22.7257 -0.000113049 -5.99147e-06      3.67032 
         500      22.8721 -0.000113172 -5.92165e-06      3.67032 
         500      23.0189 -0.000113296  -5.8499e-06      3.67032 
         500      23.1663  -0.00011342 -5.77696e-06      3.67032 
         500       23.314 -0.000113542 -5.70383e-06      3.67033 
         500      23.4623 -0.000113661 -5.63124e-06      3.67033 
         500       23.611 -0.000113775 -5.56001e-06      3.67033 
         500      23.7602 -0.000113882 -5.49053e-06      3.67033 
         500        23.91 -0.000113981 -5.42301e-06      3.67034 
         500        24.06  -0.00011407 -5.35721e-06      3.67034 
         500      24.2107 -0.000114148  -5.2921e-06      3.67034 
         500      24.3617 -0.000114216 -5.22614e-06      3.67034 
         500      24.5133 -0.000114274  -5.1566e-06      3.67035 
         500      24.6653 -0.000114324 -5.07985e-06      3.67035 
         500      24.8178  -0.00011437 -4.99068e-06      3.67035 
         500      24.9708 -0.000114416 -4.88247e-06      3.67035 
         500      25.1242 -0.000114472 -4.74683e-06      3.67036 
         500      25.2781 -0.000114533 -4.61107e-06      3.67036 
         500      25.4324 -0.000114559 -4.61085e-06      3.67036 
         500      25.5873 -0.000114623 -4.57508e-06      3.67036 
         500      25.7426 -0.000114718 -4.51841e-06      3.67037 
         500      25.8984 -0.000114836 -4.45724e-06      3.67037 
         500      26.0546 -0.000114963 -4.40933e-06      3.67037 
         500      26.2114 -0.000115083 -4.39267e-06      3.67037 
         500      26.3686 -0.000115097 -4.33249e-06      3.67038 
         500      26.5262 -0.000115029 -4.19745e-06      3.67038 
         500      26.6844 -0.000114984 -4.08445e-06      3.67038 
         500      26.8429 -0.000114965 -3.98947e-06      3.67039 
         500       27.002 -0.000114972 -3.90778e-06      3.67039 
         500      27.1615  -0.00011501 -3.83471e-06      3.67039 
         500      27.3216 -0.000115082 -3.76524e-06      3.67039 
         500      27.4821 -0.000115195 -3.69459e-06       3.6704 
         500       27.643 -0.000115357 -3.61817e-06       3.6704 
         500      27.8044 -0.000115467 -3.57418e-06       3.6704 
         500      27.9663 -0.000115445 -3.58433e-06      3.67041 
         500      28.1287 -0.000115436 -3.58905e-06      3.67041 
         500      28.2914 -0.000115437 -3.58934e-06      3.67041 
         500      28.4548 -0.000115448 -3.58607e-06      3.67041 
         500      28.6185 -0.000115468 -3.57999e-06      3.67042 
         500      28.7828 -0.000115495 -3.57173e-06      3.67042 
         500      28.9475 -0.000115529 -3.56182e-06      3.67042 
         500      29.1126 -0.000115567 -3.55067e-06      3.67043 
         500      29.2784  -0.00011561 -3.53857e-06      3.67043 
         500      29.4444 -0.000115656 -3.52578e-06      3.67043 
         500       29.611 -0.000115705 -3.51241e-06      3.67044 
         500       29.778 -0.000115755 -3.49856e-06      3.67044 
         500      29.9456 -0.000115805  -3.4842e-06      3.67044 
         500      30.1137 -0.000115855 -3.46927e-06      3.67045 
         500      30.2821 -0.000115903 -3.45369e-06      3.67045 
         500      30.4511 -0.000115951 -3.43728e-06      3.67045 
         500      30.6204 -0.000115996 -3.41987e-06      3.67046 
         500      30.7903 -0.000116038 -3.40122e-06      3.67046 
         500      30.9606 -0.000116078 -3.38113e-06      3.67046 
         500      31.1315 -0.000116115 -3.35934e-06      3.67047 
         500      31.3028 -0.000116148 -3.33562e-06      3.67047 
         500      31.4745 -0.000116178 -3.30975e-06      3.67047 
         500      31.6468 -0.000116205  -3.2815e-06      3.67048 
         500      31.8194 -0.000116229 -3.25071e-06      3.67048 
         500      31.9926 -0.000116251 -3.21719e-06      3.67048 
         500      32.1662  -0.00011627 -3.18089e-06      3.67049 
         500      32.3404 -0.000116287  -3.1417e-06      3.67049 
         500      32.5149 -0.000116302 -3.09969e-06       3.6705 
         500        32.69 -0.000116316 -3.05487e-06       3.6705 
         500      32.8655  -0.00011633 -3.00745e-06       3.6705 
         500      33.0414 -0.000116344 -2.95772e-06      3.67051 
         500       33.218 -0.000116359 -2.90593e-06      3.67051 
         500      33.3948 -0.000116374 -2.85264e-06      3.67051 
         500      33.5723 -0.000116391 -2.79832e-06      3.67052 
         500        33.75 -0.000116409 -2.74376e-06      3.67052 
         500      33.9284 -0.000116429 -2.68968e-06      3.67053 
         500      34.1073  -0.00011645 -2.63712e-06      3.67053 
         500      34.2865 -0.000116474  -2.5872e-06      3.67053 
         500      34.4663 -0.000116498 -2.54113e-06      3.67054 
         500      34.6465 -0.000116523  -2.5004e-06      3.67054 
         500      34.8272 -0.000116546 -2.46656e-06      3.67055 
         500      35.0083 -0.000116568 -2.44143e-06      3.67055 
         500        35.19 -0.000116585 -2.42694e-06      3.67056 
         500      35.3721 -0.000116595 -2.42528e-06      3.67056 
         500      35.5546 -0.000116596 -2.43877e-06      3.67056 
         500      35.7377 -0.000116583 -2.47001e-06      3.67057 
         500      35.9211 -0.000116554 -2.50661e-06      3.67057 
         500      36.1052 -0.000116527 -2.50201e-06      3.67058 
         500      36.2895 -0.000116509 -2.49132e-06      3.67058 
         500      36.4745 -0.000116497 -2.47581e-06      3.67059 
         500      36.6598  -0.00011649 -2.45667e-06      3.67059 
         500      36.8457 -0.000116488 -2.43493e-06      3.67059 
         500      37.0321  -0.00011649 -2.41156e-06       3.6706 
         500      37.2188 -0.000116494 -2.38741e-06       3.6706 
         500      37.4062 -0.000116501 -2.36317e-06      3.67061 
         500      37.5938 -0.000116509  -2.3395e-06      3.67061 
         500      37.7821 -0.000116519 -2.31685e-06      3.67062 
         500      37.9707  -0.00011653 -2.29567e-06      3.67062 
         500      38.1599 -0.000116542  -2.2762e-06      3.67063 
         500      38.3496 -0.000116556 -2.25863e-06      3.67063 
         500      38.5396 -0.000116571 -2.24302e-06      3.67064 
         500      38.7302 -0.000116587 -2.22928e-06      3.67064 
         500      38.9211 -0.000116605 -2.21726e-06      3.67065 
         500      39.1127 -0.000116624 -2.20665e-06      3.67065 
         500      39.3046 -0.000116646 -2.19703e-06      3.67066 
         500      39.4971  -0.00011667 -2.18787e-06      3.67066 
         500      39.6899 -0.000116696  -2.1785e-06      3.67067 
         500      39.8833 -0.000116724 -2.16811e-06      3.67067 
         500      40.0772 -0.000116755  -2.1558e-06      3.67068 
         500      40.2714 -0.000116789 -2.14051e-06      3.67068 
         500      40.4663 -0.000116826 -2.12102e-06      3.67069 
         500      40.6615 -0.000116865 -2.09602e-06      3.67069 
         500      40.8573 -0.000116907 -2.06399e-06       3.6707 
         500      41.0534 -0.000116951 -2.02335e-06       3.6707 
         500      41.2501 -0.000116997 -1.97222e-06      3.67071 
         500      41.4473 -0.000117024 -1.96362e-06      3.67071 
         500      41.6448 -0.000117034  -1.9789e-06      3.67072 
         500      41.8429 -0.000117036 -1.99315e-06      3.67072 
         500      42.0414 -0.000117031 -2.00537e-06      3.67073 
         500      42.2405 -0.000117022 -2.01475e-06      3.67073 
         500      42.4399 -0.000117008 -2.02059e-06      3.67074 
         500      42.6399 -0.000116992 -2.02234e-06      3.67074 
         500      42.8404 -0.000116974 -2.01964e-06      3.67075 
         500      43.0412 -0.000116957 -2.01226e-06      3.67076 
         500      43.2426  -0.00011694 -2.00017e-06      3.67076 
         500      43.4444 -0.000116926 -1.98353e-06      3.67077 
         500      43.6467 -0.000116916 -1.96264e-06      3.67077 
         500      43.8494 -0.000116909 -1.93807e-06      3.67078 
         500      44.0527 -0.000116906 -1.91051e-06      3.67079 
         500      44.2563 -0.000116908 -1.88091e-06      3.67079 
         500      44.4606 -0.000116915 -1.85035e-06       3.6708 
         500      44.6653 -0.000116925 -1.82019e-06       3.6708 
         500      44.8704 -0.000116938 -1.79198e-06      3.67081 
         500       45.076 -0.000116952 -1.76742e-06      3.67082 
         500       45.282 -0.000116964 -1.74849e-06      3.67082 
         500      45.4886 -0.000116973 -1.73729e-06      3.67083 
         500      45.6955 -0.000116973 -1.73619e-06      3.67083 
         500       45.903  -0.00011696 -1.74771e-06      3.67084 
         500      46.1111 -0.000116928 -1.77458e-06      3.67085 
         500      46.3194 -0.000116872 -1.81443e-06      3.67085 
         500      46.5283 -0.000116841 -1.73787e-06      3.67086 
         500      46.7376 -0.000116834 -1.68664e-06      3.67087 
         500      46.9475 -0.000116842 -1.65373e-06      3.67087 
         500      47.1577 -0.000116859 -1.63331e-06      3.67088 
         500      47.3685  -0.00011688  -1.6205e-06      3.67088 
         500      47.5798 -0.000116899 -1.61143e-06      3.67089 
         500      47.7914 -0.000116914 -1.60311e-06       3.6709 
         500      48.0037 -0.000116924 -1.59341e-06       3.6709 