Variables = x, y, u, v, p

Zone, I=800, F=POINT
          -5            0            0            0      86.6819 
          -5     0.000234  1.01219e-05 -8.53556e-10      86.6819 
          -5     0.000939  3.81099e-05 -3.35661e-09      86.6819 
          -5     0.002113  7.70468e-05 -7.32674e-09      86.6819 
          -5     0.003759  0.000117728 -1.25744e-08      86.6819 
          -5     0.005872  0.000150893 -1.89713e-08      86.6819 
          -5     0.008457  0.000170219 -2.66137e-08      86.6819 
          -5      0.01151  0.000173825 -3.58288e-08      86.6819 
          -5     0.015036  0.000164899 -4.72294e-08      86.6819 
          -5     0.019031  0.000150449 -6.15839e-08      86.6819 
          -5     0.023493  0.000138614 -7.97136e-08      86.6819 
          -5     0.028429  0.000135238 -1.02386e-07      86.6819 
          -5     0.033831  0.000141076 -1.30123e-07      86.6819 
          -5     0.039706  0.000151024 -1.63371e-07      86.6819 
          -5     0.046047  0.000156683 -2.02553e-07      86.6819 
          -5     0.052863   0.00015237 -2.48532e-07      86.6819 
          -5      0.06015  0.000142068 -3.02607e-07      86.6819 
          -5       0.0679  0.000140647  -3.6606e-07      86.6819 
          -5     0.076126  0.000155578  -4.3826e-07      86.6819 
          -5     0.084816  0.000142425 -5.11932e-07      86.6819 
          -5     0.093982  0.000147633 -6.03683e-07      86.6819 
          -5     0.103611  0.000149468 -7.13002e-07      86.6819 
          -5     0.113718  0.000149734 -8.28603e-07      86.6819 
          -5     0.124286  0.000149713 -9.46342e-07      86.6819 
          -5     0.135333  0.000150114 -1.06894e-06      86.6819 
          -5      0.14685  0.000151112 -1.20276e-06      86.6819 
          -5     0.158827  0.000152484  -1.3544e-06      86.6819 
          -5     0.171284  0.000153838 -1.52692e-06      86.6819 
          -5     0.184201  0.000154867 -1.71565e-06      86.6819 
          -5     0.197599  0.000155584 -1.90893e-06      86.6819 
          -5     0.211455  0.000156382 -2.09256e-06      86.6819 
          -5     0.225792  0.000157756 -2.26691e-06      86.6819 
          -5       0.2406  0.000159429  -2.4778e-06      86.6819 
          -5     0.255865  0.000159997 -2.77917e-06       86.682 
          -5     0.271613  0.000161139 -3.03447e-06       86.682 
          -5     0.287818  0.000162216 -3.28534e-06       86.682 
          -5     0.304506  0.000163241  -3.5364e-06       86.682 
          -5      0.32165  0.000164223 -3.79377e-06       86.682 
          -5     0.339278   0.00016516 -4.05841e-06       86.682 
          -5     0.357377  0.000166048 -4.33068e-06       86.682 
          -5      0.37593  0.000166881 -4.61085e-06       86.682 
          -5     0.394968  0.000167658 -4.89987e-06       86.682 
          -5     0.414461  0.000168375 -5.19774e-06       86.682 
          -5      0.43444  0.000169028 -5.50531e-06       86.682 
          -5     0.454872  0.000169613 -5.82239e-06       86.682 
          -5     0.475791   0.00017013 -6.14972e-06      86.6821 
          -5     0.497163  0.000170575  -6.4869e-06      86.6821 
          -5     0.519021  0.000170946 -6.83446e-06      86.6821 
          -5      0.54135  0.000171242 -7.19206e-06      86.6821 
          -5     0.564131  0.000171461 -7.55917e-06      86.6821 
          -5       0.5874  0.000171604   -7.936e-06      86.6821 
          -5     0.611121  0.000171671 -8.32149e-06      86.6821 
          -5      0.63533  0.000171663  -8.7156e-06      86.6822 
          -5      0.65999  0.000171584 -9.11698e-06      86.6822 
          -5     0.685139  0.000171435 -9.52538e-06      86.6822 
          -5     0.710759  0.000171222 -9.93953e-06      86.6822 
          -5     0.736828   0.00017095  -1.0358e-05      86.6822 
          -5     0.763387  0.000170625 -1.07804e-05      86.6823 
          -5     0.790396  0.000170256 -1.12047e-05      86.6823 
          -5     0.817896  0.000169851 -1.16306e-05      86.6823 
          -5     0.845843   0.00016942  -1.2056e-05      86.6823 
          -5     0.874283  0.000168973 -1.24805e-05      86.6824 
          -5      0.90317  0.000168521 -1.29023e-05      86.6824 
          -5     0.932551  0.000168075 -1.33212e-05      86.6824 
          -5     0.962401  0.000167646 -1.37359e-05      86.6825 
          -5     0.992697  0.000167245 -1.41456e-05      86.6825 
          -5      1.02349  0.000166878 -1.45506e-05      86.6825 
          -5      1.05472  0.000166552 -1.49502e-05      86.6826 
          -5      1.08645  0.000166268 -1.53453e-05      86.6826 
          -5      1.11863  0.000166023  -1.5736e-05      86.6827 
          -5       1.1513  0.000165795 -1.61171e-05      86.6827 
          -5      1.18444  0.000165562 -1.64684e-05      86.6827 
          -5      1.21802  0.000165371 -1.68182e-05      86.6828 
          -5      1.25211  0.000165194 -1.71625e-05      86.6828 
          -5      1.28663  0.000165011  -1.7497e-05      86.6829 
          -5      1.32165  0.000164808 -1.78195e-05      86.6829 
          -5      1.35712  0.000164579 -1.81272e-05       86.683 
          -5      1.39308  0.000164322 -1.84192e-05      86.6831 
          -5      1.42951  0.000164037 -1.86943e-05      86.6831 
          -5      1.46638  0.000163731 -1.89519e-05      86.6832 
          -5      1.50375  0.000163411 -1.91922e-05      86.6832 
          -5      1.54156  0.000163088  -1.9415e-05      86.6833 
          -5      1.57987  0.000162769 -1.96206e-05      86.6834 
          -5      1.61863  0.000162465 -1.98089e-05      86.6834 
          -5      1.65788  0.000162182 -1.99801e-05      86.6835 
          -5      1.69757  0.000161926 -2.01337e-05      86.6836 
          -5      1.73776    0.0001617 -2.02694e-05      86.6836 
          -5      1.77842  0.000161502 -2.03864e-05      86.6837 
          -5      1.81952  0.000161336 -2.04548e-05      86.6838 
          -5      1.86113  0.000161194 -2.05043e-05      86.6839 
          -5      1.90316  0.000161072 -2.05302e-05       86.684 
          -5      1.94571  0.000160963 -2.05277e-05       86.684 
          -5      1.98869  0.000160857 -2.04991e-05      86.6841 
          -5      2.03217  0.000160743 -2.04565e-05      86.6842 
          -5      2.07612  0.000160608 -2.04256e-05      86.6843 
          -5      2.12051  0.000160385 -2.03841e-05      86.6844 
          -5       2.1654  0.000160078 -2.03144e-05      86.6845 
          -5      2.21073  0.000159724 -2.02537e-05      86.6846 
          -5      2.25656  0.000159318 -2.01999e-05      86.6847 
          -5      2.30283  0.000158864 -2.01569e-05      86.6848 
          -5       2.3496  0.000158376 -2.01349e-05      86.6849 
          -5      2.39685  0.000157797 -2.00592e-05       86.685 
          -5      2.44452  0.000157146 -1.99248e-05      86.6851 
          -5      2.49271  0.000156497 -1.98024e-05      86.6852 
          -5      2.54132  0.000155855  -1.9688e-05      86.6853 
          -5      2.59044  0.000155222 -1.95772e-05      86.6854 
          -5         2.64  0.000154603 -1.94665e-05      86.6855 
          -5      2.69006  0.000154002 -1.93524e-05      86.6857 
          -5      2.74056  0.000153424 -1.92322e-05      86.6858 
          -5      2.79156  0.000152872 -1.91034e-05      86.6859 
          -5      2.84304  0.000152351 -1.89644e-05       86.686 
          -5      2.89494  0.000151866 -1.88144e-05      86.6861 
          -5      2.94735  0.000151421 -1.86531e-05      86.6863 
          -5       3.0002  0.000151021 -1.84814e-05      86.6864 
          -5      3.05355  0.000150669 -1.83007e-05      86.6865 
          -5      3.10733  0.000150371 -1.81138e-05      86.6866 
          -5      3.16163  0.000150127 -1.79241e-05      86.6868 
          -5      3.21639   0.00014994 -1.77364e-05      86.6869 
          -5      3.27158  0.000149807 -1.75564e-05       86.687 
          -5      3.32729  0.000149723 -1.73906e-05      86.6872 
          -5      3.38342  0.000149655 -1.72359e-05      86.6873 
          -5      3.44007   0.00014959 -1.71131e-05      86.6874 
          -5      3.49714  0.000149524 -1.70135e-05      86.6876 
          -5      3.55472  0.000149417 -1.69083e-05      86.6877 
          -5      3.61273  0.000149259 -1.67809e-05      86.6879 
          -5      3.67125  0.000149061 -1.66212e-05       86.688 
          -5      3.73025  0.000148862 -1.64245e-05      86.6881 
          -5      3.78967  0.000148709 -1.61933e-05      86.6883 
          -5      3.84961  0.000148649 -1.59433e-05      86.6884 
          -5      3.90996  0.000148705 -1.57169e-05      86.6885 
          -5      3.97084  0.000148601 -1.53433e-05      86.6887 
          -5      4.03214  0.000148583 -1.49741e-05      86.6888 
          -5      4.09395  0.000148602 -1.46149e-05       86.689 
          -5      4.15624  0.000148623 -1.42645e-05      86.6891 
          -5      4.21895  0.000148626 -1.39194e-05      86.6892 
          -5      4.28217  0.000148601 -1.35744e-05      86.6894 
          -5      4.34582   0.00014855 -1.32257e-05      86.6895 
          -5      4.40998  0.000148478 -1.28705e-05      86.6897 
          -5      4.47457  0.000148395 -1.25096e-05      86.6898 
          -5      4.53968  0.000148309 -1.21454e-05      86.6899 
          -5      4.60525  0.000148228 -1.17844e-05      86.6901 
          -5      4.67125  0.000148158 -1.14352e-05      86.6902 
          -5      4.73777  0.000148097 -1.11068e-05      86.6903 
          -5       4.8047  0.000148043 -1.08083e-05      86.6905 
          -5      4.87216  0.000147988 -1.05444e-05      86.6906 
          -5      4.94003  0.000147921 -1.03136e-05      86.6907 
          -5      5.00843  0.000147832 -1.01015e-05      86.6908 
          -5      5.07724  0.000147715 -9.87702e-06       86.691 
          -5      5.14658  0.000147574  -9.5839e-06      86.6911 
          -5      5.21639  0.000147407 -9.13413e-06      86.6912 
          -5      5.28661  0.000147252  -8.5442e-06      86.6913 
          -5      5.35736  0.000146939 -8.34794e-06      86.6914 
          -5      5.42852  0.000146659 -8.12206e-06      86.6915 
          -5      5.50021  0.000146451 -7.83351e-06      86.6916 
          -5      5.57231  0.000146256 -7.46543e-06      86.6917 
          -5      5.64493  0.000146063  -7.0511e-06      86.6918 
          -5      5.71803  0.000145866 -6.61729e-06      86.6919 
          -5      5.79154  0.000145662  -6.1841e-06       86.692 
          -5      5.86558  0.000145452 -5.76466e-06      86.6921 
          -5      5.94003  0.000145238 -5.36828e-06      86.6922 
          -5      6.01501  0.000145024 -4.99854e-06      86.6923 
          -5       6.0904  0.000144815 -4.65676e-06      86.6924 
          -5      6.16632  0.000144615 -4.34039e-06      86.6925 
          -5      6.24271   0.00014443  -4.0459e-06      86.6925 
          -5       6.3195  0.000144262 -3.76875e-06      86.6926 
          -5      6.39683  0.000144112 -3.50371e-06      86.6926 
          -5      6.47457  0.000143981 -3.24726e-06      86.6927 
          -5      6.55284  0.000143865 -2.99675e-06      86.6928 
          -5      6.63152  0.000143761 -2.75291e-06      86.6928 
          -5      6.71073  0.000143662 -2.51912e-06      86.6928 
          -5      6.79034  0.000143559  -2.3037e-06      86.6929 
          -5      6.87049  0.000143442 -2.11923e-06      86.6929 
          -5      6.95111    0.0001433 -1.98448e-06      86.6929 
          -5      7.03214  0.000143133 -1.92032e-06       86.693 
          -5       7.1137  0.000143093 -1.84732e-06       86.693 
          -5      7.19566  0.000142941 -1.82986e-06       86.693 
          -5      7.27816  0.000142724 -1.81841e-06       86.693 
          -5      7.36106  0.000142476  -1.7808e-06       86.693 
          -5      7.44451  0.000142224 -1.69928e-06       86.693 
          -5      7.52842  0.000141984 -1.56787e-06      86.6929 
          -5      7.61273  0.000141766 -1.38976e-06      86.6929 
          -5      7.69758  0.000141574 -1.17405e-06      86.6929 
          -5      7.78283   0.00014141 -9.34291e-07      86.6929 
          -5      7.86862   0.00014127 -6.84842e-07      86.6928 
          -5      7.95481  0.000141151 -4.40143e-07      86.6928 
          -5      8.04155  0.000141047 -2.11259e-07      86.6927 
          -5      8.12868  0.000140951 -5.72681e-09      86.6926 
          -5      8.21635  0.000140859  1.75232e-07      86.6925 
          -5      8.30449  0.000140762  3.36523e-07      86.6925 
          -5      8.39303  0.000140652  4.90334e-07      86.6924 
          -5      8.48211  0.000140519  6.56564e-07      86.6923 
          -5      8.57159  0.000140408  8.92328e-07      86.6922 
          -5      8.66161  0.000140329  1.18096e-06       86.692 
          -5      8.75203  0.000140229  1.46296e-06      86.6919 
          -5      8.84299  0.000140117  1.69056e-06      86.6918 
          -5      8.93443  0.000140026  1.79344e-06      86.6916 
          -5      9.02626  0.000140013   1.6859e-06      86.6915 
          -5      9.11863  0.000139745  1.91509e-06      86.6913 
          -5      9.21139  0.000139407   2.3318e-06      86.6912 
          -5      9.30471    0.0001392  2.64337e-06       86.691 
          -5      9.39841  0.000139102  2.88527e-06      86.6908 
          -5      9.49267  0.000139096  3.10641e-06      86.6906 
          -5      9.58739  0.000139166  3.35608e-06      86.6904 
          -5      9.68251  0.000139241   3.6777e-06      86.6902 
          -5      9.77817  0.000139019  4.05827e-06      86.6899 
          -5      9.87422  0.000138827  4.42863e-06      86.6897 
          -5      9.97083  0.000138667  4.78118e-06      86.6895 
          -5      10.0678   0.00013854  5.11092e-06      86.6892 
          -5      10.1654  0.000138445  5.41909e-06      86.6889 
          -5      10.2633  0.000138382  5.71143e-06      86.6887 
          -5      10.3618  0.000138347  5.99963e-06      86.6884 
          -5      10.4607  0.000138337  6.29778e-06      86.6881 
          -5      10.5601  0.000138344  6.61992e-06      86.6878 
          -5        10.66  0.000138359  6.97636e-06      86.6874 
          -5      10.7603   0.00013837  7.36564e-06      86.6871 
          -5      10.8611  0.000138364  7.76916e-06      86.6868 
          -5      10.9623  0.000138321  8.13906e-06      86.6864 
          -5      11.0641  0.000138223  8.38917e-06       86.686 
          -5      11.1663  0.000138046  8.37912e-06      86.6857 
          -5       11.269  0.000137941  8.33007e-06      86.6853 
          -5      11.3721  0.000138099  8.93646e-06      86.6849 
          -5      11.4757  0.000138141  9.40954e-06      86.6845 
          -5      11.5798  0.000138101  9.77414e-06       86.684 
          -5      11.6844  0.000138008  1.00544e-05      86.6836 
          -5      11.7894  0.000137885   1.0275e-05      86.6832 
          -5       11.895  0.000137749  1.04579e-05      86.6827 
          -5      12.0009  0.000137616   1.0622e-05      86.6822 
          -5      12.1073  0.000137498  1.07823e-05      86.6817 
          -5      12.2142  0.000137403   1.0948e-05      86.6812 
          -5      12.3216  0.000137342  1.11226e-05      86.6807 
          -5      12.4294   0.00013732  1.13022e-05      86.6802 
          -5      12.5378  0.000137345  1.14758e-05      86.6797 
          -5      12.6465  0.000137425  1.16238e-05      86.6791 
          -5      12.7558  0.000137568  1.17187e-05      86.6785 
          -5      12.8656  0.000137453  1.21106e-05       86.678 
          -5      12.9757  0.000137305  1.24833e-05      86.6774 
          -5      13.0864  0.000137168  1.28112e-05      86.6768 
          -5      13.1975  0.000137053  1.31028e-05      86.6762 
          -5      13.3092  0.000136967   1.3365e-05      86.6755 
          -5      13.4212  0.000136916  1.36021e-05      86.6749 
          -5      13.5338  0.000136897  1.38181e-05      86.6742 
          -5      13.6468  0.000136907  1.40167e-05      86.6736 
          -5      13.7603  0.000136935  1.42035e-05      86.6729 
          -5      13.8743  0.000136967  1.43885e-05      86.6722 
          -5      13.9886  0.000136983  1.45869e-05      86.6715 
          -5      14.1036  0.000136958  1.48239e-05      86.6707 
          -5      14.2189  0.000136688   1.4995e-05        86.67 
          -5      14.3348  0.000136298  1.49483e-05      86.6693 
          -5       14.451  0.000136085  1.48776e-05      86.6685 
          -5      14.5678   0.00013599  1.48163e-05      86.6677 
          -5      14.6851  0.000135969  1.47875e-05      86.6669 
          -5      14.8028  0.000135987  1.48048e-05      86.6661 
          -5       14.921  0.000136018  1.48742e-05      86.6653 
          -5      15.0396  0.000136043  1.49948e-05      86.6644 
          -5      15.1588  0.000136054  1.51606e-05      86.6636 
          -5      15.2783  0.000136043  1.53611e-05      86.6627 
          -5      15.3984  0.000136011  1.55829e-05      86.6618 
          -5       15.519  0.000135959  1.58103e-05      86.6609 
          -5        15.64  0.000135893  1.60262e-05        86.66 
          -5      15.7615  0.000135817  1.62135e-05       86.659 
          -5      15.8834  0.000135739  1.63548e-05      86.6581 
          -5      16.0058  0.000135662   1.6434e-05      86.6571 
          -5      16.1286  0.000135635    1.651e-05      86.6562 
          -5       16.252  0.000135669  1.66101e-05      86.6552 
          -5      16.3759   0.00013573  1.66976e-05      86.6542 
          -5      16.5002  0.000135802  1.67658e-05      86.6531 
          -5       16.625  0.000135863  1.68087e-05      86.6521 
          -5      16.7501  0.000135897  1.68208e-05       86.651 
          -5      16.8759  0.000135887  1.67988e-05        86.65 
          -5       17.002  0.000135824  1.67426e-05      86.6489 
          -5      17.1287  0.000135705  1.66567e-05      86.6478 
          -5      17.2557   0.00013554  1.65525e-05      86.6466 
          -5      17.3834   0.00013535  1.64501e-05      86.6455 
          -5      17.5115  0.000135177   1.6381e-05      86.6443 
          -5      17.6399  0.000135083  1.63913e-05      86.6432 
          -5       17.769  0.000135153  1.65445e-05       86.642 
          -5      17.8984  0.000134928  1.65686e-05      86.6408 
          -5      18.0284   0.00013476   1.6601e-05      86.6395 
          -5      18.1587  0.000134648  1.66539e-05      86.6383 
          -5      18.2896  0.000134552  1.67176e-05      86.6371 
          -5       18.421  0.000134446  1.67889e-05      86.6358 
          -5      18.5528  0.000134317  1.68702e-05      86.6345 
          -5      18.6851  0.000134163  1.69699e-05      86.6332 
          -5      18.8178   0.00013399  1.71007e-05      86.6319 
          -5      18.9511  0.000133812  1.72801e-05      86.6305 
          -5      19.0847  0.000133649  1.75288e-05      86.6292 
          -5      19.2189  0.000133569  1.76712e-05      86.6278 
          -5      19.3535  0.000133556  1.74893e-05      86.6264 
          -5      19.4886   0.00013352  1.73204e-05       86.625 
          -5      19.6242  0.000133477  1.71831e-05      86.6236 
          -5      19.7602  0.000133439   1.7086e-05      86.6221 
          -5      19.8968  0.000133415  1.70293e-05      86.6207 
          -5      20.0337  0.000133412  1.70073e-05      86.6192 
          -5      20.1712  0.000133434  1.70103e-05      86.6177 
          -5      20.3091  0.000133483  1.70262e-05      86.6162 
          -5      20.4475  0.000133557  1.70433e-05      86.6146 
          -5      20.5864  0.000133652  1.70518e-05      86.6131 
          -5      20.7257   0.00013376  1.70458e-05      86.6115 
          -5      20.8655   0.00013387   1.7026e-05      86.6099 
          -5      21.0058  0.000133969  1.70011e-05      86.6083 
          -5      21.1465  0.000134036    1.699e-05      86.6067 
          -5      21.2877  0.000134048  1.70242e-05       86.605 
          -5      21.4294  0.000133978  1.71494e-05      86.6034 
          -5      21.5716  0.000133788  1.74277e-05      86.6017 
          -5      21.7142  0.000133664   1.7475e-05         86.6 
          -5      21.8573  0.000133661  1.74975e-05      86.5983 
          -5      22.0008  0.000133691   1.7601e-05      86.5965 
          -5      22.1449  0.000133712  1.77824e-05      86.5948 
          -5      22.2893  0.000133704  1.80271e-05       86.593 
          -5      22.4344   0.00013366  1.83138e-05      86.5912 
          -5      22.5797  0.000133585  1.86165e-05      86.5894 
          -5      22.7257  0.000133485  1.89095e-05      86.5876 
          -5      22.8721  0.000133367  1.91694e-05      86.5857 
          -5      23.0189  0.000133232   1.9379e-05      86.5839 
          -5      23.1663  0.000133067  1.95302e-05       86.582 
          -5       23.314  0.000132845  1.96261e-05      86.5801 
          -5      23.4623  0.000132597  1.97499e-05      86.5782 
          -5       23.611  0.000132607  2.00874e-05      86.5762 
          -5      23.7602  0.000132579  2.03262e-05      86.5743 
          -5        23.91  0.000132522  2.04813e-05      86.5723 
          -5        24.06  0.000132446  2.05678e-05      86.5703 
          -5      24.2107  0.000132359  2.06009e-05      86.5683 
          -5      24.3617  0.000132267  2.05948e-05      86.5662 
          -5      24.5133  0.000132178  2.05633e-05      86.5642 
          -5      24.6653  0.000132095  2.05189e-05      86.5621 
          -5      24.8178   0.00013202  2.04735e-05        86.56 
          -5      24.9708  0.000131954  2.04383e-05      86.5579 
          -5      25.1242  0.000131892  2.04244e-05      86.5557 
          -5      25.2781  0.000131823   2.0443e-05      86.5536 
          -5      25.4324  0.000131734  2.05061e-05      86.5514 
          -5      25.5873  0.000131601  2.06278e-05      86.5492 
          -5      25.7426  0.000131393  2.08246e-05       86.547 
          -5      25.8984  0.000131068  2.11178e-05      86.5447 
          -5      26.0546  0.000130572  2.15334e-05      86.5425 
          -5      26.2114  0.000130884  2.15845e-05      86.5402 
          -5      26.3686   0.00013146  2.14349e-05      86.5379 
          -5      26.5262  0.000131694  2.13999e-05      86.5356 
          -5      26.6844    0.0001317  2.14586e-05      86.5332 
          -5      26.8429  0.000131569  2.15905e-05      86.5309 
          -5       27.002  0.000131369  2.17765e-05      86.5285 
          -5      27.1615  0.000131149  2.19989e-05      86.5261 
          -5      27.3216  0.000130945  2.22427e-05      86.5237 
          -5      27.4821  0.000130776  2.24951e-05      86.5213 
          -5       27.643  0.000130651  2.27457e-05      86.5188 
          -5      27.8044  0.000130572  2.29879e-05      86.5163 
          -5      27.9663  0.000130533  2.32168e-05      86.5138 
          -5      28.1287  0.000130523  2.34311e-05      86.5113 
          -5      28.2914  0.000130531  2.36313e-05      86.5088 
          -5      28.4548  0.000130542    2.382e-05      86.5062 
          -5      28.6185  0.000130544  2.40007e-05      86.5036 
          -5      28.7828  0.000130526  2.41781e-05       86.501 
          -5      28.9475  0.000130481  2.43556e-05      86.4984 
          -5      29.1126  0.000130406  2.45352e-05      86.4957 
          -5      29.2784  0.000130301  2.47159e-05      86.4931 
          -5      29.4444  0.000130174  2.48919e-05      86.4904 
          -5       29.611  0.000130036  2.50511e-05      86.4877 
          -5       29.778  0.000129904  2.51727e-05       86.485 
          -5      29.9456    0.0001298  2.52254e-05      86.4822 
          -5      30.1137  0.000129749  2.51643e-05      86.4794 
          -5      30.2821  0.000129779  2.49286e-05      86.4766 
          -5      30.4511  0.000129916  2.44936e-05      86.4738 
          -5      30.6204  0.000129992   2.5017e-05       86.471 
          -5      30.7903  0.000129996  2.54076e-05      86.4681 
          -5      30.9606  0.000129939  2.56701e-05      86.4653 
          -5      31.1315  0.000129834   2.5819e-05      86.4624 
          -5      31.3028   0.00012969  2.58761e-05      86.4595 
          -5      31.4745   0.00012952  2.58699e-05      86.4565 
          -5      31.6468  0.000129335  2.58346e-05      86.4536 
          -5      31.8194  0.000129147  2.58088e-05      86.4506 
          -5      31.9926   0.00012897  2.58347e-05      86.4476 
          -5      32.1662  0.000128821  2.59565e-05      86.4446 
          -5      32.3404  0.000128717  2.62198e-05      86.4415 
          -5      32.5149  0.000128679  2.66695e-05      86.4385 
          -5        32.69   0.00012873  2.73503e-05      86.4354 
          -5      32.8655  0.000128639  2.74565e-05      86.4323 
          -5      33.0414  0.000128408   2.7071e-05      86.4291 
          -5       33.218  0.000128224  2.68309e-05       86.426 
          -5      33.3948  0.000128081  2.67124e-05      86.4228 
          -5      33.5723  0.000127971  2.66926e-05      86.4196 
          -5        33.75  0.000127887  2.67507e-05      86.4164 
          -5      33.9284  0.000127824  2.68673e-05      86.4132 
          -5      34.1073  0.000127776  2.70248e-05      86.4099 
          -5      34.2865  0.000127737  2.72073e-05      86.4067 
          -5      34.4663  0.000127702   2.7401e-05      86.4034 
          -5      34.6465  0.000127668  2.75937e-05         86.4 
          -5      34.8272   0.00012763  2.77757e-05      86.3967 
          -5      35.0083  0.000127586  2.79384e-05      86.3933 
          -5        35.19  0.000127532  2.80761e-05        86.39 
          -5      35.3721  0.000127467  2.81843e-05      86.3866 
          -5      35.5546  0.000127391  2.82608e-05      86.3831 
          -5      35.7377  0.000127302  2.83054e-05      86.3797 
          -5      35.9211  0.000127201  2.83194e-05      86.3762 
          -5      36.1052  0.000127087  2.83061e-05      86.3727 
          -5      36.2895  0.000126962  2.82705e-05      86.3692 
          -5      36.4745  0.000126828  2.82189e-05      86.3657 
          -5      36.6598  0.000126685  2.81593e-05      86.3621 
          -5      36.8457  0.000126535  2.81008e-05      86.3586 
          -5      37.0321  0.000126379  2.80537e-05       86.355 
          -5      37.2188   0.00012622  2.80294e-05      86.3514 
          -5      37.4062  0.000126057  2.80397e-05      86.3477 
          -5      37.5938  0.000125891  2.80968e-05      86.3441 
          -5      37.7821  0.000125721  2.82135e-05      86.3404 
          -5      37.9707  0.000125545   2.8402e-05      86.3367 
          -5      38.1599  0.000125618  2.88112e-05       86.333 
          -5      38.3496  0.000125619  2.91239e-05      86.3292 
          -5      38.5396  0.000125546  2.93381e-05      86.3255 
          -5      38.7302  0.000125405  2.94577e-05      86.3217 
          -5      38.9211  0.000125207  2.94914e-05      86.3179 
          -5      39.1127  0.000124965  2.94531e-05       86.314 
          -5      39.3046    0.0001247  2.93609e-05      86.3102 
          -5      39.4971  0.000124437  2.92371e-05      86.3063 
          -5      39.6899  0.000124206  2.91077e-05      86.3024 
          -5      39.8833  0.000124038  2.90012e-05      86.2985 
          -5      40.0772  0.000123971  2.89485e-05      86.2946 
          -5      40.2714  0.000124045  2.89812e-05      86.2906 
          -5      40.4663    0.0001243  2.91316e-05      86.2867 
          -5      40.6615   0.00012478  2.94302e-05      86.2827 
          -5      40.8573  0.000125529   2.9906e-05      86.2787 
          -5      41.0534  0.000125308  2.99237e-05      86.2746 
          -5      41.2501   0.00012486   2.9894e-05      86.2706 
          -5      41.4473  0.000124532  3.00112e-05      86.2665 
          -5      41.6448  0.000124278  3.02704e-05      86.2624 
          -5      41.8429  0.000124048  3.06714e-05      86.2583 
          -5      42.0414  0.000123784  3.12171e-05      86.2542 
          -5      42.2405  0.000123428   3.1916e-05        86.25 
          -5      42.4399  0.000123021  3.24902e-05      86.2458 
          -5      42.6399  0.000122919  3.20771e-05      86.2416 
          -5      42.8404  0.000122803  3.17056e-05      86.2374 
          -5      43.0412  0.000122683  3.13778e-05      86.2332 
          -5      43.2426  0.000122564   3.1093e-05      86.2289 
          -5      43.4444  0.000122452  3.08506e-05      86.2246 
          -5      43.6467  0.000122348  3.06481e-05      86.2203 
          -5      43.8494  0.000122253  3.04828e-05       86.216 
          -5      44.0527  0.000122168  3.03508e-05      86.2117 
          -5      44.2563  0.000122089  3.02483e-05      86.2073 
          -5      44.4606  0.000122016   3.0171e-05      86.2029 
          -5      44.6653  0.000121944  3.01146e-05      86.1985 
          -5      44.8704  0.000121872  3.00748e-05      86.1941 
          -5       45.076  0.000121796  3.00478e-05      86.1897 
          -5       45.282  0.000121714  3.00297e-05      86.1852 
          -5      45.4886  0.000121623  3.00174e-05      86.1807 
          -5      45.6955  0.000121521  3.00081e-05      86.1762 
          -5       45.903  0.000121408  2.99997e-05      86.1717 
          -5      46.1111  0.000121282  2.99907e-05      86.1672 
          -5      46.3194  0.000121145  2.99803e-05      86.1626 
          -5      46.5283  0.000120995  2.99681e-05       86.158 
          -5      46.7376  0.000120837  2.99546e-05      86.1535 
          -5      46.9475   0.00012067  2.99406e-05      86.1488 
          -5      47.1577    0.0001205  2.99276e-05      86.1442 
          -5      47.3685  0.000120327  2.99173e-05      86.1396 
          -5      47.5798  0.000120157  2.99118e-05      86.1349 
          -5      47.7914  0.000119993  2.99131e-05      86.1302 
          -5      48.0037  0.000119837  2.99231e-05      86.1255 