Variables = x, y, u, v, p

Zone, I=800, F=POINT
         550            0            0            0      2.77882 
         550     0.000234  -5.0516e-06 -1.41787e-11      2.77882 
         550     0.000939  -1.9279e-05  -2.2668e-10      2.77882 
         550     0.002113  -3.9928e-05 -1.14689e-09      2.77882 
         550     0.003759 -6.33313e-05 -3.63063e-09      2.77882 
         550     0.005872 -8.57067e-05 -8.86558e-09      2.77882 
         550     0.008457 -0.000104399 -1.84059e-08      2.77882 
         550      0.01151  -0.00011839  -3.4128e-08      2.77882 
         550     0.015036  -0.00012864 -5.83004e-08      2.77882 
         550     0.019031 -0.000137571 -9.34875e-08      2.77882 
         550     0.023493 -0.000148109 -1.42586e-07      2.77882 
         550     0.028429 -0.000162411 -2.08932e-07      2.77882 
         550     0.033831 -0.000180707 -2.95988e-07      2.77882 
         550     0.039706  -0.00020106 -4.07726e-07      2.77882 
         550     0.046047 -0.000220189 -5.48135e-07      2.77882 
         550     0.052863 -0.000235764 -7.21778e-07      2.77882 
         550      0.06015 -0.000248935 -9.33131e-07      2.77882 
         550       0.0679 -0.000264927 -1.18662e-06      2.77882 
         550     0.076126   -0.0002865 -1.48743e-06      2.77882 
         550     0.084816  -0.00029741 -1.83991e-06      2.77882 
         550     0.093982 -0.000313789 -2.24934e-06      2.77882 
         550     0.103611 -0.000327999 -2.71981e-06      2.77882 
         550     0.113718 -0.000340557 -3.25652e-06      2.77882 
         550     0.124286 -0.000351779 -3.86284e-06      2.77882 
         550     0.135333 -0.000361852 -4.54379e-06      2.77882 
         550      0.14685 -0.000370773 -5.30254e-06      2.77882 
         550     0.158827 -0.000378434 -6.14162e-06      2.77882 
         550     0.171284  -0.00038471 -7.06526e-06      2.77882 
         550     0.184201 -0.000389508 -8.07435e-06      2.77882 
         550     0.197599 -0.000392877 -9.17237e-06      2.77882 
         550     0.211455 -0.000394999 -1.03588e-05      2.77882 
         550     0.225792 -0.000396104 -1.16365e-05      2.77882 
         550       0.2406 -0.000396151 -1.30052e-05      2.77882 
         550     0.255865 -0.000394775 -1.44636e-05      2.77882 
         550     0.271613 -0.000392719 -1.60133e-05      2.77882 
         550     0.287818 -0.000389794  -1.7651e-05      2.77882 
         550     0.304506  -0.00038612 -1.93783e-05      2.77882 
         550      0.32165 -0.000381831 -2.11911e-05      2.77882 
         550     0.339278  -0.00037704 -2.30907e-05      2.77882 
         550     0.357377  -0.00037187  -2.5074e-05      2.77882 
         550      0.37593 -0.000366439  -2.7137e-05      2.77882 
         550     0.394968 -0.000360844 -2.92811e-05      2.77882 
         550     0.414461 -0.000355193 -3.15009e-05      2.77882 
         550      0.43444  -0.00034957 -3.37979e-05      2.77882 
         550     0.454872 -0.000344073 -3.61666e-05      2.77882 
         550     0.475791 -0.000338771 -3.86093e-05      2.77882 
         550     0.497163 -0.000333752 -4.11206e-05      2.77882 
         550     0.519021 -0.000329078 -4.37032e-05      2.77882 
         550      0.54135 -0.000324818 -4.63539e-05      2.77882 
         550     0.564131 -0.000321033 -4.90691e-05      2.77882 
         550       0.5874 -0.000317758 -5.18511e-05      2.77882 
         550     0.611121 -0.000315027 -5.46934e-05      2.77882 
         550      0.63533 -0.000312916  -5.7606e-05      2.77882 
         550      0.65999 -0.000311393 -6.05772e-05      2.77882 
         550     0.685139 -0.000310491 -6.36115e-05      2.77882 
         550     0.710759 -0.000310237  -6.6706e-05      2.77882 
         550     0.736828  -0.00031064 -6.98569e-05      2.77882 
         550     0.763387 -0.000311697 -7.30676e-05      2.77882 
         550     0.790396 -0.000313389 -7.63311e-05      2.77882 
         550     0.817896 -0.000315686 -7.96497e-05      2.77882 
         550     0.845843 -0.000318537  -8.3015e-05      2.77882 
         550     0.874283 -0.000321885 -8.64286e-05      2.77882 
         550      0.90317 -0.000325652 -8.98808e-05      2.77882 
         550     0.932551 -0.000329755 -9.33721e-05      2.77882 
         550     0.962401 -0.000334096 -9.68941e-05      2.77882 
         550     0.992697 -0.000338563 -0.000100438      2.77882 
         550      1.02349 -0.000343051 -0.000104003      2.77882 
         550      1.05472 -0.000347433 -0.000107577      2.77882 
         550      1.08645 -0.000351597 -0.000111158      2.77882 
         550      1.11863 -0.000355415 -0.000114732      2.77882 
         550       1.1513 -0.000358777 -0.000118298      2.77882 
         550      1.18444  -0.00036157 -0.000121845      2.77882 
         550      1.21802 -0.000363696 -0.000125362      2.77882 
         550      1.25211 -0.000365071 -0.000128849      2.77882 
         550      1.28663 -0.000365629 -0.000132292      2.77882 
         550      1.32165 -0.000365322 -0.000135692      2.77882 
         550      1.35712 -0.000364132 -0.000139037      2.77882 
         550      1.39308 -0.000362061 -0.000142331      2.77882 
         550      1.42951 -0.000359146 -0.000145569      2.77882 
         550      1.46638 -0.000355457 -0.000148749      2.77882 
         550      1.50375  -0.00035109 -0.000151879      2.77882 
         550      1.54156 -0.000345758   -0.0001549      2.77882 
         550      1.57987 -0.000340063 -0.000157866      2.77882 
         550      1.61863 -0.000334085 -0.000160772      2.77882 
         550      1.65788 -0.000327848 -0.000163622      2.77882 
         550      1.69757 -0.000321393 -0.000166406      2.77882 
         550      1.73776 -0.000314737 -0.000169128      2.77882 
         550      1.77842 -0.000307912 -0.000171781      2.77882 
         550      1.81952 -0.000300948 -0.000174362      2.77882 
         550      1.86113 -0.000293854 -0.000176871      2.77882 
         550      1.90316 -0.000286661 -0.000179303      2.77882 
         550      1.94571 -0.000279374 -0.000181658      2.77882 
         550      1.98869 -0.000272019 -0.000183931      2.77882 
         550      2.03217 -0.000264597 -0.000186123      2.77882 
         550      2.07612 -0.000257124 -0.000188229      2.77882 
         550      2.12051 -0.000249614 -0.000190245      2.77882 
         550       2.1654 -0.000242064 -0.000192173      2.77882 
         550      2.21073 -0.000234489 -0.000194007      2.77882 
         550      2.25656 -0.000226884 -0.000195748      2.77882 
         550      2.30283 -0.000219262  -0.00019739      2.77883 
         550       2.3496 -0.000211617 -0.000198934      2.77883 
         550      2.39685 -0.000203956 -0.000200377      2.77883 
         550      2.44452 -0.000196288 -0.000201715      2.77883 
         550      2.49271 -0.000188604 -0.000202948      2.77883 
         550      2.54132 -0.000180919 -0.000204073      2.77883 
         550      2.59044 -0.000173228 -0.000205089      2.77883 
         550         2.64 -0.000165546 -0.000205992      2.77883 
         550      2.69006 -0.000157869 -0.000206783      2.77883 
         550      2.74056 -0.000150218 -0.000207458      2.77883 
         550      2.79156 -0.000142591 -0.000208016      2.77883 
         550      2.84304 -0.000135006 -0.000208457      2.77883 
         550      2.89494 -0.000127483 -0.000208778      2.77883 
         550      2.94735 -0.000120026 -0.000208979      2.77883 
         550       3.0002 -0.000112662 -0.000209059      2.77883 
         550      3.05355 -0.000105398 -0.000209019      2.77883 
         550      3.10733 -9.82652e-05 -0.000208858      2.77883 
         550      3.16163 -9.12696e-05 -0.000208578      2.77883 
         550      3.21639 -8.44346e-05  -0.00020818      2.77883 
         550      3.27158 -7.77812e-05 -0.000207667      2.77883 
         550      3.32729 -7.13108e-05 -0.000207042      2.77883 
         550      3.38342  -6.5041e-05  -0.00020631      2.77883 
         550      3.44007 -5.89625e-05 -0.000205474      2.77883 
         550      3.49714 -5.30762e-05 -0.000204545      2.77883 
         550      3.55472 -4.73527e-05 -0.000203528      2.77883 
         550      3.61273 -4.17661e-05 -0.000202437      2.77883 
         550      3.67125 -3.62548e-05 -0.000201281      2.77883 
         550      3.73025 -3.07482e-05 -0.000200076      2.77883 
         550      3.78967 -2.54812e-05 -0.000198668      2.77883 
         550      3.84961 -2.06176e-05 -0.000197123      2.77884 
         550      3.90996  -1.6055e-05 -0.000195527      2.77884 
         550      3.97084 -1.17309e-05 -0.000193894      2.77884 
         550      4.03214  -7.6537e-06 -0.000192206      2.77884 
         550      4.09395 -3.80946e-06 -0.000190454      2.77884 
         550      4.15624 -1.87483e-07 -0.000188639      2.77884 
         550      4.21895  3.22216e-06 -0.000186762      2.77884 
         550      4.28217  6.43579e-06  -0.00018482      2.77884 
         550      4.34582  9.45797e-06 -0.000182817      2.77884 
         550      4.40998  1.23017e-05  -0.00018075      2.77884 
         550      4.47457  1.49693e-05 -0.000178624      2.77884 
         550      4.53968  1.74709e-05 -0.000176438      2.77884 
         550      4.60525  1.98088e-05 -0.000174195      2.77884 
         550      4.67125  2.19849e-05   -0.0001719      2.77884 
         550      4.73777  2.40054e-05 -0.000169553      2.77884 
         550       4.8047  2.58689e-05 -0.000167161      2.77884 
         550      4.87216  2.75796e-05 -0.000164724      2.77884 
         550      4.94003  2.91352e-05 -0.000162251      2.77884 
         550      5.00843  3.05386e-05 -0.000159741      2.77884 
         550      5.07724  3.17872e-05 -0.000157204      2.77885 
         550      5.14658  3.28829e-05 -0.000154642      2.77885 
         550      5.21639   3.3824e-05 -0.000152062      2.77885 
         550      5.28661  3.46099e-05 -0.000149471      2.77885 
         550      5.35736  3.52418e-05 -0.000146872      2.77885 
         550      5.42852  3.57189e-05 -0.000144274      2.77885 
         550      5.50021  3.60429e-05  -0.00014168      2.77885 
         550      5.57231  3.62147e-05 -0.000139099      2.77885 
         550      5.64493  3.62367e-05 -0.000136533      2.77885 
         550      5.71803  3.61118e-05 -0.000133991      2.77885 
         550      5.79154   3.5844e-05 -0.000131479      2.77885 
         550      5.86558  3.54379e-05 -0.000128998      2.77885 
         550      5.94003     3.49e-05 -0.000126557      2.77885 
         550      6.01501  3.42366e-05 -0.000124155      2.77885 
         550       6.0904  3.34568e-05   -0.0001218      2.77885 
         550      6.16632  3.25686e-05 -0.000119491      2.77885 
         550      6.24271   3.1583e-05 -0.000117229      2.77885 
         550       6.3195  3.05121e-05 -0.000115018      2.77885 
         550      6.39683  2.93664e-05 -0.000112851      2.77885 
         550      6.47457  2.81606e-05  -0.00011073      2.77886 
         550      6.55284  2.69061e-05 -0.000108647      2.77886 
         550      6.63152  2.56189e-05 -0.000106598      2.77886 
         550      6.71073  2.43104e-05 -0.000104571      2.77886 
         550      6.79034  2.29769e-05 -0.000102585      2.77886 
         550      6.87049  2.16032e-05  -0.00010066      2.77886 
         550      6.95111  2.02347e-05 -9.87478e-05      2.77886 
         550      7.03214  1.88722e-05 -9.68621e-05      2.77886 
         550       7.1137  1.75139e-05 -9.50085e-05      2.77886 
         550      7.19566  1.61632e-05 -9.31951e-05      2.77886 
         550      7.27816  1.48197e-05 -9.14214e-05      2.77886 
         550      7.36106  1.34878e-05 -8.96901e-05      2.77886 
         550      7.44451  1.21673e-05 -8.79965e-05      2.77886 
         550      7.52842  1.08614e-05  -8.6339e-05      2.77886 
         550      7.61273  9.57286e-06 -8.47151e-05      2.77886 
         550      7.69758   8.3009e-06 -8.31181e-05      2.77886 
         550      7.78283  7.04839e-06 -8.15467e-05      2.77886 
         550      7.86862  5.81352e-06  -7.9995e-05      2.77886 
         550      7.95481  4.59785e-06  -7.8463e-05      2.77886 
         550      8.04155  3.39844e-06 -7.69467e-05      2.77887 
         550      8.12868  2.21569e-06 -7.54484e-05      2.77887 
         550      8.21635  1.04581e-06 -7.39667e-05      2.77887 
         550      8.30449 -1.12314e-07 -7.25052e-05      2.77887 
         550      8.39303 -1.25976e-06 -7.10683e-05      2.77887 
         550      8.48211 -2.39987e-06 -6.96581e-05      2.77887 
         550      8.57159 -3.53146e-06 -6.82812e-05      2.77887 
         550      8.66161 -4.65554e-06 -6.69399e-05      2.77887 
         550      8.75203 -5.76746e-06 -6.56397e-05      2.77887 
         550      8.84299 -6.86334e-06 -6.43801e-05      2.77887 
         550      8.93443 -7.93293e-06 -6.31604e-05      2.77887 
         550      9.02626 -8.96144e-06 -6.19757e-05      2.77887 
         550      9.11863  -9.9307e-06 -6.08122e-05      2.77887 
         550      9.21139 -1.08123e-05 -5.96518e-05      2.77887 
         550      9.30471 -1.15775e-05 -5.84236e-05      2.77887 
         550      9.39841 -1.23463e-05 -5.72273e-05      2.77887 
         550      9.49267 -1.31818e-05 -5.60728e-05      2.77887 
         550      9.58739 -1.41506e-05 -5.49587e-05      2.77887 
         550      9.68251 -1.51724e-05 -5.38944e-05      2.77887 
         550      9.77817 -1.60667e-05 -5.28409e-05      2.77887 
         550      9.87422 -1.69183e-05 -5.17855e-05      2.77888 
         550      9.97083 -1.77478e-05 -5.07333e-05      2.77888 
         550      10.0678 -1.85672e-05 -4.96919e-05      2.77888 
         550      10.1654 -1.93862e-05 -4.86646e-05      2.77888 
         550      10.2633 -2.02078e-05  -4.7657e-05      2.77888 
         550      10.3618 -2.10344e-05 -4.66705e-05      2.77888 
         550      10.4607 -2.18635e-05 -4.57081e-05      2.77888 
         550      10.5601 -2.26911e-05 -4.47718e-05      2.77888 
         550        10.66 -2.35138e-05 -4.38602e-05      2.77888 
         550      10.7603 -2.43251e-05 -4.29746e-05      2.77888 
         550      10.8611 -2.51211e-05 -4.21123e-05      2.77888 
         550      10.9623 -2.58959e-05 -4.12728e-05      2.77888 
         550      11.0641 -2.66471e-05 -4.04525e-05      2.77888 
         550      11.1663 -2.73717e-05 -3.96493e-05      2.77888 
         550       11.269 -2.80683e-05 -3.88608e-05      2.77888 
         550      11.3721 -2.87392e-05 -3.80827e-05      2.77888 
         550      11.4757 -2.93858e-05 -3.73133e-05      2.77888 
         550      11.5798 -3.00135e-05 -3.65485e-05      2.77888 
         550      11.6844 -3.06271e-05 -3.57875e-05      2.77888 
         550      11.7894 -3.12343e-05 -3.50276e-05      2.77888 
         550       11.895 -3.18416e-05 -3.42694e-05      2.77888 
         550      12.0009 -3.24554e-05 -3.35144e-05      2.77888 
         550      12.1073 -3.30821e-05 -3.27646e-05      2.77888 
         550      12.2142 -3.37237e-05  -3.2026e-05      2.77889 
         550      12.3216 -3.43805e-05 -3.13054e-05      2.77889 
         550      12.4294 -3.50451e-05 -3.06144e-05      2.77889 
         550      12.5378 -3.57046e-05 -2.99663e-05      2.77889 
         550      12.6465 -3.63349e-05 -2.93805e-05      2.77889 
         550      12.7558 -3.69014e-05 -2.88789e-05      2.77889 
         550      12.8656 -3.74751e-05 -2.83018e-05      2.77889 
         550      12.9757  -3.8083e-05 -2.76178e-05      2.77889 
         550      13.0864 -3.86365e-05 -2.69812e-05      2.77889 
         550      13.1975 -3.91431e-05 -2.63789e-05      2.77889 
         550      13.3092 -3.96103e-05 -2.57925e-05      2.77889 
         550      13.4212 -4.00424e-05 -2.52022e-05      2.77889 
         550      13.5338  -4.0443e-05 -2.45838e-05      2.77889 
         550      13.6468 -4.08125e-05 -2.39118e-05      2.77889 
         550      13.7603 -4.12642e-05 -2.33214e-05      2.77889 
         550      13.8743 -4.19136e-05 -2.30117e-05      2.77889 
         550      13.9886 -4.25112e-05 -2.26609e-05      2.77889 
         550      14.1036 -4.30625e-05 -2.22743e-05      2.77889 
         550      14.2189 -4.35717e-05 -2.18586e-05      2.77889 
         550      14.3348 -4.40449e-05 -2.14194e-05      2.77889 
         550       14.451 -4.44869e-05  -2.0963e-05      2.77889 
         550      14.5678 -4.49039e-05 -2.04946e-05      2.77889 
         550      14.6851  -4.5301e-05 -2.00197e-05      2.77889 
         550      14.8028 -4.56827e-05 -1.95435e-05      2.77889 
         550       14.921 -4.60545e-05 -1.90696e-05      2.77889 
         550      15.0396 -4.64198e-05 -1.86023e-05      2.77889 
         550      15.1588 -4.67828e-05 -1.81438e-05       2.7789 
         550      15.2783 -4.71456e-05  -1.7697e-05       2.7789 
         550      15.3984 -4.75109e-05 -1.72629e-05       2.7789 
         550       15.519 -4.78797e-05 -1.68424e-05       2.7789 
         550        15.64 -4.82522e-05 -1.64362e-05       2.7789 
         550      15.7615 -4.86287e-05 -1.60428e-05       2.7789 
         550      15.8834 -4.90075e-05  -1.5662e-05       2.7789 
         550      16.0058 -4.93876e-05 -1.52917e-05       2.7789 
         550      16.1286 -4.97661e-05 -1.49305e-05       2.7789 
         550       16.252 -5.01408e-05  -1.4576e-05       2.7789 
         550      16.3759 -5.05085e-05 -1.42268e-05       2.7789 
         550      16.5002 -5.08657e-05 -1.38816e-05       2.7789 
         550       16.625 -5.12103e-05 -1.35391e-05       2.7789 
         550      16.7501 -5.15393e-05 -1.31999e-05       2.7789 
         550      16.8759 -5.18516e-05 -1.28652e-05       2.7789 
         550       17.002 -5.21464e-05 -1.25388e-05       2.7789 
         550      17.1287 -5.24253e-05 -1.22257e-05       2.7789 
         550      17.2557 -5.26913e-05 -1.19349e-05       2.7789 
         550      17.3834 -5.29509e-05 -1.16777e-05       2.7789 
         550      17.5115 -5.32133e-05 -1.14703e-05       2.7789 
         550      17.6399 -5.34915e-05 -1.13332e-05       2.7789 
         550       17.769 -5.38487e-05 -1.10705e-05       2.7789 
         550      17.8984 -5.42051e-05 -1.07498e-05       2.7789 
         550      18.0284 -5.45287e-05 -1.04655e-05       2.7789 
         550      18.1587 -5.48248e-05 -1.02074e-05       2.7789 
         550      18.2896 -5.50989e-05  -9.9662e-06       2.7789 
         550       18.421 -5.53553e-05 -9.73487e-06       2.7789 
         550      18.5528 -5.55981e-05 -9.50808e-06       2.7789 
         550      18.6851 -5.58313e-05 -9.28142e-06       2.7789 
         550      18.8178 -5.60577e-05 -9.05266e-06       2.7789 
         550      18.9511 -5.62801e-05 -8.82009e-06      2.77891 
         550      19.0847 -5.65004e-05  -8.5839e-06      2.77891 
         550      19.2189 -5.67203e-05 -8.34454e-06      2.77891 
         550      19.3535 -5.69404e-05 -8.10407e-06      2.77891 
         550      19.4886 -5.71615e-05 -7.86449e-06      2.77891 
         550      19.6242 -5.73832e-05 -7.62891e-06      2.77891 
         550      19.7602 -5.76046e-05 -7.40082e-06      2.77891 
         550      19.8968 -5.78245e-05 -7.18332e-06      2.77891 
         550      20.0337 -5.80408e-05 -6.98021e-06      2.77891 
         550      20.1712 -5.82512e-05 -6.79445e-06      2.77891 
         550      20.3091 -5.84522e-05 -6.62918e-06      2.77891 
         550      20.4475 -5.86405e-05 -6.48635e-06      2.77891 
         550      20.5864 -5.88115e-05 -6.36748e-06      2.77891 
         550      20.7257 -5.89604e-05  -6.2729e-06      2.77891 
         550      20.8655 -5.90819e-05 -6.20139e-06      2.77891 
         550      21.0058 -5.91698e-05 -6.15043e-06      2.77891 
         550      21.1465 -5.92179e-05 -6.11541e-06      2.77891 
         550      21.2877 -5.93752e-05 -5.94667e-06      2.77891 
         550      21.4294  -5.9648e-05 -5.70677e-06      2.77891 
         550      21.5716  -5.9914e-05 -5.51369e-06      2.77891 
         550      21.7142 -6.01671e-05  -5.3557e-06      2.77891 
         550      21.8573 -6.04026e-05 -5.22178e-06      2.77891 
         550      22.0008  -6.0616e-05 -5.10269e-06      2.77891 
         550      22.1449 -6.08045e-05 -4.99026e-06      2.77891 
         550      22.2893 -6.09663e-05 -4.87842e-06      2.77891 
         550      22.4344 -6.11013e-05 -4.76271e-06      2.77891 
         550      22.5797 -6.12109e-05 -4.64129e-06      2.77891 
         550      22.7257 -6.12989e-05  -4.5145e-06      2.77891 
         550      22.8721 -6.13714e-05 -4.38586e-06      2.77891 
         550      23.0189 -6.14368e-05 -4.26212e-06      2.77891 
         550      23.1663 -6.15071e-05 -4.15339e-06      2.77891 
         550       23.314 -6.15974e-05 -4.07413e-06      2.77891 
         550      23.4623 -6.17269e-05 -4.04304e-06      2.77891 
         550       23.611 -6.19191e-05 -4.08391e-06      2.77892 
         550      23.7602 -6.22026e-05 -4.22605e-06      2.77892 
         550        23.91  -6.2355e-05 -3.95182e-06      2.77892 
         550        24.06 -6.24594e-05 -3.67861e-06      2.77892 
         550      24.2107  -6.2557e-05 -3.48933e-06      2.77892 
         550      24.3617 -6.26497e-05 -3.36338e-06      2.77892 
         550      24.5133 -6.27393e-05 -3.28292e-06      2.77892 
         550      24.6653 -6.28267e-05  -3.2335e-06      2.77892 
         550      24.8178 -6.29129e-05 -3.20318e-06      2.77892 
         550      24.9708 -6.29984e-05 -3.18263e-06      2.77892 
         550      25.1242 -6.30834e-05 -3.16477e-06      2.77892 
         550      25.2781 -6.31682e-05 -3.14443e-06      2.77892 
         550      25.4324 -6.32526e-05 -3.11826e-06      2.77892 
         550      25.5873 -6.33365e-05 -3.08433e-06      2.77892 
         550      25.7426 -6.34196e-05 -3.04207e-06      2.77892 
         550      25.8984 -6.35017e-05 -2.99184e-06      2.77892 
         550      26.0546 -6.35825e-05 -2.93495e-06      2.77892 
         550      26.2114 -6.36619e-05 -2.87315e-06      2.77892 
         550      26.3686 -6.37397e-05 -2.80874e-06      2.77892 
         550      26.5262 -6.38156e-05 -2.74427e-06      2.77892 
         550      26.6844   -6.389e-05 -2.68218e-06      2.77892 
         550      26.8429 -6.39627e-05 -2.62501e-06      2.77892 
         550       27.002 -6.40341e-05 -2.57487e-06      2.77892 
         550      27.1615 -6.41046e-05 -2.53367e-06      2.77892 
         550      27.3216 -6.41747e-05 -2.50271e-06      2.77892 
         550      27.4821 -6.42449e-05 -2.48281e-06      2.77892 
         550       27.643 -6.43159e-05 -2.47415e-06      2.77892 
         550      27.8044 -6.43886e-05 -2.47621e-06      2.77892 
         550      27.9663 -6.44636e-05 -2.48779e-06      2.77892 
         550      28.1287 -6.45418e-05 -2.50703e-06      2.77892 
         550      28.2914 -6.46239e-05 -2.53137e-06      2.77892 
         550      28.4548 -6.47106e-05 -2.55772e-06      2.77892 
         550      28.6185 -6.48022e-05  -2.5824e-06      2.77893 
         550      28.7828 -6.48991e-05 -2.60146e-06      2.77893 
         550      28.9475 -6.50011e-05 -2.61063e-06      2.77893 
         550      29.1126 -6.51076e-05 -2.60569e-06      2.77893 
         550      29.2784 -6.51951e-05 -2.56034e-06      2.77893 
         550      29.4444 -6.52621e-05 -2.50384e-06      2.77893 
         550       29.611 -6.53195e-05 -2.45689e-06      2.77893 
         550       29.778 -6.53658e-05 -2.42097e-06      2.77893 
         550      29.9456 -6.53999e-05 -2.39704e-06      2.77893 
         550      30.1137 -6.54209e-05 -2.38575e-06      2.77893 
         550      30.2821 -6.54278e-05 -2.38715e-06      2.77893 
         550      30.4511 -6.54198e-05 -2.40069e-06      2.77893 
         550      30.6204 -6.53961e-05 -2.42498e-06      2.77893 
         550      30.7903 -6.53559e-05 -2.45784e-06      2.77893 
         550      30.9606 -6.52982e-05 -2.49593e-06      2.77893 
         550      31.1315 -6.52219e-05 -2.53488e-06      2.77893 
         550      31.3028 -6.51462e-05  -2.5635e-06      2.77893 
         550      31.4745 -6.52796e-05 -2.51209e-06      2.77893 
         550      31.6468 -6.53981e-05 -2.43627e-06      2.77893 
         550      31.8194 -6.55019e-05 -2.34498e-06      2.77893 
         550      31.9926  -6.5592e-05 -2.24464e-06      2.77893 
         550      32.1662 -6.56691e-05 -2.13992e-06      2.77893 
         550      32.3404 -6.57345e-05 -2.03318e-06      2.77893 
         550      32.5149 -6.57895e-05 -1.92531e-06      2.77893 
         550        32.69 -6.58356e-05 -1.81516e-06      2.77893 
         550      32.8655 -6.58649e-05 -1.89786e-06      2.77893 
         550      33.0414  -6.5888e-05 -2.02811e-06      2.77893 
         550       33.218 -6.59089e-05 -2.14172e-06      2.77893 
         550      33.3948 -6.59281e-05 -2.23397e-06      2.77893 
         550      33.5723 -6.59462e-05 -2.30253e-06      2.77894 
         550        33.75 -6.59634e-05 -2.34656e-06      2.77894 
         550      33.9284   -6.598e-05 -2.36685e-06      2.77894 
         550      34.1073  -6.5996e-05 -2.36522e-06      2.77894 
         550      34.2865 -6.60114e-05 -2.34446e-06      2.77894 
         550      34.4663 -6.60262e-05 -2.30792e-06      2.77894 
         550      34.6465 -6.60403e-05 -2.25942e-06      2.77894 
         550      34.8272 -6.60535e-05 -2.20284e-06      2.77894 
         550      35.0083 -6.60656e-05 -2.14215e-06      2.77894 
         550        35.19 -6.60764e-05 -2.08098e-06      2.77894 
         550      35.3721 -6.60858e-05 -2.02269e-06      2.77894 
         550      35.5546 -6.60935e-05 -1.97017e-06      2.77894 
         550      35.7377 -6.60993e-05 -1.92557e-06      2.77894 
         550      35.9211 -6.61033e-05 -1.89052e-06      2.77894 
         550      36.1052 -6.61054e-05 -1.86581e-06      2.77894 
         550      36.2895 -6.61054e-05 -1.85157e-06      2.77894 
         550      36.4745 -6.61036e-05 -1.84717e-06      2.77894 
         550      36.6598 -6.61002e-05 -1.85131e-06      2.77894 
         550      36.8457 -6.60953e-05 -1.86215e-06      2.77894 
         550      37.0321 -6.60893e-05 -1.87736e-06      2.77894 
         550      37.2188 -6.60828e-05 -1.89431e-06      2.77894 
         550      37.4062 -6.60762e-05 -1.91037e-06      2.77894 
         550      37.5938 -6.60704e-05   -1.923e-06      2.77894 
         550      37.7821 -6.60662e-05 -1.93021e-06      2.77894 
         550      37.9707 -6.60645e-05 -1.93079e-06      2.77895 
         550      38.1599 -6.60665e-05 -1.92478e-06      2.77895 
         550      38.3496 -6.60733e-05 -1.91391e-06      2.77895 
         550      38.5396 -6.60863e-05 -1.90209e-06      2.77895 
         550      38.7302  -6.6107e-05 -1.89596e-06      2.77895 
         550      38.9211 -6.61371e-05 -1.90557e-06      2.77895 
         550      39.1127 -6.61782e-05 -1.94504e-06      2.77895 
         550      39.3046  -6.6379e-05 -1.94244e-06      2.77895 
         550      39.4971 -6.65737e-05 -1.89523e-06      2.77895 
         550      39.6899 -6.66709e-05 -1.84953e-06      2.77895 
         550      39.8833 -6.66953e-05 -1.80738e-06      2.77895 
         550      40.0772 -6.66685e-05 -1.77063e-06      2.77895 
         550      40.2714 -6.66092e-05 -1.74072e-06      2.77895 
         550      40.4663 -6.65335e-05 -1.71874e-06      2.77895 
         550      40.6615 -6.64546e-05 -1.70549e-06      2.77895 
         550      40.8573 -6.63827e-05 -1.70137e-06      2.77895 
         550      41.0534 -6.63258e-05 -1.70646e-06      2.77895 
         550      41.2501 -6.62891e-05 -1.72048e-06      2.77895 
         550      41.4473 -6.62753e-05 -1.74276e-06      2.77895 
         550      41.6448 -6.62848e-05 -1.77223e-06      2.77895 
         550      41.8429 -6.63157e-05 -1.80746e-06      2.77895 
         550      42.0414 -6.63643e-05 -1.84649e-06      2.77895 
         550      42.2405 -6.64248e-05 -1.88704e-06      2.77896 
         550      42.4399 -6.64896e-05 -1.92618e-06      2.77896 
         550      42.6399   -6.655e-05 -1.96061e-06      2.77896 
         550      42.8404 -6.65956e-05 -1.98635e-06      2.77896 
         550      43.0412 -6.66153e-05 -1.99886e-06      2.77896 
         550      43.2426 -6.65971e-05 -1.99297e-06      2.77896 
         550      43.4444 -6.65287e-05 -1.96281e-06      2.77896 
         550      43.6467 -6.63975e-05 -1.90167e-06      2.77896 
         550      43.8494 -6.63101e-05 -1.84942e-06      2.77896 
         550      44.0527 -6.63297e-05 -1.84858e-06      2.77896 
         550      44.2563 -6.63473e-05 -1.85897e-06      2.77896 
         550      44.4606  -6.6364e-05 -1.87682e-06      2.77896 
         550      44.6653 -6.63808e-05 -1.89866e-06      2.77896 
         550      44.8704 -6.63987e-05 -1.92143e-06      2.77896 
         550       45.076 -6.64183e-05 -1.94258e-06      2.77896 
         550       45.282   -6.644e-05    -1.96e-06      2.77896 
         550      45.4886 -6.64638e-05  -1.9722e-06      2.77896 
         550      45.6955 -6.64895e-05 -1.97818e-06      2.77896 
         550       45.903 -6.65163e-05 -1.97749e-06      2.77897 
         550      46.1111  -6.6543e-05 -1.97017e-06      2.77897 
         550      46.3194 -6.65681e-05 -1.95669e-06      2.77897 
         550      46.5283 -6.65897e-05 -1.93788e-06      2.77897 
         550      46.7376 -6.66056e-05 -1.91484e-06      2.77897 
         550      46.9475 -6.66133e-05  -1.8887e-06      2.77897 
         550      47.1577 -6.66103e-05 -1.86065e-06      2.77897 
         550      47.3685  -6.6594e-05 -1.83154e-06      2.77897 
         550      47.5798 -6.65621e-05 -1.80184e-06      2.77897 
         550      47.7914 -6.65123e-05 -1.77129e-06      2.77897 
         550      48.0037  -6.6443e-05 -1.73862e-06      2.77897 