Variables = x, y, u, v, p

Zone, I=800, F=POINT
         -25            0 -1.22828e-19 -5.38345e-24     -25.9618 
         -25     0.000234 -6.08221e-06 -2.69164e-10     -25.9618 
         -25     0.000939 -2.28815e-05 -1.04311e-09     -25.9618 
         -25     0.002113 -4.61944e-05 -2.21684e-09     -25.9618 
         -25     0.003759 -7.04367e-05 -3.64706e-09     -25.9618 
         -25     0.005872 -9.00154e-05  -5.1717e-09     -25.9618 
         -25     0.008457 -0.000101151  -6.6568e-09     -25.9618 
         -25      0.01151 -0.000102795 -8.00622e-09     -25.9618 
         -25     0.015036 -9.69921e-05 -9.18061e-09     -25.9618 
         -25     0.019031 -8.80999e-05 -1.01788e-08     -25.9618 
         -25     0.023493 -8.11194e-05 -1.10156e-08     -25.9618 
         -25     0.028429 -7.95917e-05 -1.16859e-08     -25.9618 
         -25     0.033831 -8.38977e-05  -1.2132e-08     -25.9618 
         -25     0.039706 -9.08246e-05 -1.22433e-08     -25.9618 
         -25     0.046047 -9.51976e-05 -1.18889e-08     -25.9618 
         -25     0.052863  -9.3622e-05 -1.09966e-08     -25.9618 
         -25      0.06015 -8.87393e-05 -9.65184e-09     -25.9618 
         -25       0.0679 -8.98011e-05 -8.14471e-09     -25.9618 
         -25     0.076126  -0.00010094 -6.81071e-09     -25.9618 
         -25     0.084816 -9.34665e-05 -5.47829e-09     -25.9618 
         -25     0.093982 -9.86602e-05 -4.22113e-09     -25.9618 
         -25     0.103611 -0.000101317 -3.40986e-09     -25.9618 
         -25     0.113718 -0.000102741 -3.27287e-09     -25.9618 
         -25     0.124286 -0.000103855 -4.07564e-09     -25.9618 
         -25     0.135333  -0.00010517 -6.11738e-09     -25.9618 
         -25      0.14685 -0.000106808 -9.72231e-09     -25.9618 
         -25     0.158827 -0.000108608 -1.52282e-08     -25.9618 
         -25     0.171284 -0.000110293 -2.29965e-08     -25.9618 
         -25     0.184201 -0.000111651  -3.3366e-08     -25.9618 
         -25     0.197599  -0.00011271 -4.66952e-08     -25.9618 
         -25     0.211455 -0.000113763 -6.32849e-08     -25.9618 
         -25     0.225792 -0.000115163 -8.34679e-08     -25.9618 
         -25       0.2406 -0.000116651 -1.07529e-07     -25.9618 
         -25     0.255865 -0.000117257 -1.35608e-07     -25.9618 
         -25     0.271613 -0.000118369 -1.68075e-07     -25.9618 
         -25     0.287818 -0.000119345 -2.05164e-07     -25.9618 
         -25     0.304506 -0.000120221 -2.47001e-07     -25.9618 
         -25      0.32165 -0.000121025 -2.93699e-07     -25.9618 
         -25     0.339278 -0.000121777 -3.45584e-07     -25.9618 
         -25     0.357377  -0.00012249 -4.02894e-07     -25.9618 
         -25      0.37593  -0.00012317 -4.65795e-07     -25.9618 
         -25     0.394968  -0.00012382 -5.34504e-07     -25.9618 
         -25     0.414461 -0.000124437 -6.08844e-07     -25.9618 
         -25      0.43444 -0.000125021 -6.88622e-07     -25.9618 
         -25     0.454872 -0.000125567 -7.73115e-07     -25.9618 
         -25     0.475791 -0.000126076 -8.61592e-07     -25.9618 
         -25     0.497163 -0.000126549 -9.52813e-07     -25.9618 
         -25     0.519021 -0.000126992 -1.04573e-06     -25.9618 
         -25      0.54135 -0.000127409 -1.13922e-06     -25.9618 
         -25     0.564131 -0.000127797  -1.2327e-06     -25.9618 
         -25       0.5874 -0.000128138 -1.32688e-06     -25.9618 
         -25     0.611121 -0.000128392 -1.42451e-06     -25.9618 
         -25      0.63533  -0.00012861 -1.53117e-06     -25.9618 
         -25      0.65999 -0.000128765 -1.64099e-06     -25.9618 
         -25     0.685139 -0.000128846 -1.75385e-06     -25.9618 
         -25     0.710759 -0.000128842  -1.8692e-06     -25.9618 
         -25     0.736828 -0.000128746 -1.98635e-06     -25.9618 
         -25     0.763387  -0.00012855 -2.10477e-06     -25.9618 
         -25     0.790396 -0.000128252 -2.22348e-06     -25.9617 
         -25     0.817896 -0.000127846 -2.34182e-06     -25.9617 
         -25     0.845843 -0.000127333 -2.45872e-06     -25.9617 
         -25     0.874283 -0.000126712 -2.57352e-06     -25.9617 
         -25      0.90317 -0.000125987 -2.68523e-06     -25.9617 
         -25     0.932551  -0.00012516 -2.79334e-06     -25.9617 
         -25     0.962401 -0.000124237  -2.8972e-06     -25.9617 
         -25     0.992697 -0.000123224 -2.99638e-06     -25.9617 
         -25      1.02349 -0.000122126 -3.09089e-06     -25.9617 
         -25      1.05472 -0.000120952 -3.18066e-06     -25.9617 
         -25      1.08645 -0.000119707 -3.26618e-06     -25.9617 
         -25      1.11863 -0.000118401 -3.34793e-06     -25.9616 
         -25       1.1513 -0.000117037 -3.42687e-06     -25.9616 
         -25      1.18444 -0.000115622 -3.50396e-06     -25.9616 
         -25      1.21802 -0.000114163 -3.58026e-06     -25.9616 
         -25      1.25211 -0.000112662 -3.65704e-06     -25.9616 
         -25      1.28663 -0.000111124 -3.73513e-06     -25.9616 
         -25      1.32165 -0.000109548 -3.81522e-06     -25.9616 
         -25      1.35712  -0.00010794 -3.89712e-06     -25.9615 
         -25      1.39308 -0.000106297 -3.97987e-06     -25.9615 
         -25      1.42951 -0.000104623 -4.06087e-06     -25.9615 
         -25      1.46638 -0.000102923 -4.13555e-06     -25.9615 
         -25      1.50375 -0.000101201 -4.19692e-06     -25.9615 
         -25      1.54156  -9.9171e-05 -4.18702e-06     -25.9615 
         -25      1.57987 -9.72016e-05 -4.22363e-06     -25.9614 
         -25      1.61863 -9.52897e-05 -4.29806e-06     -25.9614 
         -25      1.65788 -9.34045e-05 -4.39661e-06     -25.9614 
         -25      1.69757  -9.1526e-05 -4.50704e-06     -25.9614 
         -25      1.73776 -8.96334e-05 -4.61927e-06     -25.9614 
         -25      1.77842 -8.77154e-05 -4.72477e-06     -25.9613 
         -25      1.81952 -8.57656e-05 -4.81692e-06     -25.9613 
         -25      1.86113  -8.3778e-05 -4.89116e-06     -25.9613 
         -25      1.90316 -8.17572e-05 -4.94448e-06     -25.9613 
         -25      1.94571 -7.97061e-05 -4.97588e-06     -25.9612 
         -25      1.98869 -7.76379e-05 -4.98592e-06     -25.9612 
         -25      2.03217 -7.55628e-05 -4.97685e-06     -25.9612 
         -25      2.07612 -7.34993e-05  -4.9524e-06     -25.9611 
         -25      2.12051 -7.14685e-05 -4.91773e-06     -25.9611 
         -25       2.1654 -6.94888e-05 -4.87911e-06     -25.9611 
         -25      2.21073 -6.75863e-05 -4.84398e-06     -25.9611 
         -25      2.25656 -6.57821e-05 -4.82049e-06      -25.961 
         -25      2.30283 -6.41031e-05 -4.81753e-06      -25.961 
         -25       2.3496 -6.25702e-05 -4.84431e-06      -25.961 
         -25      2.39685 -6.12073e-05 -4.91024e-06     -25.9609 
         -25      2.44452 -6.00355e-05 -5.02449e-06     -25.9609 
         -25      2.49271 -5.90707e-05 -5.19612e-06     -25.9608 
         -25      2.54132 -5.83285e-05 -5.43307e-06     -25.9608 
         -25      2.59044 -5.78178e-05 -5.74298e-06     -25.9608 
         -25         2.64 -5.75447e-05 -6.13141e-06     -25.9607 
         -25      2.69006 -5.75087e-05 -6.60353e-06     -25.9607 
         -25      2.74056 -5.77043e-05 -7.16136e-06     -25.9606 
         -25      2.79156 -5.81198e-05 -7.80655e-06     -25.9606 
         -25      2.84304 -5.87369e-05 -8.53723e-06     -25.9605 
         -25      2.89494 -5.95304e-05 -9.34882e-06     -25.9605 
         -25      2.94735 -6.04709e-05 -1.02361e-05     -25.9604 
         -25       3.0002 -6.15206e-05 -1.11885e-05     -25.9604 
         -25      3.05355 -6.26395e-05 -1.21955e-05     -25.9603 
         -25      3.10733 -6.37805e-05 -1.32409e-05     -25.9603 
         -25      3.16163 -6.48971e-05 -1.43089e-05     -25.9602 
         -25      3.21639 -6.59392e-05 -1.53789e-05     -25.9602 
         -25      3.27158 -6.68583e-05 -1.64278e-05     -25.9601 
         -25      3.32729 -6.76122e-05 -1.74335e-05       -25.96 
         -25      3.38342  -6.8163e-05 -1.83692e-05       -25.96 
         -25      3.44007 -6.84866e-05 -1.92106e-05     -25.9599 
         -25      3.49714 -6.85732e-05 -1.99306e-05     -25.9599 
         -25      3.55472 -6.84348e-05  -2.0506e-05     -25.9598 
         -25      3.61273 -6.81111e-05 -2.09141e-05     -25.9597 
         -25      3.67125 -6.76758e-05 -2.11372e-05     -25.9597 
         -25      3.73025 -6.72461e-05 -2.11626e-05     -25.9596 
         -25      3.78967 -6.72644e-05 -2.13981e-05     -25.9595 
         -25      3.84961 -6.74161e-05 -2.17076e-05     -25.9594 
         -25      3.90996  -6.7524e-05  -2.1944e-05     -25.9594 
         -25      3.97084 -6.76021e-05 -2.21458e-05     -25.9593 
         -25      4.03214  -6.7662e-05  -2.2338e-05     -25.9592 
         -25      4.09395 -6.77143e-05 -2.25359e-05     -25.9591 
         -25      4.15624 -6.77677e-05 -2.27456e-05      -25.959 
         -25      4.21895  -6.7829e-05 -2.29664e-05      -25.959 
         -25      4.28217 -6.79036e-05 -2.31933e-05     -25.9589 
         -25      4.34582 -6.79947e-05 -2.34178e-05     -25.9588 
         -25      4.40998 -6.81045e-05 -2.36309e-05     -25.9587 
         -25      4.47457  -6.8233e-05 -2.38231e-05     -25.9586 
         -25      4.53968 -6.83792e-05 -2.39873e-05     -25.9585 
         -25      4.60525 -6.85408e-05 -2.41186e-05     -25.9584 
         -25      4.67125 -6.87141e-05  -2.4216e-05     -25.9583 
         -25      4.73777 -6.88955e-05 -2.42822e-05     -25.9582 
         -25       4.8047 -6.90804e-05 -2.43239e-05     -25.9581 
         -25      4.87216 -6.92648e-05 -2.43512e-05      -25.958 
         -25      4.94003 -6.94449e-05 -2.43762e-05     -25.9579 
         -25      5.00843 -6.96189e-05 -2.44117e-05     -25.9578 
         -25      5.07724 -6.97862e-05 -2.44682e-05     -25.9577 
         -25      5.14658 -6.99497e-05 -2.45509e-05     -25.9575 
         -25      5.21639 -7.01153e-05 -2.46553e-05     -25.9574 
         -25      5.28661  -7.0294e-05 -2.47617e-05     -25.9573 
         -25      5.35736  -7.0503e-05 -2.48294e-05     -25.9572 
         -25      5.42852 -7.07064e-05 -2.46921e-05     -25.9571 
         -25      5.50021 -7.09147e-05 -2.44696e-05     -25.9569 
         -25      5.57231 -7.12603e-05 -2.43346e-05     -25.9568 
         -25      5.64493 -7.15157e-05 -2.42413e-05     -25.9567 
         -25      5.71803 -7.15028e-05 -2.41398e-05     -25.9565 
         -25      5.79154 -7.15786e-05 -2.40557e-05     -25.9564 
         -25      5.86558 -7.17316e-05 -2.40083e-05     -25.9563 
         -25      5.94003 -7.19477e-05 -2.40055e-05     -25.9561 
         -25      6.01501 -7.22119e-05 -2.40451e-05      -25.956 
         -25       6.0904 -7.25075e-05 -2.41174e-05     -25.9558 
         -25      6.16632 -7.28188e-05  -2.4207e-05     -25.9557 
         -25      6.24271 -7.31297e-05 -2.42944e-05     -25.9555 
         -25       6.3195 -7.33868e-05 -2.44083e-05     -25.9554 
         -25      6.39683 -7.35667e-05 -2.45302e-05     -25.9552 
         -25      6.47457  -7.3722e-05 -2.45954e-05      -25.955 
         -25      6.55284 -7.38545e-05 -2.46219e-05     -25.9549 
         -25      6.63152 -7.39672e-05 -2.46239e-05     -25.9547 
         -25      6.71073 -7.40639e-05 -2.46128e-05     -25.9545 
         -25      6.79034 -7.41483e-05 -2.45965e-05     -25.9544 
         -25      6.87049 -7.42231e-05 -2.45794e-05     -25.9542 
         -25      6.95111 -7.42898e-05 -2.45631e-05      -25.954 
         -25      7.03214 -7.43486e-05 -2.45462e-05     -25.9538 
         -25       7.1137 -7.43981e-05 -2.45248e-05     -25.9536 
         -25      7.19566 -7.44355e-05 -2.44936e-05     -25.9535 
         -25      7.27816 -7.44576e-05  -2.4446e-05     -25.9533 
         -25      7.36106 -7.44612e-05 -2.43761e-05     -25.9531 
         -25      7.44451 -7.44446e-05 -2.42785e-05     -25.9529 
         -25      7.52842 -7.44092e-05 -2.41513e-05     -25.9527 
         -25      7.61273 -7.43617e-05  -2.3997e-05     -25.9525 
         -25      7.69758 -7.43165e-05 -2.38242e-05     -25.9522 
         -25      7.78283 -7.42987e-05  -2.3651e-05      -25.952 
         -25      7.86862 -7.43605e-05 -2.35179e-05     -25.9518 
         -25      7.95481 -7.44522e-05 -2.35657e-05     -25.9516 
         -25      8.04155 -7.44808e-05 -2.36226e-05     -25.9514 
         -25      8.12868  -7.4558e-05 -2.34336e-05     -25.9511 
         -25      8.21635 -7.47242e-05 -2.32507e-05     -25.9509 
         -25      8.30449  -7.4881e-05 -2.31507e-05     -25.9507 
         -25      8.39303 -7.50203e-05 -2.30863e-05     -25.9504 
         -25      8.48211 -7.51384e-05 -2.30164e-05     -25.9502 
         -25      8.57159  -7.5234e-05 -2.29068e-05       -25.95 
         -25      8.66161 -7.53089e-05 -2.27295e-05     -25.9497 
         -25      8.75203 -7.53666e-05 -2.24626e-05     -25.9494 
         -25      8.84299 -7.54403e-05 -2.22664e-05     -25.9492 
         -25      8.93443  -7.5556e-05 -2.21249e-05     -25.9489 
         -25      9.02626 -7.56991e-05 -2.19786e-05     -25.9487 
         -25      9.11863 -7.58579e-05 -2.18331e-05     -25.9484 
         -25      9.21139 -7.60187e-05 -2.16901e-05     -25.9481 
         -25      9.30471 -7.61683e-05 -2.15476e-05     -25.9478 
         -25      9.39841 -7.62939e-05 -2.14022e-05     -25.9476 
         -25      9.49267  -7.6385e-05 -2.12492e-05     -25.9473 
         -25      9.58739 -7.64337e-05 -2.10845e-05      -25.947 
         -25      9.68251 -7.64359e-05  -2.0905e-05     -25.9467 
         -25      9.77817 -7.63911e-05 -2.07086e-05     -25.9464 
         -25      9.87422 -7.63035e-05 -2.04958e-05     -25.9461 
         -25      9.97083 -7.61811e-05 -2.02687e-05     -25.9458 
         -25      10.0678 -7.60365e-05 -2.00317e-05     -25.9455 
         -25      10.1654 -7.58852e-05 -1.97902e-05     -25.9451 
         -25      10.2633 -7.57457e-05  -1.9551e-05     -25.9448 
         -25      10.3618 -7.56376e-05   -1.932e-05     -25.9445 
         -25      10.4607 -7.55804e-05 -1.91015e-05     -25.9442 
         -25      10.5601 -7.55911e-05 -1.88962e-05     -25.9438 
         -25        10.66 -7.56821e-05 -1.86978e-05     -25.9435 
         -25      10.7603 -7.58573e-05  -1.8492e-05     -25.9431 
         -25      10.8611 -7.61102e-05 -1.82509e-05     -25.9428 
         -25      10.9623 -7.64176e-05  -1.7931e-05     -25.9424 
         -25      11.0641 -7.67373e-05 -1.74667e-05     -25.9421 
         -25      11.1663 -7.65807e-05 -1.71534e-05     -25.9417 
         -25       11.269 -7.58793e-05 -1.73364e-05     -25.9414 
         -25      11.3721 -7.54569e-05 -1.74137e-05      -25.941 
         -25      11.4757 -7.52578e-05 -1.74119e-05     -25.9406 
         -25      11.5798 -7.52282e-05 -1.73579e-05     -25.9402 
         -25      11.6844 -7.53175e-05 -1.72773e-05     -25.9398 
         -25      11.7894 -7.54788e-05 -1.71926e-05     -25.9394 
         -25       11.895 -7.56682e-05 -1.71221e-05      -25.939 
         -25      12.0009 -7.58458e-05 -1.70785e-05     -25.9386 
         -25      12.1073 -7.59763e-05 -1.70679e-05     -25.9382 
         -25      12.2142 -7.60281e-05 -1.70888e-05     -25.9378 
         -25      12.3216 -7.59746e-05 -1.71316e-05     -25.9374 
         -25      12.4294 -7.57941e-05 -1.71777e-05      -25.937 
         -25      12.5378 -7.54695e-05 -1.71999e-05     -25.9365 
         -25      12.6465 -7.49899e-05 -1.71619e-05     -25.9361 
         -25      12.7558 -7.48036e-05 -1.70734e-05     -25.9357 
         -25      12.8656  -7.5362e-05 -1.69833e-05     -25.9352 
         -25      12.9757 -7.57733e-05 -1.68237e-05     -25.9348 
         -25      13.0864  -7.6044e-05 -1.66238e-05     -25.9343 
         -25      13.1975 -7.61893e-05 -1.64074e-05     -25.9338 
         -25      13.3092 -7.62335e-05 -1.61919e-05     -25.9334 
         -25      13.4212 -7.62076e-05 -1.59903e-05     -25.9329 
         -25      13.5338  -7.6146e-05 -1.58104e-05     -25.9324 
         -25      13.6468 -7.60838e-05 -1.56566e-05     -25.9319 
         -25      13.7603 -7.60518e-05 -1.55302e-05     -25.9314 
         -25      13.8743 -7.60717e-05 -1.54295e-05     -25.9309 
         -25      13.9886 -7.61496e-05 -1.53518e-05     -25.9304 
         -25      14.1036 -7.62693e-05 -1.52928e-05     -25.9299 
         -25      14.2189 -7.63832e-05 -1.52486e-05     -25.9294 
         -25      14.3348 -7.64043e-05 -1.52157e-05     -25.9289 
         -25       14.451 -7.61944e-05 -1.51923e-05     -25.9283 
         -25      14.5678 -7.55521e-05 -1.51792e-05     -25.9278 
         -25      14.6851 -7.53813e-05 -1.49614e-05     -25.9273 
         -25      14.8028 -7.54726e-05 -1.47127e-05     -25.9267 
         -25       14.921 -7.55038e-05 -1.45306e-05     -25.9262 
         -25      15.0396 -7.54976e-05 -1.44181e-05     -25.9256 
         -25      15.1588 -7.54716e-05 -1.43719e-05      -25.925 
         -25      15.2783 -7.54394e-05 -1.43853e-05     -25.9245 
         -25      15.3984 -7.54106e-05 -1.44478e-05     -25.9239 
         -25       15.519 -7.53913e-05 -1.45472e-05     -25.9233 
         -25        15.64 -7.53847e-05   -1.467e-05     -25.9227 
         -25      15.7615 -7.53916e-05 -1.48029e-05     -25.9221 
         -25      15.8834 -7.54105e-05 -1.49327e-05     -25.9215 
         -25      16.0058 -7.54383e-05 -1.50483e-05     -25.9209 
         -25      16.1286 -7.54708e-05 -1.51404e-05     -25.9203 
         -25       16.252 -7.55028e-05 -1.52023e-05     -25.9196 
         -25      16.3759 -7.55285e-05 -1.52306e-05      -25.919 
         -25      16.5002 -7.55423e-05 -1.52251e-05     -25.9184 
         -25       16.625 -7.55387e-05  -1.5189e-05     -25.9177 
         -25      16.7501 -7.55125e-05 -1.51292e-05     -25.9171 
         -25      16.8759 -7.54596e-05 -1.50554e-05     -25.9164 
         -25       17.002 -7.53768e-05 -1.49807e-05     -25.9157 
         -25      17.1287 -7.52622e-05   -1.492e-05     -25.9151 
         -25      17.2557 -7.51154e-05 -1.48898e-05     -25.9144 
         -25      17.3834 -7.49372e-05 -1.49071e-05     -25.9137 
         -25      17.5115 -7.47305e-05 -1.49878e-05      -25.913 
         -25      17.6399 -7.44997e-05 -1.51455e-05     -25.9123 
         -25       17.769 -7.42505e-05 -1.53895e-05     -25.9116 
         -25      17.8984 -7.41503e-05 -1.56673e-05     -25.9109 
         -25      18.0284 -7.42503e-05 -1.59251e-05     -25.9102 
         -25      18.1587 -7.44066e-05 -1.61858e-05     -25.9094 
         -25      18.2896  -7.4602e-05 -1.64304e-05     -25.9087 
         -25       18.421 -7.48104e-05   -1.663e-05     -25.9079 
         -25      18.5528 -7.49955e-05 -1.67441e-05     -25.9072 
         -25      18.6851 -7.51089e-05 -1.67174e-05     -25.9064 
         -25      18.8178 -7.50873e-05 -1.64762e-05     -25.9057 
         -25      18.9511 -7.49889e-05   -1.642e-05     -25.9049 
         -25      19.0847 -7.48012e-05 -1.64289e-05     -25.9041 
         -25      19.2189 -7.44921e-05 -1.64139e-05     -25.9033 
         -25      19.3535 -7.40681e-05 -1.64314e-05     -25.9025 
         -25      19.4886 -7.35369e-05 -1.65262e-05     -25.9017 
         -25      19.6242 -7.31646e-05 -1.67512e-05     -25.9009 
         -25      19.7602 -7.31725e-05 -1.69546e-05     -25.9001 
         -25      19.8968  -7.3135e-05 -1.70414e-05     -25.8992 
         -25      20.0337 -7.30737e-05 -1.70417e-05     -25.8984 
         -25      20.1712 -7.30046e-05 -1.69839e-05     -25.8975 
         -25      20.3091 -7.29398e-05 -1.68935e-05     -25.8967 
         -25      20.4475 -7.28871e-05 -1.67929e-05     -25.8958 
         -25      20.5864 -7.28508e-05  -1.6701e-05      -25.895 
         -25      20.7257 -7.28324e-05 -1.66331e-05     -25.8941 
         -25      20.8655  -7.2831e-05 -1.66002e-05     -25.8932 
         -25      21.0058 -7.28438e-05 -1.66093e-05     -25.8923 
         -25      21.1465 -7.28666e-05 -1.66634e-05     -25.8914 
         -25      21.2877 -7.28942e-05 -1.67612e-05     -25.8905 
         -25      21.4294 -7.29214e-05 -1.68983e-05     -25.8896 
         -25      21.5716 -7.29426e-05 -1.70666e-05     -25.8887 
         -25      21.7142 -7.29528e-05 -1.72552e-05     -25.8877 
         -25      21.8573 -7.29483e-05 -1.74517e-05     -25.8868 
         -25      22.0008 -7.29262e-05 -1.76422e-05     -25.8858 
         -25      22.1449 -7.28857e-05 -1.78132e-05     -25.8849 
         -25      22.2893 -7.28279e-05  -1.7952e-05     -25.8839 
         -25      22.4344 -7.27562e-05  -1.8049e-05     -25.8829 
         -25      22.5797 -7.26768e-05 -1.80988e-05     -25.8819 
         -25      22.7257 -7.25986e-05 -1.81024e-05      -25.881 
         -25      22.8721 -7.25338e-05 -1.80692e-05       -25.88 
         -25      23.0189 -7.24978e-05 -1.80194e-05     -25.8789 
         -25      23.1663 -7.25093e-05 -1.79866e-05     -25.8779 
         -25       23.314 -7.25904e-05 -1.80209e-05     -25.8769 
         -25      23.4623 -7.27669e-05 -1.81918e-05     -25.8759 
         -25       23.611 -7.30673e-05 -1.85915e-05     -25.8748 
         -25      23.7602 -7.31033e-05 -1.88821e-05     -25.8738 
         -25        23.91  -7.2867e-05  -1.8779e-05     -25.8727 
         -25        24.06  -7.2791e-05 -1.87265e-05     -25.8716 
         -25      24.2107 -7.27877e-05 -1.87179e-05     -25.8706 
         -25      24.3617 -7.27949e-05 -1.87433e-05     -25.8695 
         -25      24.5133  -7.2771e-05 -1.87907e-05     -25.8684 
         -25      24.6653 -7.26928e-05 -1.88472e-05     -25.8673 
         -25      24.8178 -7.25509e-05 -1.88996e-05     -25.8662 
         -25      24.9708 -7.23479e-05  -1.8936e-05      -25.865 
         -25      25.1242 -7.20949e-05 -1.89458e-05     -25.8639 
         -25      25.2781 -7.18084e-05 -1.89212e-05     -25.8628 
         -25      25.4324 -7.15088e-05  -1.8857e-05     -25.8616 
         -25      25.5873 -7.12167e-05 -1.87514e-05     -25.8605 
         -25      25.7426 -7.09527e-05 -1.86063e-05     -25.8593 
         -25      25.8984 -7.07338e-05 -1.84268e-05     -25.8581 
         -25      26.0546 -7.05734e-05 -1.82221e-05      -25.857 
         -25      26.2114 -7.04794e-05 -1.80043e-05     -25.8558 
         -25      26.3686 -7.04539e-05 -1.77885e-05     -25.8546 
         -25      26.5262 -7.04921e-05 -1.75921e-05     -25.8534 
         -25      26.6844 -7.05832e-05 -1.74333e-05     -25.8521 
         -25      26.8429   -7.071e-05  -1.7331e-05     -25.8509 
         -25       27.002 -7.08503e-05 -1.73023e-05     -25.8497 
         -25      27.1615 -7.09779e-05  -1.7362e-05     -25.8484 
         -25      27.3216 -7.10646e-05 -1.75201e-05     -25.8472 
         -25      27.4821 -7.10823e-05 -1.77796e-05     -25.8459 
         -25       27.643 -7.10062e-05 -1.81339e-05     -25.8446 
         -25      27.8044 -7.08179e-05 -1.85651e-05     -25.8433 
         -25      27.9663 -7.05101e-05 -1.90391e-05     -25.8421 
         -25      28.1287 -7.00904e-05 -1.95042e-05     -25.8408 
         -25      28.2914 -6.95881e-05 -1.98852e-05     -25.8394 
         -25      28.4548 -6.90582e-05 -2.00812e-05     -25.8381 
         -25      28.6185 -6.85912e-05 -1.99597e-05     -25.8368 
         -25      28.7828 -6.86003e-05 -1.93112e-05     -25.8355 
         -25      28.9475  -6.9284e-05 -1.80644e-05     -25.8341 
         -25      29.1126 -7.01242e-05 -1.61796e-05     -25.8328 
         -25      29.2784  -6.9444e-05 -1.71374e-05     -25.8314 
         -25      29.4444 -6.90422e-05 -1.86529e-05       -25.83 
         -25       29.611 -6.89192e-05 -1.95637e-05     -25.8286 
         -25       29.778 -6.87426e-05 -1.98832e-05     -25.8272 
         -25      29.9456 -6.85866e-05 -1.99473e-05     -25.8258 
         -25      30.1137 -6.84497e-05 -1.98832e-05     -25.8244 
         -25      30.2821 -6.83284e-05 -1.97822e-05      -25.823 
         -25      30.4511 -6.82175e-05 -1.97043e-05     -25.8216 
         -25      30.6204 -6.81121e-05 -1.96841e-05     -25.8201 
         -25      30.7903 -6.80073e-05 -1.97349e-05     -25.8187 
         -25      30.9606    -6.79e-05 -1.98539e-05     -25.8172 
         -25      31.1315  -6.7788e-05 -2.00266e-05     -25.8158 
         -25      31.3028 -6.76715e-05 -2.02305e-05     -25.8143 
         -25      31.4745 -6.75527e-05 -2.04388e-05     -25.8128 
         -25      31.6468 -6.74356e-05 -2.06245e-05     -25.8113 
         -25      31.8194 -6.73264e-05  -2.0762e-05     -25.8098 
         -25      31.9926 -6.72322e-05 -2.08309e-05     -25.8083 
         -25      32.1662 -6.71612e-05 -2.08174e-05     -25.8068 
         -25      32.3404 -6.71215e-05  -2.0716e-05     -25.8053 
         -25      32.5149 -6.71197e-05 -2.05305e-05     -25.8037 
         -25        32.69 -6.71603e-05 -2.02746e-05     -25.8022 
         -25      32.8655 -6.72434e-05  -1.9972e-05     -25.8006 
         -25      33.0414 -6.73631e-05 -1.96558e-05      -25.799 
         -25       33.218 -6.75055e-05 -1.93664e-05     -25.7975 
         -25      33.3948 -6.76458e-05 -1.91509e-05     -25.7959 
         -25      33.5723 -6.77466e-05 -1.90588e-05     -25.7943 
         -25        33.75 -6.77532e-05   -1.914e-05     -25.7927 
         -25      33.9284 -6.75915e-05 -1.94399e-05     -25.7911 
         -25      34.1073 -6.71637e-05 -1.99942e-05     -25.7894 
         -25      34.2865  -6.6345e-05 -2.08226e-05     -25.7878 
         -25      34.4663 -6.53475e-05 -2.13876e-05     -25.7862 
         -25      34.6465 -6.55325e-05 -2.01914e-05     -25.7845 
         -25      34.8272 -6.56086e-05 -1.94837e-05     -25.7829 
         -25      35.0083  -6.5619e-05  -1.9143e-05     -25.7812 
         -25        35.19 -6.55956e-05 -1.90655e-05     -25.7795 
         -25      35.3721 -6.55609e-05  -1.9166e-05     -25.7778 
         -25      35.5546 -6.55288e-05  -1.9375e-05     -25.7761 
         -25      35.7377 -6.55066e-05 -1.96378e-05     -25.7744 
         -25      35.9211 -6.54961e-05  -1.9912e-05     -25.7727 
         -25      36.1052 -6.54949e-05 -2.01671e-05      -25.771 
         -25      36.2895 -6.54977e-05  -2.0382e-05     -25.7692 
         -25      36.4745 -6.54973e-05 -2.05452e-05     -25.7675 
         -25      36.6598 -6.54857e-05  -2.0652e-05     -25.7658 
         -25      36.8457 -6.54552e-05 -2.07051e-05      -25.764 
         -25      37.0321 -6.53986e-05 -2.07125e-05     -25.7622 
         -25      37.2188 -6.53107e-05 -2.06875e-05     -25.7604 
         -25      37.4062 -6.51884e-05 -2.06481e-05     -25.7587 
         -25      37.5938 -6.50313e-05 -2.06164e-05     -25.7569 
         -25      37.7821 -6.48419e-05 -2.06186e-05     -25.7551 
         -25      37.9707 -6.46261e-05 -2.06847e-05     -25.7532 
         -25      38.1599 -6.43926e-05 -2.08492e-05     -25.7514 
         -25      38.3496 -6.41536e-05 -2.11512e-05     -25.7496 
         -25      38.5396 -6.38813e-05  -2.1217e-05     -25.7477 
         -25      38.7302 -6.35876e-05 -2.08624e-05     -25.7459 
         -25      38.9211  -6.3344e-05 -2.06391e-05      -25.744 
         -25      39.1127 -6.31537e-05 -2.05476e-05     -25.7422 
         -25      39.3046 -6.30174e-05 -2.05769e-05     -25.7403 
         -25      39.4971 -6.29329e-05 -2.07034e-05     -25.7384 
         -25      39.6899 -6.28964e-05 -2.08914e-05     -25.7365 
         -25      39.8833 -6.29033e-05 -2.10942e-05     -25.7346 
         -25      40.0772 -6.29494e-05 -2.12525e-05     -25.7327 
         -25      40.2714  -6.3032e-05 -2.12958e-05     -25.7308 
         -25      40.4663 -6.31527e-05 -2.11413e-05     -25.7289 
         -25      40.6615 -6.33183e-05 -2.06945e-05     -25.7269 
         -25      40.8573 -6.35442e-05 -1.98473e-05      -25.725 
         -25      41.0534 -6.32657e-05  -1.9552e-05      -25.723 
         -25      41.2501 -6.24405e-05 -2.03607e-05     -25.7211 
         -25      41.4473 -6.18723e-05 -2.09516e-05     -25.7191 
         -25      41.6448 -6.14985e-05 -2.13651e-05     -25.7171 
         -25      41.8429 -6.12663e-05 -2.16384e-05     -25.7151 
         -25      42.0414 -6.11331e-05 -2.18031e-05     -25.7131 
         -25      42.2405 -6.10642e-05 -2.18878e-05     -25.7111 
         -25      42.4399 -6.10327e-05 -2.19167e-05     -25.7091 
         -25      42.6399 -6.10182e-05 -2.19106e-05     -25.7071 
         -25      42.8404 -6.10062e-05  -2.1887e-05     -25.7051 
         -25      43.0412 -6.09869e-05 -2.18601e-05      -25.703 
         -25      43.2426 -6.09546e-05  -2.1841e-05      -25.701 
         -25      43.4444 -6.09071e-05 -2.18381e-05     -25.6989 
         -25      43.6467 -6.08446e-05 -2.18572e-05     -25.6969 
         -25      43.8494 -6.07694e-05 -2.19018e-05     -25.6948 
         -25      44.0527  -6.0685e-05  -2.1973e-05     -25.6927 
         -25      44.2563 -6.05957e-05 -2.20701e-05     -25.6907 
         -25      44.4606  -6.0506e-05 -2.21908e-05     -25.6886 
         -25      44.6653   -6.042e-05 -2.23311e-05     -25.6865 
         -25      44.8704 -6.03416e-05 -2.24856e-05     -25.6844 
         -25       45.076 -6.02732e-05 -2.26482e-05     -25.6822 
         -25       45.282 -6.02163e-05 -2.28114e-05     -25.6801 
         -25      45.4886 -6.01707e-05 -2.29678e-05      -25.678 
         -25      45.6955 -6.01349e-05  -2.3109e-05     -25.6759 
         -25       45.903 -6.01057e-05 -2.32268e-05     -25.6737 
         -25      46.1111 -6.00784e-05 -2.33127e-05     -25.6716 
         -25      46.3194 -6.00467e-05 -2.33589e-05     -25.6694 
         -25      46.5283 -6.00035e-05  -2.3358e-05     -25.6672 
         -25      46.7376 -5.99406e-05 -2.33031e-05      -25.665 
         -25      46.9475 -5.98494e-05 -2.31885e-05     -25.6629 
         -25      47.1577 -5.97216e-05 -2.30099e-05     -25.6607 
         -25      47.3685 -5.95492e-05 -2.27638e-05     -25.6585 
         -25      47.5798 -5.93263e-05  -2.2449e-05     -25.6563 
         -25      47.7914 -5.90492e-05 -2.20663e-05     -25.6541 
         -25      48.0037 -5.87163e-05 -2.16796e-05     -25.6518 