Variables = x, y, u, v, p

Zone, I=800, F=POINT
         -25            0  1.61436e-19  3.82279e-24      15.9378 
         -25     0.000234  8.01049e-06  1.92529e-10      15.9378 
         -25     0.000939  3.03291e-05  7.62086e-10      15.9378 
         -25     0.002113   6.1924e-05  1.67345e-09      15.9378 
         -25     0.003759   9.6058e-05  2.86639e-09      15.9378 
         -25     0.005872  0.000125812  4.23836e-09      15.9378 
         -25     0.008457  0.000146267  5.64974e-09      15.9378 
         -25      0.01151  0.000155547  6.90716e-09      15.9378 
         -25     0.015036  0.000155385   7.7737e-09      15.9378 
         -25     0.019031  0.000150307  7.96898e-09      15.9378 
         -25     0.023493  0.000145867  7.18893e-09      15.9378 
         -25     0.028429  0.000146309  5.11842e-09      15.9378 
         -25     0.033831  0.000152574  1.45793e-09      15.9378 
         -25     0.039706  0.000161652 -4.07358e-09      15.9378 
         -25     0.046047  0.000168125  -1.1711e-08      15.9378 
         -25     0.052863  0.000168086 -2.16709e-08      15.9378 
         -25      0.06015  0.000163817 -3.41169e-08      15.9378 
         -25       0.0679  0.000164927 -4.91389e-08      15.9378 
         -25     0.076126   0.00017694 -6.67213e-08      15.9378 
         -25     0.084816  0.000172043 -8.65589e-08      15.9378 
         -25     0.093982  0.000177476 -1.09089e-07      15.9378 
         -25     0.103611  0.000181106 -1.33833e-07      15.9378 
         -25     0.113718  0.000183869   -1.606e-07      15.9378 
         -25     0.124286  0.000186421 -1.89051e-07      15.9378 
         -25     0.135333  0.000189127 -2.18882e-07      15.9378 
         -25      0.14685  0.000192068 -2.49664e-07      15.9378 
         -25     0.158827  0.000195117 -2.80915e-07      15.9378 
         -25     0.171284  0.000198071 -3.12191e-07      15.9378 
         -25     0.184201  0.000200764 -3.42913e-07      15.9378 
         -25     0.197599  0.000203207 -3.72576e-07      15.9378 
         -25     0.211455  0.000205598 -4.00563e-07      15.9378 
         -25     0.225792  0.000208188 -4.26347e-07      15.9378 
         -25       0.2406  0.000210792 -4.49345e-07      15.9378 
         -25     0.255865  0.000212708 -4.69295e-07      15.9378 
         -25     0.271613   0.00021491 -4.85056e-07      15.9378 
         -25     0.287818  0.000216947 -4.95715e-07      15.9378 
         -25     0.304506  0.000218846 -5.01093e-07      15.9378 
         -25      0.32165  0.000220621 -5.00689e-07      15.9378 
         -25     0.339278  0.000222289  -4.9378e-07      15.9378 
         -25     0.357377  0.000223858 -4.79513e-07      15.9378 
         -25      0.37593  0.000225333 -4.57054e-07      15.9378 
         -25     0.394968  0.000226717 -4.25645e-07      15.9378 
         -25     0.414461  0.000228008 -3.84898e-07      15.9378 
         -25      0.43444  0.000229208 -3.34737e-07      15.9378 
         -25     0.454872  0.000230312 -2.75766e-07      15.9378 
         -25     0.475791  0.000231322 -2.09007e-07      15.9378 
         -25     0.497163  0.000232238 -1.36248e-07      15.9378 
         -25     0.519021  0.000233063 -5.94644e-08      15.9378 
         -25      0.54135  0.000233794  1.91398e-08      15.9378 
         -25     0.564131  0.000234428  9.78595e-08      15.9378 
         -25       0.5874  0.000234948  1.76587e-07      15.9378 
         -25     0.611121  0.000235321  2.59057e-07      15.9378 
         -25      0.63533  0.000235583  3.50395e-07      15.9378 
         -25      0.65999   0.00023571  4.31293e-07      15.9378 
         -25     0.685139  0.000235687  5.07114e-07      15.9378 
         -25     0.710759  0.000235499  5.81809e-07      15.9378 
         -25     0.736828  0.000235136  6.58111e-07      15.9378 
         -25     0.763387  0.000234589  7.37778e-07      15.9378 
         -25     0.790396  0.000233852   8.2126e-07      15.9378 
         -25     0.817896  0.000232922  9.08319e-07      15.9377 
         -25     0.845843    0.0002318  9.97677e-07      15.9377 
         -25     0.874283  0.000230485  1.08777e-06      15.9377 
         -25      0.90317  0.000228982  1.17638e-06      15.9377 
         -25     0.932551  0.000227297  1.26149e-06      15.9377 
         -25     0.962401  0.000225435  1.34096e-06      15.9377 
         -25     0.992697  0.000223408  1.41308e-06      15.9377 
         -25      1.02349  0.000221219  1.47693e-06      15.9377 
         -25      1.05472  0.000218883  1.53214e-06      15.9377 
         -25      1.08645  0.000216402  1.57952e-06      15.9377 
         -25      1.11863   0.00021379  1.62066e-06      15.9377 
         -25       1.1513  0.000211049  1.65825e-06      15.9377 
         -25      1.18444  0.000208186  1.69564e-06      15.9377 
         -25      1.21802   0.00020521  1.73651e-06      15.9377 
         -25      1.25211  0.000202118   1.7844e-06      15.9377 
         -25      1.28663  0.000198919  1.84158e-06      15.9377 
         -25      1.32165   0.00019561  1.90819e-06      15.9376 
         -25      1.35712  0.000192201  1.98021e-06      15.9376 
         -25      1.39308  0.000188691  2.04789e-06      15.9376 
         -25      1.42951  0.000185095  2.09274e-06      15.9376 
         -25      1.46638  0.000181433  2.08458e-06      15.9376 
         -25      1.50375  0.000177725  1.97753e-06      15.9376 
         -25      1.54156    0.0001736   1.9935e-06      15.9376 
         -25      1.57987  0.000169555  2.05664e-06      15.9376 
         -25      1.61863  0.000165604  2.13954e-06      15.9376 
         -25      1.65788  0.000161715  2.23076e-06      15.9375 
         -25      1.69757  0.000157878  2.32073e-06      15.9375 
         -25      1.73776  0.000154075  2.40241e-06      15.9375 
         -25      1.77842  0.000150302  2.47071e-06      15.9375 
         -25      1.81952  0.000146565  2.52275e-06      15.9375 
         -25      1.86113  0.000142861  2.55783e-06      15.9375 
         -25      1.90316  0.000139209  2.57712e-06      15.9375 
         -25      1.94571  0.000135618  2.58371e-06      15.9374 
         -25      1.98869  0.000132113  2.58241e-06      15.9374 
         -25      2.03217  0.000128714  2.57953e-06      15.9374 
         -25      2.07612  0.000125447  2.58276e-06      15.9374 
         -25      2.12051  0.000122345  2.60086e-06      15.9374 
         -25       2.1654  0.000119431  2.64351e-06      15.9373 
         -25      2.21073  0.000116741  2.72085e-06      15.9373 
         -25      2.25656    0.0001143  2.84354e-06      15.9373 
         -25      2.30283  0.000112138   3.0219e-06      15.9373 
         -25       2.3496   0.00011028   3.2664e-06      15.9373 
         -25      2.39685  0.000108747  3.58647e-06      15.9372 
         -25      2.44452   0.00010756  3.99033e-06      15.9372 
         -25      2.49271  0.000106729  4.48585e-06      15.9372 
         -25      2.54132  0.000106262  5.07789e-06      15.9372 
         -25      2.59044  0.000106158  5.77108e-06      15.9371 
         -25         2.64   0.00010641  6.56579e-06      15.9371 
         -25      2.69006  0.000107003  7.46231e-06      15.9371 
         -25      2.74056  0.000107911  8.45556e-06      15.9371 
         -25      2.79156  0.000109104  9.54064e-06       15.937 
         -25      2.84304  0.000110541  1.07074e-05       15.937 
         -25      2.89494  0.000112171  1.19424e-05       15.937 
         -25      2.94735  0.000113942  1.32326e-05       15.937 
         -25       3.0002   0.00011579  1.45578e-05      15.9369 
         -25      3.05355  0.000117651  1.58999e-05      15.9369 
         -25      3.10733  0.000119454  1.72344e-05      15.9369 
         -25      3.16163  0.000121136  1.85398e-05      15.9368 
         -25      3.21639   0.00012263  1.97907e-05      15.9368 
         -25      3.27158   0.00012388  2.09622e-05      15.9368 
         -25      3.32729  0.000124845  2.20336e-05      15.9367 
         -25      3.38342  0.000125498  2.29839e-05      15.9367 
         -25      3.44007  0.000125843  2.37995e-05      15.9366 
         -25      3.49714  0.000125911  2.44711e-05      15.9366 
         -25      3.55472   0.00012578  2.50005e-05      15.9366 
         -25      3.61273  0.000125578  2.53994e-05      15.9365 
         -25      3.67125  0.000125498  2.56959e-05      15.9365 
         -25      3.73025  0.000125811  2.59354e-05      15.9364 
         -25      3.78967  0.000126111  2.61046e-05      15.9364 
         -25      3.84961  0.000126193  2.62601e-05      15.9363 
         -25      3.90996  0.000126289   2.6436e-05      15.9363 
         -25      3.97084  0.000126399  2.66289e-05      15.9362 
         -25      4.03214  0.000126526  2.68332e-05      15.9362 
         -25      4.09395  0.000126668  2.70436e-05      15.9362 
         -25      4.15624  0.000126824  2.72541e-05      15.9361 
         -25      4.21895  0.000126993  2.74594e-05       15.936 
         -25      4.28217  0.000127175  2.76555e-05       15.936 
         -25      4.34582  0.000127368  2.78391e-05      15.9359 
         -25      4.40998  0.000127573  2.80093e-05      15.9359 
         -25      4.47457   0.00012779  2.81664e-05      15.9358 
         -25      4.53968  0.000128022  2.83131e-05      15.9358 
         -25      4.60525  0.000128271  2.84535e-05      15.9357 
         -25      4.67125   0.00012854  2.85931e-05      15.9356 
         -25      4.73777  0.000128835  2.87389e-05      15.9356 
         -25       4.8047  0.000129159  2.88974e-05      15.9355 
         -25      4.87216  0.000129518  2.90748e-05      15.9355 
         -25      4.94003  0.000129915  2.92747e-05      15.9354 
         -25      5.00843  0.000130352  2.94978e-05      15.9353 
         -25      5.07724  0.000130828  2.97378e-05      15.9353 
         -25      5.14658   0.00013134  2.99815e-05      15.9352 
         -25      5.21639  0.000131878  3.02038e-05      15.9351 
         -25      5.28661  0.000132422  3.03653e-05       15.935 
         -25      5.35736  0.000132949   3.0409e-05       15.935 
         -25      5.42852  0.000133371  3.04882e-05      15.9349 
         -25      5.50021  0.000133653  3.07577e-05      15.9348 
         -25      5.57231  0.000133761  3.09443e-05      15.9347 
         -25      5.64493  0.000133859  3.13959e-05      15.9347 
         -25      5.71803  0.000134189  3.20711e-05      15.9346 
         -25      5.79154  0.000134446  3.24732e-05      15.9345 
         -25      5.86558  0.000134665  3.27292e-05      15.9344 
         -25      5.94003  0.000134872  3.29302e-05      15.9343 
         -25      6.01501  0.000135083  3.31381e-05      15.9342 
         -25       6.0904  0.000135309  3.33882e-05      15.9341 
         -25      6.16632  0.000135554  3.36947e-05       15.934 
         -25      6.24271  0.000135818  3.40541e-05       15.934 
         -25       6.3195  0.000136123  3.43812e-05      15.9339 
         -25      6.39683  0.000136476  3.46566e-05      15.9338 
         -25      6.47457   0.00013683  3.49512e-05      15.9337 
         -25      6.55284  0.000137178  3.52257e-05      15.9336 
         -25      6.63152  0.000137511  3.54441e-05      15.9335 
         -25      6.71073  0.000137822  3.55798e-05      15.9334 
         -25      6.79034  0.000138105  3.56182e-05      15.9332 
         -25      6.87049  0.000138358  3.55594e-05      15.9331 
         -25      6.95111  0.000138579  3.54184e-05       15.933 
         -25      7.03214  0.000138772  3.52247e-05      15.9329 
         -25       7.1137   0.00013894  3.50179e-05      15.9328 
         -25      7.19566  0.000139088  3.48441e-05      15.9327 
         -25      7.27816  0.000139217  3.47467e-05      15.9326 
         -25      7.36106  0.000139325  3.47568e-05      15.9324 
         -25      7.44451    0.0001394  3.48797e-05      15.9323 
         -25      7.52842  0.000139416   3.5078e-05      15.9322 
         -25      7.61273  0.000139329  3.52516e-05      15.9321 
         -25      7.69758  0.000139067  3.52139e-05      15.9319 
         -25      7.78283  0.000138525  3.46636e-05      15.9318 
         -25      7.86862  0.000138337  3.41045e-05      15.9317 
         -25      7.95481   0.00013895  3.44298e-05      15.9316 
         -25      8.04155  0.000139419  3.51764e-05      15.9314 
         -25      8.12868  0.000139783  3.56357e-05      15.9313 
         -25      8.21635  0.000140303  3.48011e-05      15.9311 
         -25      8.30449  0.000140775  3.43527e-05       15.931 
         -25      8.39303  0.000141176  3.41733e-05      15.9308 
         -25      8.48211  0.000141495  3.41676e-05      15.9307 
         -25      8.57159  0.000141729  3.42614e-05      15.9305 
         -25      8.66161  0.000141885  3.43997e-05      15.9304 
         -25      8.75203  0.000141978  3.45451e-05      15.9302 
         -25      8.84299  0.000141843  3.45221e-05      15.9301 
         -25      8.93443  0.000141701  3.43626e-05      15.9299 
         -25      9.02626  0.000141653  3.41569e-05      15.9298 
         -25      9.11863  0.000141682  3.39295e-05      15.9296 
         -25      9.21139  0.000141768  3.37036e-05      15.9294 
         -25      9.30471  0.000141894  3.34984e-05      15.9293 
         -25      9.39841   0.00014204   3.3331e-05      15.9291 
         -25      9.49267  0.000142191  3.32138e-05      15.9289 
         -25      9.58739  0.000142333  3.31556e-05      15.9287 
         -25      9.68251  0.000142455  3.31607e-05      15.9286 
         -25      9.77817   0.00014255  3.32294e-05      15.9284 
         -25      9.87422  0.000142615  3.33572e-05      15.9282 
         -25      9.97083  0.000142652   3.3536e-05       15.928 
         -25      10.0678  0.000142664  3.37538e-05      15.9278 
         -25      10.1654  0.000142661  3.39958e-05      15.9276 
         -25      10.2633  0.000142654  3.42446e-05      15.9274 
         -25      10.3618  0.000142657  3.44821e-05      15.9272 
         -25      10.4607  0.000142684  3.46899e-05       15.927 
         -25      10.5601  0.000142748  3.48513e-05      15.9268 
         -25        10.66  0.000142859  3.49532e-05      15.9266 
         -25      10.7603  0.000143024  3.49881e-05      15.9264 
         -25      10.8611  0.000143239  3.49564e-05      15.9262 
         -25      10.9623  0.000143489  3.48694e-05       15.926 
         -25      11.0641  0.000143745  3.47526e-05      15.9257 
         -25      11.1663  0.000143848  3.47396e-05      15.9255 
         -25       11.269  0.000143708  3.49351e-05      15.9253 
         -25      11.3721  0.000143534  3.51315e-05      15.9251 
         -25      11.4757  0.000143336  3.52808e-05      15.9248 
         -25      11.5798  0.000143128  3.53561e-05      15.9246 
         -25      11.6844  0.000142927  3.53472e-05      15.9244 
         -25      11.7894  0.000142752  3.52585e-05      15.9241 
         -25       11.895   0.00014262  3.51058e-05      15.9239 
         -25      12.0009  0.000142547  3.49132e-05      15.9236 
         -25      12.1073  0.000142544  3.47097e-05      15.9234 
         -25      12.2142  0.000142612  3.45272e-05      15.9231 
         -25      12.3216   0.00014275  3.43961e-05      15.9229 
         -25      12.4294  0.000142942  3.43437e-05      15.9226 
         -25      12.5378  0.000143166  3.43902e-05      15.9224 
         -25      12.6465  0.000143383  3.45464e-05      15.9221 
         -25      12.7558  0.000143471  3.45791e-05      15.9218 
         -25      12.8656  0.000143375  3.42062e-05      15.9215 
         -25      12.9757  0.000143283  3.38704e-05      15.9213 
         -25      13.0864  0.000143203  3.35833e-05       15.921 
         -25      13.1975  0.000143141   3.3354e-05      15.9207 
         -25      13.3092  0.000143097  3.31864e-05      15.9204 
         -25      13.4212  0.000143067  3.30796e-05      15.9201 
         -25      13.5338  0.000143046  3.30272e-05      15.9198 
         -25      13.6468  0.000143027  3.30175e-05      15.9195 
         -25      13.7603  0.000142999  3.30343e-05      15.9192 
         -25      13.8743  0.000142953  3.30575e-05      15.9189 
         -25      13.9886  0.000142881   3.3065e-05      15.9186 
         -25      14.1036  0.000142776  3.30347e-05      15.9183 
         -25      14.2189  0.000142634  3.29475e-05       15.918 
         -25      14.3348  0.000142457  3.27898e-05      15.9177 
         -25       14.451  0.000142255  3.25586e-05      15.9173 
         -25      14.5678  0.000142043  3.22651e-05       15.917 
         -25      14.6851  0.000141936  3.22341e-05      15.9167 
         -25      14.8028  0.000141942  3.22726e-05      15.9164 
         -25       14.921  0.000142002  3.22797e-05       15.916 
         -25      15.0396  0.000142088  3.22696e-05      15.9157 
         -25      15.1588  0.000142178  3.22528e-05      15.9153 
         -25      15.2783  0.000142255   3.2237e-05       15.915 
         -25      15.3984   0.00014231  3.22269e-05      15.9146 
         -25       15.519  0.000142334  3.22252e-05      15.9143 
         -25        15.64  0.000142326  3.22325e-05      15.9139 
         -25      15.7615  0.000142285  3.22482e-05      15.9135 
         -25      15.8834  0.000142215  3.22707e-05      15.9132 
         -25      16.0058  0.000142119  3.22978e-05      15.9128 
         -25      16.1286  0.000142002  3.23269e-05      15.9124 
         -25       16.252  0.000141871  3.23559e-05       15.912 
         -25      16.3759   0.00014173   3.2383e-05      15.9116 
         -25      16.5002  0.000141586  3.24071e-05      15.9113 
         -25       16.625   0.00014144  3.24283e-05      15.9109 
         -25      16.7501  0.000141297  3.24482e-05      15.9105 
         -25      16.8759  0.000141157  3.24698e-05      15.9101 
         -25       17.002  0.000141018  3.24977e-05      15.9097 
         -25      17.1287  0.000140875  3.25389e-05      15.9092 
         -25      17.2557  0.000140723  3.26018e-05      15.9088 
         -25      17.3834  0.000140553  3.26973e-05      15.9084 
         -25      17.5115  0.000140353  3.28382e-05       15.908 
         -25      17.6399   0.00014011   3.3039e-05      15.9076 
         -25       17.769  0.000139806  3.33168e-05      15.9071 
         -25      17.8984  0.000139608  3.35116e-05      15.9067 
         -25      18.0284   0.00013956  3.36097e-05      15.9062 
         -25      18.1587  0.000139522  3.37527e-05      15.9058 
         -25      18.2896  0.000139517  3.39173e-05      15.9053 
         -25       18.421  0.000139578  3.40748e-05      15.9049 
         -25      18.5528  0.000139745  3.41903e-05      15.9044 
         -25      18.6851  0.000140072  3.42207e-05       15.904 
         -25      18.8178  0.000140624  3.41126e-05      15.9035 
         -25      18.9511  0.000140695  3.38765e-05       15.903 
         -25      19.0847  0.000140406  3.35864e-05      15.9025 
         -25      19.2189  0.000139996  3.32521e-05      15.9021 
         -25      19.3535  0.000139482  3.28917e-05      15.9016 
         -25      19.4886  0.000138888  3.25228e-05      15.9011 
         -25      19.6242  0.000138479  3.26192e-05      15.9006 
         -25      19.7602  0.000138472  3.32941e-05      15.9001 
         -25      19.8968  0.000138467  3.36809e-05      15.8996 
         -25      20.0337  0.000138463  3.38491e-05      15.8991 
         -25      20.1712  0.000138458  3.38609e-05      15.8985 
         -25      20.3091  0.000138447  3.37705e-05       15.898 
         -25      20.4475  0.000138426  3.36238e-05      15.8975 
         -25      20.5864  0.000138388  3.34589e-05       15.897 
         -25      20.7257  0.000138331  3.33062e-05      15.8964 
         -25      20.8655  0.000138251   3.3188e-05      15.8959 
         -25      21.0058  0.000138146  3.31196e-05      15.8953 
         -25      21.1465  0.000138016  3.31093e-05      15.8948 
         -25      21.2877  0.000137862  3.31592e-05      15.8942 
         -25      21.4294  0.000137688  3.32655e-05      15.8937 
         -25      21.5716  0.000137498  3.34199e-05      15.8931 
         -25      21.7142    0.0001373  3.36095e-05      15.8925 
         -25      21.8573  0.000137101  3.38193e-05       15.892 
         -25      22.0008   0.00013691   3.4032e-05      15.8914 
         -25      22.1449  0.000136735  3.42306e-05      15.8908 
         -25      22.2893  0.000136586  3.43988e-05      15.8902 
         -25      22.4344  0.000136468  3.45238e-05      15.8896 
         -25      22.5797  0.000136386  3.45973e-05       15.889 
         -25      22.7257   0.00013634   3.4618e-05      15.8884 
         -25      22.8721  0.000136325   3.4594e-05      15.8878 
         -25      23.0189  0.000136328  3.45451e-05      15.8872 
         -25      23.1663  0.000136328  3.45054e-05      15.8865 
         -25       23.314  0.000136291  3.45265e-05      15.8859 
         -25      23.4623  0.000136173  3.46807e-05      15.8853 
         -25       23.611   0.00013591  3.50636e-05      15.8846 
         -25      23.7602  0.000135628   3.5261e-05       15.884 
         -25        23.91   0.00013547  3.51298e-05      15.8834 
         -25        24.06  0.000135264  3.51877e-05      15.8827 
         -25      24.2107  0.000135028  3.53521e-05       15.882 
         -25      24.3617   0.00013478  3.55592e-05      15.8814 
         -25      24.5133  0.000134531   3.5763e-05      15.8807 
         -25      24.6653   0.00013429  3.59314e-05        15.88 
         -25      24.8178  0.000134064  3.60458e-05      15.8794 
         -25      24.9708  0.000133856  3.60971e-05      15.8787 
         -25      25.1242  0.000133668  3.60852e-05       15.878 
         -25      25.2781  0.000133499  3.60164e-05      15.8773 
         -25      25.4324  0.000133348  3.59017e-05      15.8766 
         -25      25.5873  0.000133213   3.5755e-05      15.8759 
         -25      25.7426   0.00013309  3.55922e-05      15.8752 
         -25      25.8984  0.000132978   3.5429e-05      15.8744 
         -25      26.0546  0.000132871  3.52807e-05      15.8737 
         -25      26.2114  0.000132767    3.516e-05       15.873 
         -25      26.3686  0.000132664  3.50776e-05      15.8723 
         -25      26.5262  0.000132558  3.50407e-05      15.8715 
         -25      26.6844  0.000132448  3.50528e-05      15.8708 
         -25      26.8429  0.000132332  3.51138e-05        15.87 
         -25       27.002  0.000132209  3.52203e-05      15.8693 
         -25      27.1615   0.00013208  3.53655e-05      15.8685 
         -25      27.3216  0.000131943  3.55406e-05      15.8677 
         -25      27.4821  0.000131799  3.57355e-05       15.867 
         -25       27.643  0.000131649  3.59398e-05      15.8662 
         -25      27.8044  0.000131492  3.61458e-05      15.8654 
         -25      27.9663  0.000131327  3.63488e-05      15.8646 
         -25      28.1287  0.000131151  3.65515e-05      15.8638 
         -25      28.2914  0.000130961  3.67651e-05       15.863 
         -25      28.4548  0.000130749   3.7014e-05      15.8622 
         -25      28.6185  0.000130506  3.73387e-05      15.8614 
         -25      28.7828  0.000130136   3.7672e-05      15.8606 
         -25      28.9475  0.000129603  3.78818e-05      15.8598 
         -25      29.1126  0.000129194  3.80377e-05      15.8589 
         -25      29.2784  0.000129228  3.82929e-05      15.8581 
         -25      29.4444  0.000129691  3.85432e-05      15.8572 
         -25       29.611  0.000129886  3.84904e-05      15.8564 
         -25       29.778  0.000129778  3.83768e-05      15.8556 
         -25      29.9456  0.000129599  3.83518e-05      15.8547 
         -25      30.1137  0.000129387  3.83913e-05      15.8538 
         -25      30.2821  0.000129165  3.84761e-05       15.853 
         -25      30.4511  0.000128948  3.85917e-05      15.8521 
         -25      30.6204  0.000128745  3.87268e-05      15.8512 
         -25      30.7903  0.000128557  3.88731e-05      15.8503 
         -25      30.9606  0.000128382  3.90246e-05      15.8494 
         -25      31.1315  0.000128217  3.91771e-05      15.8485 
         -25      31.3028  0.000128056  3.93275e-05      15.8476 
         -25      31.4745  0.000127895  3.94734e-05      15.8467 
         -25      31.6468   0.00012773  3.96131e-05      15.8458 
         -25      31.8194  0.000127558  3.97448e-05      15.8449 
         -25      31.9926  0.000127378   3.9867e-05       15.844 
         -25      32.1662  0.000127195  3.99778e-05       15.843 
         -25      32.3404   0.00012701  4.00756e-05      15.8421 
         -25      32.5149   0.00012683  4.01585e-05      15.8412 
         -25        32.69  0.000126661  4.02252e-05      15.8402 
         -25      32.8655   0.00012651  4.02749e-05      15.8393 
         -25      33.0414  0.000126381  4.03079e-05      15.8383 
         -25       33.218  0.000126275  4.03262e-05      15.8373 
         -25      33.3948  0.000126189  4.03344e-05      15.8364 
         -25      33.5723  0.000126109  4.03403e-05      15.8354 
         -25        33.75  0.000126012  4.03561e-05      15.8344 
         -25      33.9284  0.000125858  4.03994e-05      15.8334 
         -25      34.1073  0.000125591  4.04951e-05      15.8324 
         -25      34.2865   0.00012513  4.06759e-05      15.8314 
         -25      34.4663  0.000124561  4.08186e-05      15.8304 
         -25      34.6465   0.00012451   4.0545e-05      15.8294 
         -25      34.8272  0.000124309  4.05263e-05      15.8284 
         -25      35.0083  0.000124031  4.06557e-05      15.8274 
         -25        35.19   0.00012373   4.0854e-05      15.8263 
         -25      35.3721  0.000123444  4.10649e-05      15.8253 
         -25      35.5546  0.000123195  4.12521e-05      15.8243 
         -25      35.7377  0.000122994  4.13965e-05      15.8232 
         -25      35.9211  0.000122842  4.14915e-05      15.8222 
         -25      36.1052  0.000122731  4.15408e-05      15.8211 
         -25      36.2895  0.000122649  4.15551e-05      15.8201 
         -25      36.4745   0.00012258  4.15489e-05       15.819 
         -25      36.6598  0.000122508  4.15384e-05      15.8179 
         -25      36.8457  0.000122418  4.15382e-05      15.8168 
         -25      37.0321  0.000122297  4.15596e-05      15.8158 
         -25      37.2188   0.00012214  4.16082e-05      15.8147 
         -25      37.4062  0.000121947  4.16819e-05      15.8136 
         -25      37.5938  0.000121731  4.17692e-05      15.8125 
         -25      37.7821  0.000121514  4.18483e-05      15.8114 
         -25      37.9707  0.000121333  4.18851e-05      15.8103 
         -25      38.1599  0.000121242   4.1833e-05      15.8091 
         -25      38.3496  0.000121309  4.16319e-05       15.808 
         -25      38.5396  0.000121363  4.13578e-05      15.8069 
         -25      38.7302  0.000121121   4.1309e-05      15.8058 
         -25      38.9211  0.000120844  4.13848e-05      15.8046 
         -25      39.1127  0.000120536  4.15651e-05      15.8035 
         -25      39.3046  0.000120204  4.18277e-05      15.8023 
         -25      39.4971  0.000119856  4.21483e-05      15.8012 
         -25      39.6899  0.000119499  4.24976e-05         15.8 
         -25      39.8833  0.000119144  4.28419e-05      15.7989 
         -25      40.0772  0.000118805  4.31398e-05      15.7977 
         -25      40.2714  0.000118501  4.33415e-05      15.7965 
         -25      40.4663  0.000118256  4.33872e-05      15.7953 
         -25      40.6615  0.000118103  4.32046e-05      15.7942 
         -25      40.8573   0.00011808  4.27066e-05       15.793 
         -25      41.0534  0.000118063  4.24271e-05      15.7918 
         -25      41.2501  0.000117851  4.27755e-05      15.7906 
         -25      41.4473  0.000117618  4.30077e-05      15.7894 
         -25      41.6448   0.00011737  4.31469e-05      15.7882 
         -25      41.8429  0.000117109  4.32139e-05      15.7869 
         -25      42.0414  0.000116839  4.32267e-05      15.7857 
         -25      42.2405  0.000116562   4.3201e-05      15.7845 
         -25      42.4399  0.000116281  4.31503e-05      15.7833 
         -25      42.6399  0.000115999  4.30858e-05       15.782 
         -25      42.8404  0.000115718   4.3017e-05      15.7808 
         -25      43.0412   0.00011544  4.29517e-05      15.7795 
         -25      43.2426  0.000115167  4.28957e-05      15.7783 
         -25      43.4444  0.000114901  4.28538e-05       15.777 
         -25      43.6467  0.000114643  4.28289e-05      15.7758 
         -25      43.8494  0.000114394  4.28232e-05      15.7745 
         -25      44.0527  0.000114155  4.28374e-05      15.7732 
         -25      44.2563  0.000113927  4.28716e-05      15.7719 
         -25      44.4606   0.00011371  4.29247e-05      15.7707 
         -25      44.6653  0.000113505  4.29953e-05      15.7694 
         -25      44.8704  0.000113311   4.3081e-05      15.7681 
         -25       45.076  0.000113129  4.31793e-05      15.7668 
         -25       45.282  0.000112957   4.3287e-05      15.7655 
         -25      45.4886  0.000112795  4.34008e-05      15.7642 
         -25      45.6955  0.000112643  4.35171e-05      15.7629 
         -25       45.903  0.000112499  4.36323e-05      15.7616 
         -25      46.1111  0.000112362  4.37428e-05      15.7602 
         -25      46.3194  0.000112231  4.38448e-05      15.7589 
         -25      46.5283  0.000112103  4.39348e-05      15.7576 
         -25      46.7376  0.000111978  4.40094e-05      15.7563 
         -25      46.9475  0.000111852  4.40654e-05      15.7549 
         -25      47.1577  0.000111725  4.40997e-05      15.7536 
         -25      47.3685  0.000111593  4.41097e-05      15.7522 
         -25      47.5798  0.000111454  4.40927e-05      15.7509 
         -25      47.7914  0.000111306  4.40466e-05      15.7495 
         -25      48.0037  0.000111128  4.39773e-05      15.7482 