Variables = x, y, u, v, p

Zone, I=800, F=POINT
         100            0  3.60129e-19  1.86935e-24      189.875 
         100     0.000234  1.78566e-05   9.1054e-11      189.875 
         100     0.000939   6.7457e-05  3.23909e-10      189.875 
         100     0.002113  0.000137196  5.80196e-10      189.875 
         100     0.003759  0.000211604  6.85717e-10      189.875 
         100     0.005872  0.000274985  4.38877e-10      189.875 
         100     0.008457  0.000316459 -3.51992e-10      189.875 
         100      0.01151  0.000332413 -1.82649e-09      189.875 
         100     0.015036  0.000327654  -4.0373e-09      189.875 
         100     0.019031  0.000313358 -6.90462e-09      189.875 
         100     0.023493  0.000302741 -1.01889e-08      189.875 
         100     0.028429  0.000305456 -1.34688e-08      189.875 
         100     0.033831  0.000322949 -1.60973e-08      189.875 
         100     0.039706  0.000347179 -1.71926e-08      189.875 
         100     0.046047  0.000364684 -1.55937e-08      189.875 
         100     0.052863   0.00036634 -9.82545e-09      189.875 
         100      0.06015  0.000358607  1.92712e-09      189.875 
         100       0.0679  0.000365483  2.17973e-08      189.875 
         100     0.076126  0.000398677  5.22418e-08      189.875 
         100     0.084816  0.000385173  9.57624e-08      189.875 
         100     0.093982  0.000401821  1.55506e-07      189.875 
         100     0.103611  0.000412041  2.34392e-07      189.875 
         100     0.113718  0.000418846  3.35881e-07      189.875 
         100     0.124286   0.00042435  4.63171e-07      189.875 
         100     0.135333   0.00042972  6.19824e-07      189.875 
         100      0.14685  0.000435215  8.09007e-07      189.875 
         100     0.158827  0.000440441  1.03366e-06      189.875 
         100     0.171284  0.000444748  1.29712e-06      189.875 
         100     0.184201  0.000447649  1.60173e-06      189.875 
         100     0.197599  0.000449228  1.95046e-06      189.875 
         100     0.211455  0.000450209  2.34487e-06      189.875 
         100     0.225792  0.000451457  2.78728e-06      189.875 
         100       0.2406  0.000452417  3.27837e-06      189.875 
         100     0.255865  0.000450862  3.81786e-06      189.875 
         100     0.271613  0.000450108  4.40889e-06      189.875 
         100     0.287818  0.000448714  5.05007e-06      189.875 
         100     0.304506  0.000446826  5.74108e-06      189.875 
         100      0.32165  0.000444576  6.47949e-06      189.875 
         100     0.339278  0.000442074  7.26517e-06      189.875 
         100     0.357377  0.000439415  8.09613e-06      189.875 
         100      0.37593  0.000436675  8.96997e-06      189.875 
         100     0.394968  0.000433907  9.88626e-06      189.875 
         100     0.414461  0.000431159  1.08413e-05      189.875 
         100      0.43444  0.000428462  1.18339e-05      189.875 
         100     0.454872  0.000425846  1.28593e-05      189.875 
         100     0.475791  0.000423332  1.39153e-05      189.875 
         100     0.497163  0.000420947  1.49962e-05      189.875 
         100     0.519021  0.000418708  1.60996e-05      189.875 
         100      0.54135  0.000416628  1.72208e-05      189.875 
         100     0.564131  0.000414699  1.83561e-05      189.875 
         100       0.5874  0.000412868  1.95069e-05      189.875 
         100     0.611121  0.000411023  2.06738e-05      189.875 
         100      0.63533  0.000409259  2.18396e-05      189.875 
         100      0.65999  0.000407516   2.2995e-05      189.875 
         100     0.685139   0.00040572  2.41422e-05      189.875 
         100     0.710759   0.00040381  2.52799e-05      189.875 
         100     0.736828  0.000401739  2.64065e-05      189.875 
         100     0.763387  0.000399464  2.75225e-05      189.875 
         100     0.790396  0.000396964  2.86245e-05      189.875 
         100     0.817896  0.000394219  2.97122e-05      189.875 
         100     0.845843  0.000391231  3.07819e-05      189.875 
         100     0.874283  0.000388001  3.18333e-05      189.875 
         100      0.90317   0.00038455  3.28626e-05      189.875 
         100     0.932551  0.000380896  3.38701e-05      189.875 
         100     0.962401  0.000377072  3.48534e-05      189.875 
         100     0.992697  0.000373116  3.58113e-05      189.875 
         100      1.02349  0.000369057  3.67453e-05      189.875 
         100      1.05472  0.000364938  3.76546e-05      189.875 
         100      1.08645  0.000360787  3.85423e-05      189.875 
         100      1.11863  0.000356642  3.94091e-05      189.875 
         100       1.1513  0.000352521  4.02592e-05      189.875 
         100      1.18444  0.000348445   4.1095e-05      189.875 
         100      1.21802  0.000344425  4.19187e-05      189.875 
         100      1.25211  0.000340456   4.2734e-05      189.875 
         100      1.28663  0.000336537  4.35404e-05      189.875 
         100      1.32165  0.000332649  4.43376e-05      189.875 
         100      1.35712  0.000328782  4.51189e-05      189.875 
         100      1.39308  0.000324919  4.58749e-05      189.875 
         100      1.42951  0.000321058  4.65869e-05      189.875 
         100      1.46638  0.000317221  4.72264e-05      189.875 
         100      1.50375  0.000313452  4.77537e-05      189.875 
         100      1.54156  0.000309545  4.84277e-05      189.875 
         100      1.57987   0.00030569  4.90729e-05      189.875 
         100      1.61863  0.000301908  4.96709e-05      189.875 
         100      1.65788  0.000298188  5.02239e-05      189.875 
         100      1.69757  0.000294534  5.07322e-05      189.875 
         100      1.73776  0.000290938  5.11977e-05      189.875 
         100      1.77842  0.000287402  5.16209e-05      189.875 
         100      1.81952  0.000283928  5.20023e-05      189.875 
         100      1.86113   0.00028051  5.23431e-05      189.875 
         100      1.90316  0.000277156  5.26435e-05      189.875 
         100      1.94571  0.000273861  5.29042e-05      189.875 
         100      1.98869  0.000270635  5.31252e-05      189.875 
         100      2.03217  0.000267474   5.3307e-05      189.875 
         100      2.07612  0.000264386  5.34495e-05      189.875 
         100      2.12051  0.000261378  5.35529e-05      189.875 
         100       2.1654   0.00025845  5.36174e-05      189.875 
         100      2.21073  0.000255613  5.36428e-05      189.875 
         100      2.25656  0.000252867  5.36293e-05      189.875 
         100      2.30283  0.000250225  5.35771e-05      189.875 
         100       2.3496  0.000247687  5.34862e-05      189.875 
         100      2.39685  0.000245262   5.3357e-05      189.875 
         100      2.44452  0.000242959  5.31901e-05      189.875 
         100      2.49271  0.000240781  5.29858e-05      189.875 
         100      2.54132  0.000238736  5.27452e-05      189.875 
         100      2.59044  0.000236827  5.24691e-05      189.875 
         100         2.64  0.000235061   5.2159e-05      189.875 
         100      2.69006  0.000233441  5.18161e-05      189.875 
         100      2.74056  0.000231973  5.14429e-05      189.875 
         100      2.79156  0.000230656  5.10408e-05      189.875 
         100      2.84304  0.000229494  5.06128e-05      189.875 
         100      2.89494  0.000228488  5.01621e-05      189.875 
         100      2.94735  0.000227635  4.96913e-05      189.875 
         100       3.0002  0.000226937  4.92045e-05      189.875 
         100      3.05355  0.000226389  4.87051e-05      189.874 
         100      3.10733  0.000225987  4.81979e-05      189.874 
         100      3.16163  0.000225728  4.76866e-05      189.874 
         100      3.21639  0.000225605  4.71762e-05      189.874 
         100      3.27158  0.000225611  4.66718e-05      189.874 
         100      3.32729   0.00022574  4.61776e-05      189.874 
         100      3.38342  0.000225985  4.56988e-05      189.874 
         100      3.44007  0.000226337  4.52393e-05      189.874 
         100      3.49714  0.000226792  4.48038e-05      189.874 
         100      3.55472  0.000227342   4.4395e-05      189.874 
         100      3.61273  0.000227984  4.40164e-05      189.874 
         100      3.67125  0.000228716  4.36689e-05      189.874 
         100      3.73025  0.000229541  4.33529e-05      189.874 
         100      3.78967  0.000230413  4.29238e-05      189.874 
         100      3.84961  0.000231308   4.2527e-05      189.874 
         100      3.90996  0.000232227  4.21922e-05      189.874 
         100      3.97084   0.00023316  4.18768e-05      189.874 
         100      4.03214  0.000234098   4.1559e-05      189.874 
         100      4.09395  0.000235037    4.123e-05      189.874 
         100      4.15624  0.000235971  4.08905e-05      189.874 
         100      4.21895  0.000236898   4.0545e-05      189.874 
         100      4.28217  0.000237814  4.01965e-05      189.874 
         100      4.34582  0.000238715  3.98446e-05      189.874 
         100      4.40998  0.000239606  3.95188e-05      189.874 
         100      4.47457  0.000240484  3.92187e-05      189.874 
         100      4.53968  0.000241343  3.89126e-05      189.874 
         100      4.60525   0.00024218  3.85943e-05      189.874 
         100      4.67125  0.000242993  3.82597e-05      189.874 
         100      4.73777  0.000243784  3.79111e-05      189.874 
         100       4.8047  0.000244557  3.75655e-05      189.873 
         100      4.87216  0.000245325  3.72613e-05      189.873 
         100      4.94003   0.00024607  3.69304e-05      189.873 
         100      5.00843  0.000246803  3.65891e-05      189.873 
         100      5.07724  0.000247531  3.62876e-05      189.873 
         100      5.14658  0.000248242  3.59748e-05      189.873 
         100      5.21639  0.000248928  3.56374e-05      189.873 
         100      5.28661  0.000249589  3.52871e-05      189.873 
         100      5.35736  0.000250228  3.49482e-05      189.873 
         100      5.42852  0.000250846  3.46487e-05      189.873 
         100      5.50021  0.000251483  3.43181e-05      189.873 
         100      5.57231  0.000252103  3.40003e-05      189.873 
         100      5.64493  0.000252701  3.36969e-05      189.873 
         100      5.71803  0.000253277  3.33899e-05      189.873 
         100      5.79154  0.000253833  3.30628e-05      189.873 
         100      5.86558  0.000254373  3.27117e-05      189.873 
         100      5.94003    0.0002549  3.23621e-05      189.873 
         100      6.01501  0.000255418  3.20869e-05      189.873 
         100       6.0904   0.00025593   3.1862e-05      189.872 
         100      6.16632  0.000256432  3.14442e-05      189.872 
         100      6.24271  0.000256912  3.11354e-05      189.872 
         100       6.3195  0.000257376  3.08677e-05      189.872 
         100      6.39683  0.000257832   3.0603e-05      189.872 
         100      6.47457  0.000258283  3.03259e-05      189.872 
         100      6.55284  0.000258732  3.00334e-05      189.872 
         100      6.63152  0.000259179  2.97308e-05      189.872 
         100      6.71073  0.000259623  2.94241e-05      189.872 
         100      6.79034  0.000260058  2.91189e-05      189.872 
         100      6.87049  0.000260481  2.88174e-05      189.872 
         100      6.95111  0.000260885  2.85211e-05      189.872 
         100      7.03214  0.000261265  2.82342e-05      189.872 
         100       7.1137  0.000261623  2.79694e-05      189.872 
         100      7.19566  0.000261963  2.77604e-05      189.871 
         100      7.27816  0.000262336  2.74488e-05      189.871 
         100      7.36106  0.000262706  2.71142e-05      189.871 
         100      7.44451  0.000263063  2.67871e-05      189.871 
         100      7.52842  0.000263406  2.64793e-05      189.871 
         100      7.61273  0.000263721  2.62162e-05      189.871 
         100      7.69758  0.000264005  2.59411e-05      189.871 
         100      7.78283   0.00026428  2.56782e-05      189.871 
         100      7.86862  0.000264543  2.54234e-05      189.871 
         100      7.95481  0.000264795  2.51742e-05      189.871 
         100      8.04155  0.000265035  2.49283e-05      189.871 
         100      8.12868  0.000265264  2.46846e-05       189.87 
         100      8.21635  0.000265483  2.44421e-05       189.87 
         100      8.30449  0.000265693  2.42006e-05       189.87 
         100      8.39303  0.000265896  2.39606e-05       189.87 
         100      8.48211  0.000266092   2.3722e-05       189.87 
         100      8.57159  0.000266285  2.34858e-05       189.87 
         100      8.66161  0.000266474  2.32522e-05       189.87 
         100      8.75203  0.000266663  2.30226e-05       189.87 
         100      8.84299  0.000266851  2.27971e-05       189.87 
         100      8.93443  0.000267039  2.25766e-05      189.869 
         100      9.02626  0.000267229   2.2362e-05      189.869 
         100      9.11863  0.000267419  2.21532e-05      189.869 
         100      9.21139  0.000267609  2.19512e-05      189.869 
         100      9.30471  0.000267796  2.17558e-05      189.869 
         100      9.39841   0.00026798  2.15677e-05      189.869 
         100      9.49267  0.000268157  2.13871e-05      189.869 
         100      9.58739  0.000268322  2.12147e-05      189.869 
         100      9.68251   0.00026847  2.10516e-05      189.868 
         100      9.77817  0.000268599  2.08744e-05      189.868 
         100      9.87422   0.00026875  2.07026e-05      189.868 
         100      9.97083  0.000268914   2.0536e-05      189.868 
         100      10.0678  0.000269061  2.03541e-05      189.868 
         100      10.1654  0.000269152  2.01641e-05      189.868 
         100      10.2633  0.000269224  2.00799e-05      189.868 
         100      10.3618  0.000269295  1.99074e-05      189.868 
         100      10.4607  0.000269363  1.96872e-05      189.867 
         100      10.5601  0.000269428  1.94491e-05      189.867 
         100        10.66  0.000269489  1.92128e-05      189.867 
         100      10.7603  0.000269548  1.89914e-05      189.867 
         100      10.8611  0.000269605  1.87907e-05      189.867 
         100      10.9623   0.00026966  1.86128e-05      189.867 
         100      11.0641  0.000269715  1.84557e-05      189.866 
         100      11.1663  0.000269769   1.8316e-05      189.866 
         100       11.269   0.00026982  1.81079e-05      189.866 
         100      11.3721  0.000269884  1.78899e-05      189.866 
         100      11.4757  0.000269961  1.76638e-05      189.866 
         100      11.5798  0.000270054   1.7431e-05      189.866 
         100      11.6844   0.00027016  1.71942e-05      189.865 
         100      11.7894  0.000270277  1.69555e-05      189.865 
         100       11.895  0.000270401  1.67181e-05      189.865 
         100      12.0009  0.000270526  1.64854e-05      189.865 
         100      12.1073  0.000270645  1.62602e-05      189.865 
         100      12.2142  0.000270751   1.6046e-05      189.865 
         100      12.3216  0.000270839   1.5845e-05      189.864 
         100      12.4294  0.000270903  1.56592e-05      189.864 
         100      12.5378  0.000270939  1.54888e-05      189.864 
         100      12.6465  0.000270947  1.53328e-05      189.864 
         100      12.7558  0.000270933  1.51871e-05      189.864 
         100      12.8656  0.000270907  1.50449e-05      189.863 
         100      12.9757  0.000270889  1.48956e-05      189.863 
         100      13.0864  0.000270909  1.47232e-05      189.863 
         100      13.1975  0.000271008  1.45066e-05      189.863 
         100      13.3092  0.000271015  1.42896e-05      189.863 
         100      13.4212  0.000270865  1.41549e-05      189.862 
         100      13.5338  0.000270812  1.40297e-05      189.862 
         100      13.6468  0.000270828  1.39038e-05      189.862 
         100      13.7603  0.000270888    1.377e-05      189.862 
         100      13.8743   0.00027097  1.36236e-05      189.862 
         100      13.9886  0.000271055  1.34632e-05      189.861 
         100      14.1036  0.000271125  1.32899e-05      189.861 
         100      14.2189  0.000271165  1.31079e-05      189.861 
         100      14.3348   0.00027116  1.29236e-05      189.861 
         100       14.451  0.000271097  1.27701e-05       189.86 
         100      14.5678  0.000271044  1.26788e-05       189.86 
         100      14.6851  0.000271015  1.26237e-05       189.86 
         100      14.8028  0.000271007  1.25842e-05       189.86 
         100       14.921  0.000271018  1.25444e-05      189.859 
         100      15.0396  0.000271044  1.24934e-05      189.859 
         100      15.1588   0.00027108  1.24245e-05      189.859 
         100      15.2783  0.000271122  1.23355e-05      189.859 
         100      15.3984  0.000271165  1.22278e-05      189.858 
         100       15.519  0.000271205  1.21059e-05      189.858 
         100        15.64  0.000271238  1.19767e-05      189.858 
         100      15.7615  0.000271261  1.18483e-05      189.858 
         100      15.8834  0.000271271  1.17291e-05      189.857 
         100      16.0058  0.000271267  1.16261e-05      189.857 
         100      16.1286  0.000271249   1.1544e-05      189.857 
         100       16.252   0.00027122  1.14826e-05      189.857 
         100      16.3759  0.000271185  1.14353e-05      189.856 
         100      16.5002  0.000271151  1.13866e-05      189.856 
         100       16.625  0.000271128  1.13096e-05      189.856 
         100      16.7501  0.000271195  1.11826e-05      189.855 
         100      16.8759  0.000271322  1.10796e-05      189.855 
         100       17.002  0.000271391  1.09987e-05      189.855 
         100      17.1287  0.000271424  1.09281e-05      189.854 
         100      17.2557  0.000271436    1.086e-05      189.854 
         100      17.3834  0.000271439  1.07895e-05      189.854 
         100      17.5115   0.00027144  1.07142e-05      189.854 
         100      17.6399  0.000271445   1.0634e-05      189.853 
         100       17.769  0.000271455  1.05502e-05      189.853 
         100      17.8984  0.000271472  1.04651e-05      189.853 
         100      18.0284  0.000271493  1.03817e-05      189.852 
         100      18.1587  0.000271518  1.03033e-05      189.852 
         100      18.2896  0.000271543  1.02326e-05      189.852 
         100       18.421  0.000271568  1.01719e-05      189.851 
         100      18.5528  0.000271589  1.01229e-05      189.851 
         100      18.6851  0.000271605  1.00856e-05      189.851 
         100      18.8178  0.000271616  1.00591e-05       189.85 
         100      18.9511   0.00027162  1.00404e-05       189.85 
         100      19.0847  0.000271618  1.00253e-05       189.85 
         100      19.2189  0.000271612  1.00077e-05      189.849 
         100      19.3535  0.000271602  9.97965e-06      189.849 
         100      19.4886  0.000271589  9.93173e-06      189.848 
         100      19.6242  0.000271574  9.85302e-06      189.848 
         100      19.7602  0.000271557  9.73149e-06      189.848 
         100      19.8968  0.000271524  9.64877e-06      189.847 
         100      20.0337  0.000271446  9.63135e-06      189.847 
         100      20.1712  0.000271347  9.56052e-06      189.847 
         100      20.3091  0.000271239  9.44584e-06      189.846 
         100      20.4475  0.000271127  9.29962e-06      189.846 
         100      20.5864  0.000270995  9.13783e-06      189.845 
         100      20.7257  0.000270812  8.98006e-06      189.845 
         100      20.8655  0.000270521  8.84925e-06      189.845 
         100      21.0058  0.000270692  8.98285e-06      189.844 
         100      21.1465  0.000270964  9.08629e-06      189.844 
         100      21.2877  0.000271118  9.09715e-06      189.843 
         100      21.4294  0.000271172  9.05156e-06      189.843 
         100      21.5716  0.000271146  8.97543e-06      189.843 
         100      21.7142  0.000271064  8.88627e-06      189.842 
         100      21.8573  0.000270949  8.79466e-06      189.842 
         100      22.0008  0.000270823  8.70634e-06      189.841 
         100      22.1449  0.000270706  8.62317e-06      189.841 
         100      22.2893  0.000270613  8.54508e-06       189.84 
         100      22.4344  0.000270553  8.47083e-06       189.84 
         100      22.5797  0.000270531  8.39961e-06       189.84 
         100      22.7257  0.000270544  8.33159e-06      189.839 
         100      22.8721  0.000270806  8.25464e-06      189.839 
         100      23.0189  0.000271055   8.1427e-06      189.838 
         100      23.1663  0.000271258  8.01706e-06      189.838 
         100       23.314  0.000271406  7.89765e-06      189.837 
         100      23.4623  0.000271494  7.80061e-06      189.837 
         100       23.611  0.000271521  7.73834e-06      189.836 
         100      23.7602  0.000271492  7.71847e-06      189.836 
         100        23.91  0.000271418  7.74397e-06      189.835 
         100        24.06  0.000271311  7.81275e-06      189.835 
         100      24.2107  0.000271186  7.91815e-06      189.834 
         100      24.3617  0.000271061  8.04878e-06      189.834 
         100      24.5133  0.000270952  8.18978e-06      189.833 
         100      24.6653  0.000270873  8.32289e-06      189.833 
         100      24.8178  0.000270833  8.42836e-06      189.832 
         100      24.9708  0.000270834   8.4856e-06      189.832 
         100      25.1242  0.000270867   8.4754e-06      189.831 
         100      25.2781   0.00027091  8.38171e-06      189.831 
         100      25.4324  0.000270923  8.19423e-06       189.83 
         100      25.5873  0.000270843  7.91047e-06       189.83 
         100      25.7426  0.000270707   7.6723e-06      189.829 
         100      25.8984  0.000270842  7.78052e-06      189.829 
         100      26.0546  0.000270937  7.83672e-06      189.828 
         100      26.2114  0.000271004  7.84777e-06      189.828 
         100      26.3686  0.000271053  7.82021e-06      189.827 
         100      26.5262  0.000271091  7.76056e-06      189.826 
         100      26.6844  0.000271123  7.67504e-06      189.826 
         100      26.8429   0.00027115  7.56996e-06      189.825 
         100       27.002  0.000271175  7.45118e-06      189.825 
         100      27.1615  0.000271196  7.32478e-06      189.824 
         100      27.3216  0.000271213  7.19631e-06      189.824 
         100      27.4821  0.000271224   7.0714e-06      189.823 
         100       27.643  0.000271226  6.95551e-06      189.822 
         100      27.8044  0.000271216  6.85356e-06      189.822 
         100      27.9663  0.000271194  6.77051e-06      189.821 
         100      28.1287  0.000271156  6.71074e-06      189.821 
         100      28.2914  0.000271102  6.67841e-06       189.82 
         100      28.4548  0.000271031   6.6771e-06      189.819 
         100      28.6185  0.000270942  6.70989e-06      189.819 
         100      28.7828  0.000270836  6.77927e-06      189.818 
         100      28.9475  0.000270721  6.86913e-06      189.818 
         100      29.1126  0.000270659  6.94615e-06      189.817 
         100      29.2784  0.000270653   7.0113e-06      189.816 
         100      29.4444  0.000270692  7.06694e-06      189.816 
         100       29.611  0.000270763  7.11618e-06      189.815 
         100       29.778  0.000270851  7.16227e-06      189.814 
         100      29.9456  0.000270936  7.20867e-06      189.814 
         100      30.1137  0.000271003  7.25845e-06      189.813 
         100      30.2821  0.000271034  7.31404e-06      189.812 
         100      30.4511  0.000271019  7.37693e-06      189.812 
         100      30.6204  0.000270953  7.44687e-06      189.811 
         100      30.7903  0.000270842   7.5218e-06       189.81 
         100      30.9606  0.000270704   7.5968e-06       189.81 
         100      31.1315  0.000270575  7.66389e-06      189.809 
         100      31.3028  0.000270511  7.71096e-06      189.808 
         100      31.4745  0.000270596  7.72123e-06      189.807 
         100      31.6468  0.000270488  7.75319e-06      189.807 
         100      31.8194  0.000270222  7.77193e-06      189.806 
         100      31.9926  0.000270094   7.7635e-06      189.805 
         100      32.1662  0.000270122  7.76667e-06      189.805 
         100      32.3404  0.000270291  7.81461e-06      189.804 
         100      32.5149  0.000270557  7.93619e-06      189.803 
         100        32.69  0.000270845  8.15802e-06      189.802 
         100      32.8655  0.000270807  8.23327e-06      189.802 
         100      33.0414  0.000270624  8.15733e-06      189.801 
         100       33.218  0.000270475  8.07415e-06        189.8 
         100      33.3948  0.000270355  7.99005e-06      189.799 
         100      33.5723   0.00027026  7.90953e-06      189.799 
         100        33.75  0.000270187    7.836e-06      189.798 
         100      33.9284  0.000270132  7.77145e-06      189.797 
         100      34.1073  0.000270092  7.71705e-06      189.796 
         100      34.2865  0.000270064  7.67314e-06      189.795 
         100      34.4663  0.000270044  7.63931e-06      189.795 
         100      34.6465   0.00027003  7.61479e-06      189.794 
         100      34.8272  0.000270019  7.59838e-06      189.793 
         100      35.0083   0.00027001  7.58874e-06      189.792 
         100        35.19  0.000270001  7.58441e-06      189.791 
         100      35.3721   0.00026999    7.584e-06      189.791 
         100      35.5546  0.000269976  7.58621e-06       189.79 
         100      35.7377  0.000269959     7.59e-06      189.789 
         100      35.9211  0.000269938  7.59458e-06      189.788 
         100      36.1052  0.000269913  7.59951e-06      189.787 
         100      36.2895  0.000269884   7.6047e-06      189.786 
         100      36.4745  0.000269852  7.61046e-06      189.786 
         100      36.6598  0.000269818  7.61746e-06      189.785 
         100      36.8457  0.000269782  7.62675e-06      189.784 
         100      37.0321  0.000269746  7.63966e-06      189.783 
         100      37.2188  0.000269711  7.65774e-06      189.782 
         100      37.4062  0.000269678  7.68273e-06      189.781 
         100      37.5938   0.00026965  7.71632e-06       189.78 
         100      37.7821  0.000269626  7.76019e-06      189.779 
         100      37.9707  0.000269608  7.81556e-06      189.779 
         100      38.1599  0.000269597  7.88335e-06      189.778 
         100      38.3496  0.000269593   7.9636e-06      189.777 
         100      38.5396  0.000269597  8.05532e-06      189.776 
         100      38.7302  0.000269606  8.15647e-06      189.775 
         100      38.9211  0.000269621  8.26306e-06      189.774 
         100      39.1127  0.000269638  8.36947e-06      189.773 
         100      39.3046  0.000269655  8.46733e-06      189.772 
         100      39.4971  0.000269666  8.54578e-06      189.771 
         100      39.6899  0.000269665  8.59037e-06       189.77 
         100      39.8833  0.000269645    8.583e-06      189.769 
         100      40.0772  0.000269596  8.50102e-06      189.768 
         100      40.2714  0.000269507  8.31703e-06      189.767 
         100      40.4663  0.000269364  7.99746e-06      189.766 
         100      40.6615  0.000268837  8.11481e-06      189.765 
         100      40.8573  0.000268912  8.23172e-06      189.764 
         100      41.0534  0.000268973  8.34615e-06      189.763 
         100      41.2501  0.000269016  8.45942e-06      189.762 
         100      41.4473  0.000269119  8.48349e-06      189.761 
         100      41.6448  0.000269205    8.468e-06       189.76 
         100      41.8429  0.000269266  8.43935e-06      189.759 
         100      42.0414  0.000269308  8.40703e-06      189.758 
         100      42.2405  0.000269337  8.37768e-06      189.757 
         100      42.4399  0.000269355  8.35567e-06      189.756 
         100      42.6399  0.000269364  8.34338e-06      189.755 
         100      42.8404  0.000269364  8.34164e-06      189.754 
         100      43.0412  0.000269356  8.35004e-06      189.753 
         100      43.2426  0.000269339  8.36732e-06      189.752 
         100      43.4444  0.000269313  8.39157e-06      189.751 
         100      43.6467  0.000269277  8.42064e-06       189.75 
         100      43.8494   0.00026923  8.45224e-06      189.749 
         100      44.0527  0.000269174  8.48428e-06      189.748 
         100      44.2563  0.000269107  8.51492e-06      189.747 
         100      44.4606  0.000269032  8.54287e-06      189.746 
         100      44.6653  0.000268949  8.56733e-06      189.745 
         100      44.8704  0.000268862  8.58813e-06      189.744 
         100       45.076  0.000268772  8.60582e-06      189.742 
         100       45.282  0.000268683  8.62151e-06      189.741 
         100      45.4886  0.000268599  8.63693e-06       189.74 
         100      45.6955  0.000268523  8.65422e-06      189.739 
         100       45.903   0.00026846  8.67585e-06      189.738 
         100      46.1111  0.000268413  8.70435e-06      189.737 
         100      46.3194  0.000268386    8.742e-06      189.736 
         100      46.5283  0.000268381  8.79066e-06      189.735 
         100      46.7376  0.000268399  8.85114e-06      189.733 
         100      46.9475   0.00026844  8.92306e-06      189.732 
         100      47.1577  0.000268501  9.00396e-06      189.731 
         100      47.3685  0.000268577  9.08913e-06       189.73 
         100      47.5798  0.000268658  9.17061e-06      189.729 
         100      47.7914  0.000268732  9.23656e-06      189.728 
         100      48.0037   0.00026878  9.27072e-06      189.726 