Variables = x, y, u, v, p

Zone, I=800, F=POINT
         -50            0            0            0      19.6039 
         -50     0.000234  -6.5517e-07   1.4207e-10      19.6039 
         -50     0.000939  -2.4516e-06  4.97238e-10      19.6039 
         -50     0.002113 -4.90454e-06  8.51484e-10      19.6039 
         -50     0.003759 -7.38179e-06  8.67663e-10      19.6039 
         -50     0.005872 -9.27855e-06  1.07272e-10      19.6039 
         -50     0.008457 -1.02351e-05 -1.94526e-09      19.6039 
         -50      0.01151 -1.02466e-05   -5.852e-09      19.6039 
         -50     0.015036 -9.68908e-06 -1.22179e-08      19.6039 
         -50     0.019031 -9.20068e-06 -2.16572e-08      19.6039 
         -50     0.023493 -9.44638e-06 -3.48022e-08      19.6039 
         -50     0.028429 -1.08359e-05 -5.23392e-08      19.6039 
         -50     0.033831 -1.32918e-05 -7.49353e-08      19.6039 
         -50     0.039706 -1.62112e-05 -1.03348e-07      19.6039 
         -50     0.046047 -1.86963e-05 -1.38305e-07      19.6039 
         -50     0.052863 -2.01009e-05 -1.80656e-07      19.6039 
         -50      0.06015 -2.06516e-05 -2.31254e-07      19.6039 
         -50       0.0679 -2.16332e-05 -2.91102e-07      19.6039 
         -50     0.076126 -2.39943e-05 -3.61866e-07      19.6039 
         -50     0.084816 -2.45012e-05 -4.45556e-07      19.6039 
         -50     0.093982 -2.55847e-05  -5.4009e-07      19.6039 
         -50     0.103611 -2.64106e-05 -6.47545e-07      19.6039 
         -50     0.113718 -2.70076e-05 -7.68978e-07      19.6039 
         -50     0.124286 -2.73942e-05 -9.04856e-07      19.6039 
         -50     0.135333 -2.75817e-05 -1.05589e-06      19.6039 
         -50      0.14685 -2.75732e-05 -1.22232e-06      19.6039 
         -50     0.158827 -2.73685e-05 -1.40432e-06      19.6039 
         -50     0.171284 -2.69685e-05 -1.60258e-06      19.6039 
         -50     0.184201 -2.63821e-05 -1.81742e-06      19.6039 
         -50     0.197599 -2.56287e-05 -2.05008e-06      19.6039 
         -50     0.211455 -2.47421e-05 -2.30139e-06      19.6039 
         -50     0.225792 -2.37565e-05 -2.57313e-06      19.6039 
         -50       0.2406 -2.26886e-05 -2.86624e-06      19.6039 
         -50     0.255865 -2.15288e-05 -3.18402e-06      19.6039 
         -50     0.271613 -2.03449e-05 -3.52994e-06      19.6039 
         -50     0.287818 -1.91415e-05 -3.90303e-06      19.6039 
         -50     0.304506 -1.79375e-05 -4.30612e-06      19.6039 
         -50      0.32165 -1.67551e-05 -4.73648e-06      19.6039 
         -50     0.339278 -1.56117e-05 -5.18899e-06      19.6039 
         -50     0.357377 -1.45261e-05 -5.65459e-06      19.6038 
         -50      0.37593 -1.35153e-05 -6.12248e-06      19.6038 
         -50     0.394968 -1.25912e-05 -6.58284e-06      19.6038 
         -50     0.414461 -1.17664e-05 -7.02579e-06      19.6038 
         -50      0.43444  -1.1048e-05 -7.44607e-06      19.6038 
         -50     0.454872 -1.04425e-05 -7.84175e-06      19.6038 
         -50     0.475791 -9.95132e-06 -8.21834e-06      19.6038 
         -50     0.497163 -9.57489e-06 -8.58675e-06      19.6038 
         -50     0.519021 -9.30975e-06 -8.96546e-06      19.6038 
         -50      0.54135 -9.15134e-06 -9.37671e-06      19.6038 
         -50     0.564131  -9.0935e-06 -9.84341e-06      19.6038 
         -50       0.5874 -9.12957e-06  -1.0384e-05      19.6038 
         -50     0.611121 -9.25225e-06 -1.09963e-05      19.6038 
         -50      0.63533 -9.44926e-06 -1.16056e-05      19.6038 
         -50      0.65999 -9.71863e-06 -1.22168e-05      19.6037 
         -50     0.685139 -1.00318e-05 -1.28288e-05      19.6037 
         -50     0.710759 -1.03604e-05 -1.34388e-05      19.6037 
         -50     0.736828 -1.06774e-05 -1.40439e-05      19.6037 
         -50     0.763387 -1.09578e-05 -1.46424e-05      19.6037 
         -50     0.790396 -1.11781e-05 -1.52308e-05      19.6037 
         -50     0.817896 -1.13179e-05 -1.58075e-05      19.6037 
         -50     0.845843  -1.1359e-05 -1.63691e-05      19.6037 
         -50     0.874283 -1.12863e-05 -1.69141e-05      19.6036 
         -50      0.90317 -1.10886e-05 -1.74398e-05      19.6036 
         -50     0.932551 -1.07575e-05 -1.79454e-05      19.6036 
         -50     0.962401 -1.02888e-05 -1.84291e-05      19.6036 
         -50     0.992697 -9.68254e-06 -1.88901e-05      19.6036 
         -50      1.02349  -8.9411e-06  -1.9329e-05      19.6035 
         -50      1.05472 -8.07263e-06 -1.97457e-05      19.6035 
         -50      1.08645 -7.08605e-06 -2.01421e-05      19.6035 
         -50      1.11863 -5.99638e-06 -2.05194e-05      19.6035 
         -50       1.1513 -4.81778e-06 -2.08807e-05      19.6035 
         -50      1.18444 -3.56884e-06 -2.12287e-05      19.6034 
         -50      1.21802 -2.26933e-06 -2.15665e-05      19.6034 
         -50      1.25211 -9.35622e-07  -2.1898e-05      19.6034 
         -50      1.28663  4.13013e-07 -2.22258e-05      19.6034 
         -50      1.32165  1.76484e-06 -2.25532e-05      19.6033 
         -50      1.35712  3.10851e-06 -2.28807e-05      19.6033 
         -50      1.39308  4.44412e-06 -2.32086e-05      19.6033 
         -50      1.42951  5.77807e-06 -2.35333e-05      19.6032 
         -50      1.46638  7.12901e-06 -2.38475e-05      19.6032 
         -50      1.50375  8.53447e-06 -2.41398e-05      19.6032 
         -50      1.54156  9.80106e-06 -2.42012e-05      19.6031 
         -50      1.57987  1.09909e-05 -2.42613e-05      19.6031 
         -50      1.61863   1.2095e-05 -2.43318e-05       19.603 
         -50      1.65788  1.30986e-05 -2.44082e-05       19.603 
         -50      1.69757  1.39859e-05 -2.44867e-05       19.603 
         -50      1.73776  1.47468e-05 -2.45642e-05      19.6029 
         -50      1.77842   1.5372e-05  -2.4638e-05      19.6029 
         -50      1.81952  1.58551e-05 -2.47058e-05      19.6028 
         -50      1.86113  1.61936e-05 -2.47662e-05      19.6028 
         -50      1.90316  1.63866e-05 -2.48179e-05      19.6027 
         -50      1.94571  1.64364e-05 -2.48601e-05      19.6027 
         -50      1.98869  1.63474e-05 -2.48922e-05      19.6026 
         -50      2.03217  1.61266e-05  -2.4914e-05      19.6026 
         -50      2.07612  1.57831e-05 -2.49251e-05      19.6025 
         -50      2.12051  1.53286e-05 -2.49254e-05      19.6024 
         -50       2.1654  1.47755e-05 -2.49147e-05      19.6024 
         -50      2.21073  1.41393e-05 -2.48924e-05      19.6023 
         -50      2.25656  1.34348e-05 -2.48579e-05      19.6023 
         -50      2.30283  1.26802e-05 -2.48104e-05      19.6022 
         -50       2.3496  1.18919e-05 -2.47482e-05      19.6021 
         -50      2.39685  1.10884e-05 -2.46695e-05      19.6021 
         -50      2.44452  1.02883e-05 -2.45719e-05       19.602 
         -50      2.49271  9.50791e-06 -2.44524e-05      19.6019 
         -50      2.54132  8.76517e-06 -2.43074e-05      19.6018 
         -50      2.59044  8.07451e-06 -2.41326e-05      19.6017 
         -50         2.64  7.45106e-06 -2.39234e-05      19.6017 
         -50      2.69006  6.90592e-06 -2.36743e-05      19.6016 
         -50      2.74056  6.44977e-06 -2.33803e-05      19.6015 
         -50      2.79156  6.08904e-06  -2.3035e-05      19.6014 
         -50      2.84304  5.82831e-06 -2.26331e-05      19.6013 
         -50      2.89494  5.66865e-06 -2.21696e-05      19.6012 
         -50      2.94735  5.60731e-06 -2.16393e-05      19.6011 
         -50       3.0002  5.63826e-06 -2.10396e-05       19.601 
         -50      3.05355  5.75173e-06 -2.03678e-05      19.6009 
         -50      3.10733  5.93402e-06 -1.96258e-05      19.6008 
         -50      3.16163  6.16827e-06 -1.88163e-05      19.6007 
         -50      3.21639  6.43383e-06 -1.79477e-05      19.6006 
         -50      3.27158  6.70689e-06 -1.70338e-05      19.6005 
         -50      3.32729  6.96184e-06 -1.60925e-05      19.6004 
         -50      3.38342  7.17039e-06 -1.51521e-05      19.6002 
         -50      3.44007  7.30403e-06 -1.42473e-05      19.6001 
         -50      3.49714   7.3339e-06 -1.34265e-05         19.6 
         -50      3.55472  7.23287e-06 -1.27484e-05      19.5999 
         -50      3.61273   6.9771e-06 -1.22891e-05      19.5997 
         -50      3.67125  6.54719e-06 -1.21407e-05      19.5996 
         -50      3.73025  5.93158e-06 -1.24167e-05      19.5995 
         -50      3.78967  5.93663e-06 -1.12975e-05      19.5993 
         -50      3.84961  6.54276e-06 -1.00605e-05      19.5992 
         -50      3.90996  7.34418e-06 -9.48655e-06       19.599 
         -50      3.97084  7.46464e-06 -8.79056e-06      19.5989 
         -50      4.03214  7.43198e-06 -8.14476e-06      19.5987 
         -50      4.09395  7.39767e-06 -7.55467e-06      19.5986 
         -50      4.15624   7.3877e-06 -6.97958e-06      19.5984 
         -50      4.21895  7.41152e-06 -6.39902e-06      19.5982 
         -50      4.28217  7.46592e-06 -5.80706e-06      19.5981 
         -50      4.34582  7.53844e-06 -5.21104e-06      19.5979 
         -50      4.40998  7.61116e-06 -4.62379e-06      19.5977 
         -50      4.47457   7.6636e-06 -4.06335e-06      19.5975 
         -50      4.53968  7.67609e-06  -3.5458e-06      19.5974 
         -50      4.60525  7.63203e-06 -3.08534e-06      19.5972 
         -50      4.67125  7.52042e-06 -2.69024e-06       19.597 
         -50      4.73777  7.33696e-06 -2.36037e-06      19.5968 
         -50       4.8047  7.08572e-06 -2.08829e-06      19.5966 
         -50      4.87216  6.77816e-06 -1.85716e-06      19.5964 
         -50      4.94003  6.43391e-06 -1.64378e-06      19.5962 
         -50      5.00843  6.07707e-06 -1.41942e-06       19.596 
         -50      5.07724  5.73535e-06 -1.15534e-06      19.5957 
         -50      5.14658   5.4336e-06 -8.26777e-07      19.5955 
         -50      5.21639  5.18991e-06 -4.21912e-07      19.5953 
         -50      5.28661  5.00715e-06   4.8977e-08      19.5951 
         -50      5.35736  4.86345e-06  5.43023e-07      19.5948 
         -50      5.42852   4.7018e-06  9.67775e-07      19.5946 
         -50      5.50021  4.41541e-06  1.16681e-06      19.5943 
         -50      5.57231  3.83306e-06  8.97371e-07      19.5941 
         -50      5.64493   2.6986e-06 -1.92321e-07      19.5938 
         -50      5.71803  4.40687e-06  1.00489e-06      19.5936 
         -50      5.79154  5.35937e-06    1.376e-06      19.5933 
         -50      5.86558  5.81996e-06  1.29418e-06       19.593 
         -50      5.94003  5.98506e-06  1.01054e-06      19.5928 
         -50      6.01501  5.99834e-06  6.84096e-07      19.5925 
         -50       6.0904  5.95905e-06  4.09047e-07      19.5922 
         -50      6.16632   5.9307e-06   2.3438e-07      19.5919 
         -50      6.24271  5.94751e-06  1.81537e-07      19.5916 
         -50       6.3195  6.01843e-06  2.53094e-07      19.5913 
         -50      6.39683  6.12904e-06  4.35895e-07       19.591 
         -50      6.47457  6.23993e-06  6.94715e-07      19.5907 
         -50      6.55284  6.28264e-06  9.58216e-07      19.5904 
         -50      6.63152  6.15089e-06  1.09197e-06      19.5901 
         -50      6.71073  5.68799e-06  8.62277e-07      19.5897 
         -50      6.79034  5.08234e-06  9.31539e-07      19.5894 
         -50      6.87049   4.5881e-06  1.23752e-06      19.5891 
         -50      6.95111  4.15571e-06  1.48883e-06      19.5887 
         -50      7.03214  3.79667e-06  1.70087e-06      19.5884 
         -50       7.1137  3.51003e-06  1.86981e-06       19.588 
         -50      7.19566  3.28736e-06  1.97793e-06      19.5877 
         -50      7.27816  3.11408e-06  2.00176e-06      19.5873 
         -50      7.36106  2.97401e-06  1.91905e-06      19.5869 
         -50      7.44451  2.85142e-06   1.7171e-06      19.5865 
         -50      7.52842  2.73508e-06  1.40177e-06      19.5861 
         -50      7.61273  2.62103e-06   1.0071e-06      19.5858 
         -50      7.69758  2.51539e-06  6.04024e-07      19.5854 
         -50      7.78283  2.43804e-06  3.13191e-07      19.5849 
         -50      7.86862  2.42487e-06  3.14135e-07      19.5845 
         -50      7.95481   2.5309e-06  8.58489e-07      19.5841 
         -50      8.04155  2.83307e-06  2.28361e-06      19.5837 
         -50      8.12868  3.12393e-06   1.5302e-06      19.5833 
         -50      8.21635  3.22407e-06  6.25969e-07      19.5828 
         -50      8.30449  3.19124e-06  2.81171e-07      19.5824 
         -50      8.39303  3.06109e-06  3.04127e-07      19.5819 
         -50      8.48211  2.87346e-06  5.37178e-07      19.5815 
         -50      8.57159  2.66935e-06  8.56735e-07       19.581 
         -50      8.66161  2.48575e-06  1.17461e-06      19.5805 
         -50      8.75203  2.35253e-06  1.43626e-06        19.58 
         -50      8.84299   2.2868e-06  1.62227e-06      19.5795 
         -50      8.93443  2.28901e-06  1.74604e-06       19.579 
         -50      9.02626  2.33735e-06  1.85337e-06      19.5785 
         -50      9.11863  2.38296e-06  2.02088e-06       19.578 
         -50      9.21139  2.34422e-06  2.35307e-06      19.5775 
         -50      9.30471  2.10109e-06  2.98101e-06       19.577 
         -50      9.39841  2.28716e-06  3.45998e-06      19.5765 
         -50      9.49267  2.85105e-06    3.472e-06      19.5759 
         -50      9.58739  3.12111e-06  3.47668e-06      19.5754 
         -50      9.68251   3.1765e-06  3.49034e-06      19.5748 
         -50      9.77817  3.08502e-06  3.52072e-06      19.5743 
         -50      9.87422  2.90358e-06   3.5686e-06      19.5737 
         -50      9.97083  2.67844e-06  3.62961e-06      19.5731 
         -50      10.0678  2.44677e-06  3.69551e-06      19.5725 
         -50      10.1654  2.23604e-06  3.75608e-06      19.5719 
         -50      10.2633  2.06605e-06  3.80008e-06      19.5713 
         -50      10.3618  1.94844e-06  3.81686e-06      19.5707 
         -50      10.4607  1.88846e-06   3.7972e-06      19.5701 
         -50      10.5601  1.88516e-06  3.73453e-06      19.5695 
         -50        10.66  1.93248e-06  3.62536e-06      19.5688 
         -50      10.7603  2.02005e-06  3.47036e-06      19.5682 
         -50      10.8611   2.1344e-06  3.27391e-06      19.5675 
         -50      10.9623  2.25939e-06  3.04521e-06      19.5669 
         -50      11.0641  2.37791e-06  2.79684e-06      19.5662 
         -50      11.1663  2.47223e-06  2.54544e-06      19.5655 
         -50       11.269  2.52545e-06  2.31031e-06      19.5648 
         -50      11.3721  2.52265e-06  2.11164e-06      19.5641 
         -50      11.4757   2.4518e-06   1.9701e-06      19.5634 
         -50      11.5798  2.30491e-06  1.90358e-06      19.5627 
         -50      11.6844  2.07958e-06   1.9255e-06       19.562 
         -50      11.7894  1.77936e-06  2.04145e-06      19.5613 
         -50       11.895  1.41599e-06  2.24556e-06      19.5605 
         -50      12.0009  1.01035e-06  2.51621e-06      19.5598 
         -50      12.1073  5.92496e-07   2.8121e-06       19.559 
         -50      12.2142  2.05184e-07  3.06537e-06      19.5582 
         -50      12.3216 -9.73803e-08  3.17709e-06      19.5575 
         -50      12.4294 -2.46032e-07   3.0091e-06      19.5567 
         -50      12.5378 -1.57038e-07  2.37654e-06      19.5559 
         -50      12.6465  4.72138e-07  8.61505e-07      19.5551 
         -50      12.7558  1.54111e-06 -1.44702e-06      19.5543 
         -50      12.8656  1.11615e-06  9.39209e-07      19.5534 
         -50      12.9757  1.06686e-07  2.72984e-06      19.5526 
         -50      13.0864 -7.28683e-07  2.85132e-06      19.5517 
         -50      13.1975 -1.28321e-06  2.60272e-06      19.5509 
         -50      13.3092 -1.60538e-06  2.14656e-06        19.55 
         -50      13.4212 -1.74013e-06  1.60834e-06      19.5492 
         -50      13.5338 -1.73046e-06  1.07856e-06      19.5483 
         -50      13.6468 -1.61575e-06  6.19909e-07      19.5474 
         -50      13.7603 -1.43195e-06  2.70066e-07      19.5465 
         -50      13.8743 -1.21037e-06  4.52601e-08      19.5456 
         -50      13.9886 -9.78413e-07 -5.39234e-08      19.5446 
         -50      14.1036 -7.57992e-07 -4.01214e-08      19.5437 
         -50      14.2189 -5.66774e-07  6.51424e-08      19.5428 
         -50      14.3348 -4.16748e-07   2.3488e-07      19.5418 
         -50       14.451 -3.15431e-07  4.39199e-07      19.5408 
         -50      14.5678 -2.65083e-07  6.49091e-07      19.5399 
         -50      14.6851 -2.63633e-07  8.37836e-07      19.5389 
         -50      14.8028 -3.04671e-07  9.83632e-07      19.5379 
         -50       14.921 -3.78263e-07  1.07151e-06      19.5369 
         -50      15.0396 -4.71375e-07  1.09377e-06      19.5359 
         -50      15.1588 -5.69164e-07  1.05115e-06      19.5348 
         -50      15.2783 -6.55485e-07  9.52772e-07      19.5338 
         -50      15.3984 -7.14696e-07  8.15262e-07      19.5328 
         -50       15.519 -7.32592e-07  6.62036e-07      19.5317 
         -50        15.64 -6.98414e-07  5.21111e-07      19.5306 
         -50      15.7615 -6.06502e-07  4.21991e-07      19.5296 
         -50      15.8834 -4.58706e-07  3.92771e-07      19.5285 
         -50      16.0058 -2.66184e-07  4.55144e-07      19.5274 
         -50      16.1286 -5.29404e-08  6.19063e-07      19.5262 
         -50       16.252  1.42394e-07  8.76731e-07      19.5251 
         -50      16.3759  2.62163e-07  1.19429e-06       19.524 
         -50      16.5002   2.2696e-07  1.50335e-06      19.5228 
         -50       16.625 -6.86265e-08  1.69193e-06      19.5217 
         -50      16.7501 -1.36395e-07  1.64553e-06      19.5205 
         -50      16.8759   2.1339e-07  1.64502e-06      19.5193 
         -50       17.002  3.70386e-07    1.738e-06      19.5182 
         -50      17.1287  4.11242e-07  1.89373e-06       19.517 
         -50      17.2557  3.93351e-07  2.08663e-06      19.5157 
         -50      17.3834  3.57701e-07  2.29661e-06      19.5145 
         -50      17.5115  3.31142e-07  2.50761e-06      19.5133 
         -50      17.6399  3.28587e-07  2.70747e-06       19.512 
         -50       17.769  3.55221e-07  2.88791e-06      19.5108 
         -50      17.8984   4.0857e-07  3.04298e-06      19.5095 
         -50      18.0284  4.80666e-07  3.16967e-06      19.5082 
         -50      18.1587  5.59623e-07  3.26646e-06      19.5069 
         -50      18.2896  6.31817e-07  3.33372e-06      19.5056 
         -50       18.421  6.83068e-07  3.37266e-06      19.5043 
         -50      18.5528  7.00368e-07  3.38527e-06       19.503 
         -50      18.6851  6.73118e-07  3.37391e-06      19.5017 
         -50      18.8178   5.9421e-07  3.34094e-06      19.5003 
         -50      18.9511  4.60688e-07  3.28838e-06       19.499 
         -50      19.0847  2.74912e-07  3.21789e-06      19.4976 
         -50      19.2189  4.40989e-08  3.13022e-06      19.4962 
         -50      19.3535 -2.18397e-07  3.02552e-06      19.4948 
         -50      19.4886 -4.94684e-07  2.90268e-06      19.4934 
         -50      19.6242 -7.61401e-07  2.75989e-06       19.492 
         -50      19.7602  -9.9121e-07  2.59443e-06      19.4905 
         -50      19.8968 -1.15448e-06  2.40238e-06      19.4891 
         -50      20.0337  -1.2197e-06  2.17971e-06      19.4877 
         -50      20.1712 -1.15638e-06  1.92134e-06      19.4862 
         -50      20.3091 -9.25202e-07  1.65417e-06      19.4847 
         -50      20.4475 -7.23143e-07  1.53994e-06      19.4832 
         -50      20.5864 -7.10544e-07  1.55595e-06      19.4817 
         -50      20.7257 -8.18801e-07  1.73709e-06      19.4802 
         -50      20.8655 -9.41829e-07  2.12073e-06      19.4787 
         -50      21.0058 -9.30629e-07  2.74721e-06      19.4771 
         -50      21.1465 -5.88424e-07  3.66448e-06      19.4756 
         -50      21.2877  -6.9367e-07  3.16105e-06       19.474 
         -50      21.4294 -1.06694e-06  1.50198e-06      19.4725 
         -50      21.5716 -7.99892e-07  1.03904e-06      19.4709 
         -50      21.7142 -4.76633e-07  1.47144e-06      19.4693 
         -50      21.8573 -5.74614e-07  2.47629e-06      19.4677 
         -50      22.0008 -1.03792e-06  3.28512e-06      19.4661 
         -50      22.1449 -7.95226e-07  3.11569e-06      19.4644 
         -50      22.2893 -4.43129e-07  2.87078e-06      19.4628 
         -50      22.4344 -4.81997e-08  2.60677e-06      19.4611 
         -50      22.5797  3.35458e-07  2.36912e-06      19.4595 
         -50      22.7257  6.68346e-07  2.19001e-06      19.4578 
         -50      22.8721  9.23038e-07  2.08939e-06      19.4561 
         -50      23.0189  1.08468e-06  2.07421e-06      19.4544 
         -50      23.1663  1.15011e-06  2.13925e-06      19.4527 
         -50       23.314  1.12589e-06  2.26821e-06      19.4509 
         -50      23.4623  1.02705e-06  2.43579e-06      19.4492 
         -50       23.611   8.7532e-07  2.60923e-06      19.4475 
         -50      23.7602  6.96196e-07  2.75223e-06      19.4457 
         -50        23.91  5.16985e-07  2.82762e-06      19.4439 
         -50        24.06   3.6333e-07  2.80235e-06      19.4421 
         -50      24.2107  2.55297e-07  2.65226e-06      19.4403 
         -50      24.3617  2.04159e-07   2.3684e-06      19.4385 
         -50      24.5133   2.0729e-07  1.96271e-06      19.4367 
         -50      24.6653  2.43554e-07  1.47738e-06      19.4349 
         -50      24.8178  2.67779e-07  9.91011e-07       19.433 
         -50      24.9708  2.04578e-07  6.30636e-07      19.4312 
         -50      25.1242 -5.77834e-08  5.80624e-07      19.4293 
         -50      25.2781 -6.75545e-07  1.09463e-06      19.4274 
         -50      25.4324 -1.85492e-06  2.50726e-06      19.4255 
         -50      25.5873 -1.00992e-06  1.31574e-06      19.4236 
         -50      25.7426 -2.97194e-07  5.78065e-07      19.4217 
         -50      25.8984  1.49688e-07  3.81908e-07      19.4198 
         -50      26.0546  4.03566e-07  5.20641e-07      19.4178 
         -50      26.2114  5.12899e-07   8.2081e-07      19.4159 
         -50      26.3686  5.04937e-07  1.14244e-06      19.4139 
         -50      26.5262  3.93758e-07  1.38277e-06      19.4119 
         -50      26.6844  1.88632e-07  1.48378e-06        19.41 
         -50      26.8429 -9.39149e-08  1.44157e-06       19.408 
         -50       27.002 -4.17755e-07  1.32125e-06       19.406 
         -50      27.1615 -7.09498e-07  1.27522e-06      19.4039 
         -50      27.3216 -8.41679e-07  1.56554e-06      19.4019 
         -50      27.4821 -6.09707e-07  2.59144e-06      19.3999 
         -50       27.643  -5.3758e-07  2.90674e-06      19.3978 
         -50      27.8044 -6.83977e-07  2.40732e-06      19.3957 
         -50      27.9663 -7.32277e-07  1.96308e-06      19.3937 
         -50      28.1287 -7.07781e-07   1.5788e-06      19.3916 
         -50      28.2914 -6.31925e-07  1.25807e-06      19.3895 
         -50      28.4548 -5.22515e-07  1.00115e-06      19.3874 
         -50      28.6185 -3.94443e-07  8.07301e-07      19.3852 
         -50      28.7828 -2.59351e-07  6.73387e-07      19.3831 
         -50      28.9475 -1.26597e-07  5.95396e-07      19.3809 
         -50      29.1126 -3.22208e-09  5.68008e-07      19.3788 
         -50      29.2784  1.06051e-07  5.84993e-07      19.3766 
         -50      29.4444  1.97889e-07  6.39513e-07      19.3744 
         -50       29.611  2.70772e-07  7.24439e-07      19.3723 
         -50       29.778  3.24167e-07  8.32245e-07      19.3701 
         -50      29.9456  3.58752e-07  9.55727e-07      19.3678 
         -50      30.1137  3.75859e-07  1.08763e-06      19.3656 
         -50      30.2821   3.7746e-07  1.22107e-06      19.3634 
         -50      30.4511  3.65911e-07  1.34999e-06      19.3611 
         -50      30.6204  3.43802e-07  1.46862e-06      19.3589 
         -50      30.7903  3.13731e-07  1.57236e-06      19.3566 
         -50      30.9606   2.7831e-07  1.65713e-06      19.3543 
         -50      31.1315   2.3986e-07   1.7201e-06       19.352 
         -50      31.3028  2.00521e-07  1.75923e-06      19.3497 
         -50      31.4745  1.62092e-07  1.77356e-06      19.3474 
         -50      31.6468   1.2591e-07  1.76319e-06      19.3451 
         -50      31.8194  9.30455e-08  1.72915e-06      19.3428 
         -50      31.9926  6.40947e-08  1.67333e-06      19.3404 
         -50      32.1662  3.94403e-08  1.59857e-06      19.3381 
         -50      32.3404  1.91519e-08  1.50816e-06      19.3357 
         -50      32.5149  3.26218e-09  1.40616e-06      19.3334 
         -50        32.69 -8.20575e-09  1.29663e-06       19.331 
         -50      32.8655 -1.49458e-08  1.18391e-06      19.3286 
         -50      33.0414 -1.61885e-08   1.0721e-06      19.3262 
         -50       33.218 -1.04081e-08  9.64482e-07      19.3238 
         -50      33.3948  4.99151e-09  8.63716e-07      19.3214 
         -50      33.5723  3.40934e-08  7.70761e-07      19.3189 
         -50        33.75  8.27719e-08  6.85034e-07      19.3165 
         -50      33.9284  1.59372e-07  6.03284e-07       19.314 
         -50      34.1073  2.75002e-07  5.19506e-07      19.3116 
         -50      34.2865  4.44081e-07  4.24105e-07      19.3091 
         -50      34.4663  6.85533e-07  3.02964e-07      19.3066 
         -50      34.6465  1.02238e-06  1.37276e-07      19.3041 
         -50      34.8272  1.48413e-06 -9.81123e-08      19.3016 
         -50      35.0083  1.18325e-06  2.25272e-09      19.2991 
         -50        35.19  1.85401e-07  6.20542e-07      19.2966 
         -50      35.3721 -8.86275e-07   1.5574e-06      19.2941 
         -50      35.5546 -1.76967e-06  2.53342e-06      19.2915 
         -50      35.7377 -1.30218e-06  2.01242e-06       19.289 
         -50      35.9211 -9.59813e-07  1.63133e-06      19.2864 
         -50      36.1052 -7.44099e-07   1.3636e-06      19.2839 
         -50      36.2895 -6.54344e-07  1.18761e-06      19.2813 
         -50      36.4745 -6.86552e-07  1.08462e-06      19.2787 
         -50      36.6598 -8.34296e-07  1.03969e-06      19.2761 
         -50      36.8457 -1.06209e-06  1.04646e-06      19.2735 
         -50      37.0321 -8.87073e-07   1.1356e-06      19.2709 
         -50      37.2188  -7.3392e-07  1.16798e-06      19.2683 
         -50      37.4062 -5.96816e-07  1.15707e-06      19.2656 
         -50      37.5938 -4.72096e-07  1.11501e-06       19.263 
         -50      37.7821 -3.57076e-07  1.05263e-06      19.2604 
         -50      37.9707 -2.50598e-07  9.79567e-07      19.2577 
         -50      38.1599  -1.5203e-07  9.04013e-07      19.2551 
         -50      38.3496 -6.16497e-08  8.33027e-07      19.2524 
         -50      38.5396  1.98629e-08  7.72398e-07      19.2497 
         -50      38.7302  9.17873e-08  7.26528e-07       19.247 
         -50      38.9211  1.53109e-07  6.98779e-07      19.2443 
         -50      39.1127  2.03134e-07   6.9124e-07      19.2416 
         -50      39.3046  2.41231e-07  7.04949e-07      19.2389 
         -50      39.4971  2.67266e-07  7.39917e-07      19.2362 
         -50      39.6899  2.81443e-07  7.95113e-07      19.2335 
         -50      39.8833   2.8453e-07  8.68781e-07      19.2307 
         -50      40.0772  2.77786e-07  9.58264e-07       19.228 
         -50      40.2714  2.63035e-07   1.0602e-06      19.2253 
         -50      40.4663  2.42561e-07  1.17095e-06      19.2225 
         -50      40.6615  2.19137e-07  1.28616e-06      19.2197 
         -50      40.8573   1.9581e-07  1.40158e-06       19.217 
         -50      41.0534  1.75898e-07  1.51255e-06      19.2142 
         -50      41.2501  1.62686e-07   1.6149e-06      19.2114 
         -50      41.4473  1.59324e-07  1.70451e-06      19.2086 
         -50      41.6448  1.68496e-07  1.77784e-06      19.2058 
         -50      41.8429  1.92175e-07  1.83231e-06       19.203 
         -50      42.0414  2.31199e-07  1.86618e-06      19.2002 
         -50      42.2405  2.85039e-07  1.87915e-06      19.1974 
         -50      42.4399  3.51107e-07  1.87246e-06      19.1946 
         -50      42.6399  4.24602e-07  1.84926e-06      19.1917 
         -50      42.8404  4.97616e-07  1.81496e-06      19.1889 
         -50      43.0412  5.58696e-07   1.7776e-06       19.186 
         -50      43.2426   5.9233e-07  1.74811e-06      19.1832 
         -50      43.4444  5.77951e-07  1.74086e-06      19.1803 
         -50      43.6467  4.89299e-07  1.77397e-06      19.1775 
         -50      43.8494  2.93761e-07  1.86975e-06      19.1746 
         -50      44.0527 -4.92158e-08  2.05542e-06      19.1717 
         -50      44.2563  -5.6509e-07   2.3461e-06      19.1688 
         -50      44.4606 -2.66705e-07  2.04911e-06       19.166 
         -50      44.6653  -7.3884e-08  1.88927e-06      19.1631 
         -50      44.8704  3.70013e-08  1.84516e-06      19.1602 
         -50       45.076  8.69343e-08   1.8928e-06      19.1573 
         -50       45.282   9.4184e-08   2.0063e-06      19.1544 
         -50      45.4886  7.51461e-08  2.15862e-06      19.1514 
         -50      45.6955  4.47103e-08  2.32152e-06      19.1485 
         -50       45.903  1.66931e-08  2.46708e-06      19.1456 
         -50      46.1111  4.50715e-09  2.56743e-06      19.1427 
         -50      46.3194  2.15812e-08    2.596e-06      19.1397 
         -50      46.5283  8.20356e-08  2.52808e-06      19.1368 
         -50      46.7376  2.01097e-07  2.34164e-06      19.1338 
         -50      46.9475  3.96178e-07   2.0175e-06      19.1309 
         -50      47.1577  6.86702e-07  1.54138e-06      19.1279 
         -50      47.3685  9.09191e-07  1.19404e-06       19.125 
         -50      47.5798  8.48708e-07  1.28975e-06       19.122 
         -50      47.7914  7.78126e-07  1.38923e-06       19.119 
         -50      48.0037  7.01759e-07  1.49008e-06      19.1161 