Variables = x, y, u, v, p

Zone, I=800, F=POINT
         -10            0 -3.58062e-20 -5.78287e-25      -6.6814 
         -10     0.000234  -1.7789e-06 -2.73629e-11      -6.6814 
         -10     0.000939 -6.76095e-06 -8.72782e-11      -6.6814 
         -10     0.002113 -1.38968e-05 -1.14284e-10      -6.6814 
         -10     0.003759 -2.17764e-05 -6.44829e-12      -6.6814 
         -10     0.005872 -2.89314e-05  3.65605e-10      -6.6814 
         -10     0.008457 -3.42887e-05  1.15209e-09      -6.6814 
         -10      0.01151 -3.73746e-05  2.51526e-09      -6.6814 
         -10     0.015036 -3.84413e-05  4.63418e-09      -6.6814 
         -10     0.019031 -3.83007e-05   7.7012e-09      -6.6814 
         -10     0.023493 -3.79839e-05  1.19346e-08      -6.6814 
         -10     0.028429 -3.82809e-05  1.75989e-08      -6.6814 
         -10     0.033831 -3.93585e-05  2.49855e-08      -6.6814 
         -10     0.039706 -4.06533e-05  3.44438e-08      -6.6814 
         -10     0.046047 -4.12041e-05  4.63236e-08      -6.6814 
         -10     0.052863 -4.04379e-05  6.09927e-08      -6.6814 
         -10      0.06015 -3.90597e-05  7.87467e-08      -6.6814 
         -10       0.0679 -3.91106e-05  9.97986e-08      -6.6814 
         -10     0.076126   -4.129e-05  1.24407e-07      -6.6814 
         -10     0.084816 -3.90021e-05   1.5295e-07      -6.6814 
         -10     0.093982  -4.0287e-05   1.8574e-07      -6.6814 
         -10     0.103611 -4.08626e-05  2.22952e-07      -6.6814 
         -10     0.113718 -4.11308e-05  2.64927e-07      -6.6814 
         -10     0.124286  -4.1376e-05  3.11817e-07      -6.6814 
         -10     0.135333 -4.17547e-05  3.63862e-07      -6.6814 
         -10      0.14685 -4.23045e-05  4.21134e-07      -6.6814 
         -10     0.158827 -4.29759e-05   4.8365e-07      -6.6814 
         -10     0.171284 -4.36851e-05  5.51563e-07      -6.6814 
         -10     0.184201 -4.43686e-05  6.24801e-07      -6.6814 
         -10     0.197599 -4.50366e-05  7.03507e-07      -6.6814 
         -10     0.211455 -4.57782e-05  7.87529e-07      -6.6814 
         -10     0.225792 -4.66954e-05   8.7687e-07      -6.6814 
         -10       0.2406 -4.76897e-05   9.7107e-07      -6.6814 
         -10     0.255865  -4.8448e-05   1.0692e-06      -6.6814 
         -10     0.271613 -4.94212e-05  1.17229e-06      -6.6814 
         -10     0.287818 -5.03793e-05  1.27977e-06      -6.6814 
         -10     0.304506 -5.13288e-05  1.39091e-06      -6.6814 
         -10      0.32165 -5.22711e-05  1.50487e-06      -6.6814 
         -10     0.339278 -5.32083e-05  1.62144e-06      -6.6814 
         -10     0.357377 -5.41383e-05  1.74033e-06      -6.6814 
         -10      0.37593 -5.50573e-05  1.86135e-06      -6.6814 
         -10     0.394968 -5.59628e-05  1.98462e-06      -6.6814 
         -10     0.414461 -5.68489e-05  2.10982e-06      -6.6814 
         -10      0.43444 -5.77123e-05  2.23685e-06      -6.6814 
         -10     0.454872 -5.85479e-05  2.36498e-06      -6.6814 
         -10     0.475791 -5.93544e-05  2.49371e-06      -6.6814 
         -10     0.497163 -6.01291e-05  2.62195e-06      -6.6814 
         -10     0.519021 -6.08729e-05  2.74911e-06      -6.6814 
         -10      0.54135 -6.15851e-05  2.87473e-06      -6.6814 
         -10     0.564131  -6.2263e-05  2.99937e-06      -6.6814 
         -10       0.5874  -6.2901e-05  3.12577e-06      -6.6814 
         -10     0.611121 -6.34819e-05  3.25838e-06      -6.6814 
         -10      0.63533  -6.4012e-05  3.38473e-06      -6.6814 
         -10      0.65999 -6.44967e-05  3.50983e-06      -6.6814 
         -10     0.685139 -6.49269e-05  3.63548e-06      -6.6814 
         -10     0.710759 -6.52942e-05   3.7628e-06      -6.6814 
         -10     0.736828 -6.55923e-05   3.8925e-06      -6.6814 
         -10     0.763387 -6.58176e-05  4.02524e-06      -6.6814 
         -10     0.790396 -6.59672e-05  4.16093e-06      -6.6814 
         -10     0.817896 -6.60407e-05  4.29958e-06      -6.6814 
         -10     0.845843 -6.60389e-05  4.44049e-06      -6.6814 
         -10     0.874283 -6.59637e-05  4.58323e-06     -6.68139 
         -10      0.90317 -6.58183e-05  4.72678e-06     -6.68139 
         -10     0.932551  -6.5606e-05   4.8705e-06     -6.68139 
         -10     0.962401  -6.5331e-05  5.01341e-06     -6.68139 
         -10     0.992697 -6.49972e-05  5.15462e-06     -6.68139 
         -10      1.02349 -6.46075e-05  5.29373e-06     -6.68139 
         -10      1.05472 -6.41653e-05  5.43011e-06     -6.68139 
         -10      1.08645 -6.36712e-05  5.56381e-06     -6.68139 
         -10      1.11863 -6.31262e-05  5.69471e-06     -6.68139 
         -10       1.1513 -6.25282e-05  5.82336e-06     -6.68139 
         -10      1.18444 -6.18748e-05  5.95019e-06     -6.68139 
         -10      1.21802 -6.11628e-05  6.07571e-06     -6.68139 
         -10      1.25211 -6.03861e-05  6.20062e-06     -6.68139 
         -10      1.28663 -5.95411e-05  6.32483e-06     -6.68139 
         -10      1.32165 -5.86225e-05  6.44792e-06     -6.68138 
         -10      1.35712 -5.76302e-05  6.56785e-06     -6.68138 
         -10      1.39308 -5.65656e-05  6.68112e-06     -6.68138 
         -10      1.42951 -5.54394e-05  6.78134e-06     -6.68138 
         -10      1.46638 -5.42726e-05  6.85852e-06     -6.68138 
         -10      1.50375 -5.30979e-05   6.8981e-06     -6.68138 
         -10      1.54156 -5.18196e-05  7.10554e-06     -6.68138 
         -10      1.57987 -5.03982e-05   7.2594e-06     -6.68138 
         -10      1.61863 -4.88964e-05  7.35461e-06     -6.68138 
         -10      1.65788 -4.73622e-05  7.40361e-06     -6.68137 
         -10      1.69757 -4.58413e-05  7.41794e-06     -6.68137 
         -10      1.73776  -4.4367e-05  7.40849e-06     -6.68137 
         -10      1.77842 -4.29691e-05  7.38526e-06     -6.68137 
         -10      1.81952   -4.167e-05  7.35738e-06     -6.68137 
         -10      1.86113  -4.0482e-05  7.33289e-06     -6.68137 
         -10      1.90316 -3.94149e-05  7.31884e-06     -6.68136 
         -10      1.94571 -3.84689e-05  7.32109e-06     -6.68136 
         -10      1.98869 -3.76416e-05  7.34429e-06     -6.68136 
         -10      2.03217 -3.69228e-05  7.39191e-06     -6.68136 
         -10      2.07612 -3.63003e-05  7.46607e-06     -6.68136 
         -10      2.12051 -3.57579e-05  7.56753e-06     -6.68135 
         -10       2.1654 -3.52753e-05  7.69593e-06     -6.68135 
         -10      2.21073 -3.48322e-05  7.84924e-06     -6.68135 
         -10      2.25656  -3.4406e-05  8.02456e-06     -6.68135 
         -10      2.30283 -3.39756e-05  8.21717e-06     -6.68135 
         -10       2.3496 -3.35194e-05  8.42172e-06     -6.68134 
         -10      2.39685 -3.30192e-05  8.63119e-06     -6.68134 
         -10      2.44452 -3.24597e-05  8.83747e-06     -6.68134 
         -10      2.49271 -3.18284e-05  9.03196e-06     -6.68134 
         -10      2.54132 -3.11194e-05  9.20457e-06     -6.68133 
         -10      2.59044 -3.03302e-05  9.34509e-06     -6.68133 
         -10         2.64 -2.94669e-05  9.44228e-06     -6.68133 
         -10      2.69006 -2.85396e-05  9.48497e-06     -6.68132 
         -10      2.74056 -2.75679e-05   9.4617e-06     -6.68132 
         -10      2.79156 -2.65754e-05   9.3612e-06     -6.68132 
         -10      2.84304 -2.55945e-05  9.17273e-06     -6.68131 
         -10      2.89494 -2.46634e-05  8.88665e-06     -6.68131 
         -10      2.94735 -2.38227e-05  8.49378e-06     -6.68131 
         -10       3.0002 -2.31192e-05  7.98766e-06      -6.6813 
         -10      3.05355 -2.25982e-05  7.36246e-06      -6.6813 
         -10      3.10733 -2.23056e-05  6.61669e-06      -6.6813 
         -10      3.16163 -2.22811e-05  5.74975e-06     -6.68129 
         -10      3.21639 -2.25559e-05  4.76651e-06     -6.68129 
         -10      3.27158 -2.31465e-05  3.67647e-06     -6.68128 
         -10      3.32729 -2.40509e-05   2.4915e-06     -6.68128 
         -10      3.38342 -2.52376e-05   1.2328e-06     -6.68127 
         -10      3.44007 -2.66435e-05 -7.57378e-08     -6.68127 
         -10      3.49714 -2.81568e-05 -1.39882e-06     -6.68126 
         -10      3.55472 -2.96149e-05 -2.69699e-06     -6.68126 
         -10      3.61273 -3.07828e-05 -3.91743e-06     -6.68125 
         -10      3.67125 -3.13477e-05  -5.0009e-06     -6.68125 
         -10      3.73025 -3.08958e-05  -5.8738e-06     -6.68124 
         -10      3.78967 -3.07082e-05   -6.669e-06     -6.68124 
         -10      3.84961 -3.10629e-05 -7.47604e-06     -6.68123 
         -10      3.90996 -3.13661e-05   -8.229e-06     -6.68123 
         -10      3.97084 -3.16367e-05 -8.93186e-06     -6.68122 
         -10      4.03214 -3.18877e-05 -9.59155e-06     -6.68121 
         -10      4.09395 -3.21282e-05 -1.02206e-05     -6.68121 
         -10      4.15624 -3.23623e-05 -1.08319e-05      -6.6812 
         -10      4.21895 -3.25902e-05 -1.14384e-05     -6.68119 
         -10      4.28217 -3.28378e-05 -1.20302e-05     -6.68119 
         -10      4.34582 -3.30753e-05 -1.25948e-05     -6.68118 
         -10      4.40998 -3.32933e-05 -1.31151e-05     -6.68117 
         -10      4.47457  -3.3491e-05 -1.35783e-05     -6.68116 
         -10      4.53968 -3.36689e-05 -1.39838e-05     -6.68116 
         -10      4.60525 -3.38277e-05 -1.43381e-05     -6.68115 
         -10      4.67125 -3.39693e-05 -1.46548e-05     -6.68114 
         -10      4.73777 -3.40971e-05 -1.49526e-05     -6.68113 
         -10       4.8047 -3.42152e-05 -1.52495e-05     -6.68112 
         -10      4.87216 -3.43287e-05 -1.55615e-05     -6.68111 
         -10      4.94003 -3.44424e-05 -1.58957e-05      -6.6811 
         -10      5.00843 -3.45608e-05 -1.62464e-05     -6.68109 
         -10      5.07724 -3.46861e-05 -1.65864e-05     -6.68108 
         -10      5.14658 -3.48174e-05 -1.68616e-05     -6.68107 
         -10      5.21639 -3.49478e-05   -1.698e-05     -6.68106 
         -10      5.28661 -3.50517e-05 -1.69644e-05     -6.68105 
         -10      5.35736 -3.51199e-05 -1.74659e-05     -6.68104 
         -10      5.42852 -3.52408e-05 -1.76882e-05     -6.68103 
         -10      5.50021 -3.53947e-05 -1.77814e-05     -6.68102 
         -10      5.57231  -3.5567e-05 -1.78448e-05     -6.68101 
         -10      5.64493 -3.57488e-05 -1.79359e-05       -6.681 
         -10      5.71803 -3.59339e-05 -1.80796e-05     -6.68098 
         -10      5.79154 -3.61183e-05 -1.82754e-05     -6.68097 
         -10      5.86558 -3.62994e-05  -1.8507e-05     -6.68096 
         -10      5.94003 -3.64743e-05 -1.87478e-05     -6.68094 
         -10      6.01501 -3.66403e-05 -1.89692e-05     -6.68093 
         -10       6.0904 -3.67932e-05 -1.91445e-05     -6.68092 
         -10      6.16632 -3.69285e-05 -1.92546e-05      -6.6809 
         -10      6.24271 -3.70406e-05 -1.92908e-05     -6.68089 
         -10       6.3195  -3.7124e-05 -1.92561e-05     -6.68087 
         -10      6.39683 -3.71744e-05 -1.91657e-05     -6.68086 
         -10      6.47457 -3.71901e-05 -1.90445e-05     -6.68084 
         -10      6.55284 -3.71742e-05 -1.89227e-05     -6.68083 
         -10      6.63152 -3.71372e-05 -1.88296e-05     -6.68081 
         -10      6.71073 -3.71003e-05 -1.87831e-05     -6.68079 
         -10      6.79034 -3.71002e-05 -1.87778e-05     -6.68077 
         -10      6.87049 -3.71929e-05 -1.87687e-05     -6.68076 
         -10      6.95111 -3.74065e-05 -1.86657e-05     -6.68074 
         -10      7.03214  -3.7615e-05 -1.87748e-05     -6.68072 
         -10       7.1137 -3.76012e-05 -1.86998e-05      -6.6807 
         -10      7.19566 -3.76247e-05 -1.85427e-05     -6.68068 
         -10      7.27816 -3.75488e-05 -1.85497e-05     -6.68066 
         -10      7.36106 -3.74396e-05 -1.85637e-05     -6.68064 
         -10      7.44451  -3.7345e-05 -1.85792e-05     -6.68062 
         -10      7.52842 -3.72885e-05 -1.85857e-05      -6.6806 
         -10      7.61273 -3.72756e-05 -1.85717e-05     -6.68058 
         -10      7.69758 -3.72997e-05 -1.85275e-05     -6.68055 
         -10      7.78283 -3.73475e-05 -1.84476e-05     -6.68053 
         -10      7.86862 -3.74034e-05 -1.83321e-05     -6.68051 
         -10      7.95481 -3.74538e-05 -1.81881e-05     -6.68048 
         -10      8.04155 -3.74899e-05 -1.80286e-05     -6.68046 
         -10      8.12868 -3.75096e-05 -1.78723e-05     -6.68043 
         -10      8.21635 -3.75187e-05 -1.77401e-05     -6.68041 
         -10      8.30449   -3.753e-05 -1.76523e-05     -6.68038 
         -10      8.39303 -3.75617e-05  -1.7623e-05     -6.68035 
         -10      8.48211 -3.76335e-05 -1.76533e-05     -6.68033 
         -10      8.57159 -3.77617e-05 -1.77227e-05      -6.6803 
         -10      8.66161 -3.79519e-05 -1.77793e-05     -6.68027 
         -10      8.75203 -3.81889e-05 -1.77269e-05     -6.68024 
         -10      8.84299 -3.84262e-05 -1.74101e-05     -6.68021 
         -10      8.93443 -3.86411e-05 -1.73332e-05     -6.68018 
         -10      9.02626 -3.87797e-05 -1.77533e-05     -6.68015 
         -10      9.11863 -3.88275e-05 -1.78322e-05     -6.68012 
         -10      9.21139 -3.88482e-05  -1.7651e-05     -6.68009 
         -10      9.30471 -3.88805e-05 -1.73535e-05     -6.68005 
         -10      9.39841 -3.89468e-05 -1.71177e-05     -6.68002 
         -10      9.49267 -3.90637e-05 -1.71255e-05     -6.67999 
         -10      9.58739 -3.89586e-05  -1.7091e-05     -6.67995 
         -10      9.68251  -3.8828e-05 -1.68918e-05     -6.67992 
         -10      9.77817 -3.87798e-05 -1.66867e-05     -6.67988 
         -10      9.87422 -3.87689e-05 -1.64898e-05     -6.67984 
         -10      9.97083 -3.87616e-05 -1.63106e-05      -6.6798 
         -10      10.0678 -3.87363e-05 -1.61543e-05     -6.67977 
         -10      10.1654 -3.86835e-05 -1.60204e-05     -6.67973 
         -10      10.2633  -3.8605e-05 -1.59036e-05     -6.67969 
         -10      10.3618 -3.85119e-05 -1.57938e-05     -6.67965 
         -10      10.4607 -3.84222e-05 -1.56779e-05      -6.6796 
         -10      10.5601 -3.83567e-05 -1.55416e-05     -6.67956 
         -10        10.66 -3.83341e-05 -1.53719e-05     -6.67952 
         -10      10.7603 -3.83654e-05 -1.51612e-05     -6.67947 
         -10      10.8611 -3.84457e-05 -1.49106e-05     -6.67943 
         -10      10.9623 -3.85456e-05 -1.46366e-05     -6.67938 
         -10      11.0641 -3.86011e-05 -1.43762e-05     -6.67934 
         -10      11.1663 -3.85075e-05 -1.41907e-05     -6.67929 
         -10       11.269 -3.85059e-05 -1.38631e-05     -6.67924 
         -10      11.3721 -3.84846e-05 -1.34542e-05     -6.67919 
         -10      11.4757 -3.84518e-05 -1.30215e-05     -6.67914 
         -10      11.5798 -3.84154e-05 -1.26116e-05     -6.67909 
         -10      11.6844  -3.8382e-05 -1.22614e-05     -6.67904 
         -10      11.7894 -3.83565e-05 -1.19929e-05     -6.67899 
         -10       11.895 -3.83418e-05 -1.18136e-05     -6.67893 
         -10      12.0009 -3.83384e-05 -1.17138e-05     -6.67888 
         -10      12.1073 -3.83442e-05 -1.16642e-05     -6.67883 
         -10      12.2142 -3.83544e-05 -1.16155e-05     -6.67877 
         -10      12.3216 -3.83615e-05 -1.14958e-05     -6.67871 
         -10      12.4294 -3.83555e-05 -1.12106e-05     -6.67865 
         -10      12.5378 -3.84206e-05 -1.09801e-05     -6.67859 
         -10      12.6465 -3.85204e-05 -1.09262e-05     -6.67853 
         -10      12.7558 -3.85668e-05  -1.0796e-05     -6.67847 
         -10      12.8656 -3.85845e-05 -1.06288e-05     -6.67841 
         -10      12.9757 -3.85925e-05 -1.04526e-05     -6.67835 
         -10      13.0864 -3.86043e-05 -1.02846e-05     -6.67828 
         -10      13.1975 -3.86275e-05 -1.01347e-05     -6.67822 
         -10      13.3092 -3.86639e-05 -1.00061e-05     -6.67815 
         -10      13.4212 -3.87099e-05 -9.89795e-06     -6.67809 
         -10      13.5338 -3.87574e-05 -9.80618e-06     -6.67802 
         -10      13.6468 -3.87942e-05 -9.72611e-06     -6.67795 
         -10      13.7603 -3.88056e-05 -9.65354e-06     -6.67788 
         -10      13.8743 -3.87758e-05 -9.58614e-06     -6.67781 
         -10      13.9886 -3.86897e-05 -9.52528e-06     -6.67773 
         -10      14.1036 -3.85354e-05 -9.47687e-06     -6.67766 
         -10      14.2189 -3.83069e-05 -9.45284e-06     -6.67759 
         -10      14.3348 -3.81642e-05 -9.48012e-06     -6.67751 
         -10       14.451 -3.84089e-05 -9.54155e-06     -6.67743 
         -10      14.5678 -3.85284e-05 -9.57797e-06     -6.67736 
         -10      14.6851 -3.85665e-05 -9.58979e-06     -6.67728 
         -10      14.8028 -3.85581e-05 -9.57984e-06      -6.6772 
         -10       14.921 -3.85294e-05 -9.55264e-06     -6.67712 
         -10      15.0396  -3.8499e-05 -9.51389e-06     -6.67703 
         -10      15.1588 -3.84792e-05 -9.46975e-06     -6.67695 
         -10      15.2783  -3.8477e-05 -9.42657e-06     -6.67686 
         -10      15.3984 -3.84946e-05 -9.39017e-06     -6.67678 
         -10       15.519 -3.85309e-05 -9.36567e-06     -6.67669 
         -10        15.64 -3.85821e-05 -9.35698e-06      -6.6766 
         -10      15.7615 -3.86425e-05  -9.3666e-06     -6.67651 
         -10      15.8834 -3.87056e-05 -9.39537e-06     -6.67642 
         -10      16.0058 -3.87645e-05 -9.44243e-06     -6.67633 
         -10      16.1286  -3.8813e-05 -9.50505e-06     -6.67624 
         -10       16.252 -3.88458e-05 -9.57892e-06     -6.67614 
         -10      16.3759 -3.88591e-05 -9.65803e-06     -6.67604 
         -10      16.5002 -3.88513e-05 -9.73509e-06     -6.67595 
         -10       16.625 -3.88232e-05  -9.8021e-06     -6.67585 
         -10      16.7501  -3.8778e-05 -9.85049e-06     -6.67575 
         -10      16.8759  -3.8722e-05 -9.87218e-06     -6.67565 
         -10       17.002 -3.86638e-05  -9.8601e-06     -6.67554 
         -10      17.1287  -3.8615e-05 -9.80928e-06     -6.67544 
         -10      17.2557 -3.85891e-05 -9.71807e-06     -6.67534 
         -10      17.3834 -3.86018e-05 -9.58912e-06     -6.67523 
         -10      17.5115 -3.86698e-05 -9.43132e-06     -6.67512 
         -10      17.6399 -3.88102e-05 -9.26136e-06     -6.67501 
         -10       17.769   -3.904e-05 -9.10513e-06      -6.6749 
         -10      17.8984 -3.93736e-05 -9.00077e-06     -6.67479 
         -10      18.0284 -3.98234e-05 -9.00015e-06     -6.67468 
         -10      18.1587 -3.90138e-05 -9.83375e-06     -6.67456 
         -10      18.2896 -3.84365e-05 -9.75438e-06     -6.67445 
         -10       18.421 -3.84316e-05 -8.98855e-06     -6.67433 
         -10      18.5528 -3.83287e-05   -8.747e-06     -6.67421 
         -10      18.6851 -3.83397e-05 -8.66992e-06     -6.67409 
         -10      18.8178 -3.84144e-05 -8.70547e-06     -6.67397 
         -10      18.9511 -3.85156e-05 -8.81244e-06     -6.67385 
         -10      19.0847 -3.86168e-05 -8.95889e-06     -6.67372 
         -10      19.2189 -3.87009e-05 -9.12146e-06      -6.6736 
         -10      19.3535  -3.8758e-05  -9.2833e-06     -6.67347 
         -10      19.4886 -3.87846e-05 -9.43391e-06     -6.67334 
         -10      19.6242 -3.87815e-05 -9.56712e-06     -6.67321 
         -10      19.7602 -3.87527e-05  -9.6805e-06     -6.67308 
         -10      19.8968 -3.87041e-05 -9.77464e-06     -6.67295 
         -10      20.0337 -3.86426e-05  -9.8516e-06     -6.67281 
         -10      20.1712  -3.8575e-05 -9.91482e-06     -6.67268 
         -10      20.3091 -3.85072e-05 -9.96782e-06     -6.67254 
         -10      20.4475 -3.84439e-05 -1.00141e-05      -6.6724 
         -10      20.5864 -3.83878e-05 -1.00564e-05     -6.67226 
         -10      20.7257 -3.83399e-05 -1.00962e-05     -6.67212 
         -10      20.8655  -3.8299e-05 -1.01341e-05     -6.67197 
         -10      21.0058 -3.82628e-05 -1.01692e-05     -6.67183 
         -10      21.1465 -3.82274e-05 -1.01994e-05     -6.67168 
         -10      21.2877 -3.81892e-05 -1.02217e-05     -6.67153 
         -10      21.4294 -3.81453e-05 -1.02326e-05     -6.67138 
         -10      21.5716 -3.80953e-05 -1.02287e-05     -6.67123 
         -10      21.7142  -3.8043e-05 -1.02078e-05     -6.67108 
         -10      21.8573 -3.79984e-05 -1.01697e-05     -6.67092 
         -10      22.0008 -3.79807e-05 -1.01177e-05     -6.67077 
         -10      22.1449 -3.80207e-05 -1.00598e-05     -6.67061 
         -10      22.2893 -3.82144e-05 -9.98693e-06     -6.67045 
         -10      22.4344 -3.82885e-05 -9.95443e-06     -6.67029 
         -10      22.5797  -3.8253e-05 -9.92418e-06     -6.67013 
         -10      22.7257 -3.81472e-05  -9.8696e-06     -6.66997 
         -10      22.8721 -3.80097e-05 -9.78022e-06      -6.6698 
         -10      23.0189 -3.78751e-05 -9.65836e-06     -6.66963 
         -10      23.1663 -3.77704e-05 -9.51577e-06     -6.66946 
         -10       23.314 -3.77133e-05 -9.37166e-06     -6.66929 
         -10      23.4623 -3.77097e-05 -9.24971e-06     -6.66912 
         -10       23.611 -3.77533e-05 -9.17714e-06     -6.66895 
         -10      23.7602 -3.78247e-05 -9.18273e-06     -6.66877 
         -10        23.91 -3.78921e-05 -9.29658e-06      -6.6686 
         -10        24.06 -3.78733e-05 -9.40569e-06     -6.66842 
         -10      24.2107 -3.77329e-05 -9.18528e-06     -6.66824 
         -10      24.3617 -3.76591e-05 -9.07637e-06     -6.66806 
         -10      24.5133 -3.76499e-05 -9.04122e-06     -6.66787 
         -10      24.6653 -3.76971e-05 -9.04846e-06     -6.66769 
         -10      24.8178 -3.77874e-05 -9.07295e-06      -6.6675 
         -10      24.9708 -3.79032e-05 -9.09579e-06     -6.66731 
         -10      25.1242 -3.80246e-05 -9.10429e-06     -6.66712 
         -10      25.2781 -3.81305e-05 -9.09171e-06     -6.66693 
         -10      25.4324 -3.82004e-05 -9.05692e-06     -6.66674 
         -10      25.5873 -3.82167e-05 -9.00368e-06     -6.66654 
         -10      25.7426 -3.81661e-05 -8.94022e-06     -6.66635 
         -10      25.8984 -3.80422e-05 -8.87805e-06     -6.66615 
         -10      26.0546 -3.78481e-05 -8.83121e-06     -6.66595 
         -10      26.2114 -3.75981e-05 -8.81472e-06     -6.66575 
         -10      26.3686 -3.73218e-05 -8.84339e-06     -6.66554 
         -10      26.5262 -3.70666e-05 -8.92991e-06     -6.66534 
         -10      26.6844 -3.68999e-05  -9.0833e-06     -6.66513 
         -10      26.8429 -3.69144e-05 -9.30619e-06     -6.66492 
         -10       27.002 -3.72258e-05 -9.58949e-06     -6.66471 
         -10      27.1615 -3.71531e-05 -9.38814e-06      -6.6645 
         -10      27.3216  -3.7065e-05 -9.16389e-06     -6.66428 
         -10      27.4821 -3.69665e-05 -8.93201e-06     -6.66407 
         -10       27.643 -3.68627e-05 -8.70601e-06     -6.66385 
         -10      27.8044 -3.67581e-05 -8.49669e-06     -6.66363 
         -10      27.9663 -3.66573e-05 -8.31318e-06     -6.66341 
         -10      28.1287 -3.65643e-05 -8.16135e-06     -6.66319 
         -10      28.2914  -3.6483e-05 -8.04486e-06     -6.66296 
         -10      28.4548 -3.64163e-05 -7.96421e-06     -6.66274 
         -10      28.6185 -3.63666e-05 -7.91743e-06     -6.66251 
         -10      28.7828  -3.6335e-05 -7.89979e-06     -6.66228 
         -10      28.9475 -3.63215e-05 -7.90433e-06     -6.66205 
         -10      29.1126 -3.63245e-05 -7.92203e-06     -6.66181 
         -10      29.2784 -3.63403e-05 -7.94236e-06     -6.66158 
         -10      29.4444 -3.63631e-05  -7.9538e-06     -6.66134 
         -10       29.611 -3.63844e-05 -7.94458e-06      -6.6611 
         -10       29.778 -3.63925e-05 -7.90354e-06     -6.66086 
         -10      29.9456 -3.63721e-05 -7.82094e-06     -6.66062 
         -10      30.1137 -3.63035e-05 -7.68977e-06     -6.66038 
         -10      30.2821 -3.61627e-05 -7.50709e-06     -6.66013 
         -10      30.4511 -3.60261e-05 -7.65777e-06     -6.65988 
         -10      30.6204 -3.59844e-05 -7.84367e-06     -6.65963 
         -10      30.7903 -3.60121e-05 -8.03439e-06     -6.65938 
         -10      30.9606 -3.60845e-05 -8.21146e-06     -6.65913 
         -10      31.1315 -3.61789e-05 -8.36187e-06     -6.65887 
         -10      31.3028 -3.62749e-05 -8.47695e-06     -6.65862 
         -10      31.4745 -3.63565e-05 -8.55276e-06     -6.65836 
         -10      31.6468 -3.64121e-05 -8.58986e-06      -6.6581 
         -10      31.8194 -3.64359e-05 -8.59259e-06     -6.65784 
         -10      31.9926 -3.64283e-05 -8.56893e-06     -6.65757 
         -10      32.1662 -3.63965e-05 -8.52984e-06     -6.65731 
         -10      32.3404 -3.63551e-05 -8.48855e-06     -6.65704 
         -10      32.5149 -3.63265e-05 -8.45998e-06     -6.65677 
         -10        32.69 -3.63409e-05 -8.45967e-06      -6.6565 
         -10      32.8655 -3.64364e-05 -8.50298e-06     -6.65623 
         -10      33.0414 -3.66592e-05 -8.60374e-06     -6.65595 
         -10       33.218 -3.63878e-05 -8.67982e-06     -6.65568 
         -10      33.3948 -3.59668e-05 -8.74012e-06      -6.6554 
         -10      33.5723 -3.56774e-05 -8.81314e-06     -6.65512 
         -10        33.75 -3.54912e-05 -8.89056e-06     -6.65484 
         -10      33.9284 -3.53826e-05 -8.96442e-06     -6.65455 
         -10      34.1073 -3.53304e-05 -9.02718e-06     -6.65427 
         -10      34.2865 -3.53163e-05 -9.07232e-06     -6.65398 
         -10      34.4663 -3.53258e-05 -9.09477e-06     -6.65369 
         -10      34.6465 -3.53478e-05 -9.09099e-06      -6.6534 
         -10      34.8272 -3.53743e-05 -9.05933e-06     -6.65311 
         -10      35.0083 -3.54003e-05 -9.00027e-06     -6.65281 
         -10        35.19 -3.54237e-05 -8.91634e-06     -6.65251 
         -10      35.3721 -3.54448e-05 -8.81243e-06     -6.65222 
         -10      35.5546  -3.5466e-05 -8.69573e-06     -6.65192 
         -10      35.7377 -3.54915e-05 -8.57531e-06     -6.65161 
         -10      35.9211 -3.55267e-05 -8.46258e-06     -6.65131 
         -10      36.1052 -3.55776e-05 -8.37037e-06     -6.65101 
         -10      36.2895 -3.56505e-05 -8.31324e-06      -6.6507 
         -10      36.4745 -3.57511e-05 -8.30657e-06     -6.65039 
         -10      36.6598  -3.5884e-05 -8.36633e-06     -6.65008 
         -10      36.8457 -3.60163e-05 -8.48104e-06     -6.64977 
         -10      37.0321 -3.60163e-05 -8.55955e-06     -6.64945 
         -10      37.2188 -3.59544e-05 -8.63985e-06     -6.64914 
         -10      37.4062 -3.58463e-05 -8.71307e-06     -6.64882 
         -10      37.5938 -3.57068e-05 -8.77281e-06      -6.6485 
         -10      37.7821 -3.55482e-05  -8.8156e-06     -6.64818 
         -10      37.9707 -3.53819e-05 -8.84045e-06     -6.64785 
         -10      38.1599 -3.52165e-05 -8.84898e-06     -6.64753 
         -10      38.3496  -3.5059e-05 -8.84515e-06      -6.6472 
         -10      38.5396 -3.49143e-05  -8.8351e-06     -6.64687 
         -10      38.7302 -3.47846e-05 -8.82688e-06     -6.64654 
         -10      38.9211 -3.46702e-05 -8.83015e-06     -6.64621 
         -10      39.1127  -3.4569e-05  -8.8558e-06     -6.64587 
         -10      39.3046 -3.44766e-05 -8.91547e-06     -6.64554 
         -10      39.4971 -3.43864e-05  -9.0213e-06      -6.6452 
         -10      39.6899 -3.42899e-05  -9.1849e-06     -6.64486 
         -10      39.8833 -3.41763e-05 -9.41748e-06     -6.64452 
         -10      40.0772 -3.40552e-05 -9.64918e-06     -6.64418 
         -10      40.2714 -3.40862e-05 -9.36721e-06     -6.64383 
         -10      40.4663 -3.41113e-05 -9.20245e-06     -6.64349 
         -10      40.6615 -3.41343e-05 -9.12461e-06     -6.64314 
         -10      40.8573 -3.41579e-05 -9.10756e-06     -6.64279 
         -10      41.0534  -3.4184e-05 -9.12961e-06     -6.64244 
         -10      41.2501 -3.42138e-05 -9.17297e-06     -6.64208 
         -10      41.4473 -3.42476e-05  -9.2234e-06     -6.64173 
         -10      41.6448 -3.42851e-05 -9.26992e-06     -6.64137 
         -10      41.8429 -3.43254e-05 -9.30464e-06     -6.64101 
         -10      42.0414  -3.4367e-05 -9.32219e-06     -6.64065 
         -10      42.2405 -3.44081e-05 -9.31959e-06     -6.64029 
         -10      42.4399 -3.44464e-05 -9.29588e-06     -6.63993 
         -10      42.6399 -3.44792e-05 -9.25176e-06     -6.63956 
         -10      42.8404  -3.4504e-05 -9.18942e-06      -6.6392 
         -10      43.0412 -3.45178e-05 -9.11221e-06     -6.63883 
         -10      43.2426  -3.4518e-05 -9.02412e-06     -6.63846 
         -10      43.4444  -3.4502e-05 -8.92996e-06     -6.63808 
         -10      43.6467 -3.44675e-05 -8.83452e-06     -6.63771 
         -10      43.8494 -3.44128e-05 -8.74292e-06     -6.63734 
         -10      44.0527 -3.43367e-05 -8.65974e-06     -6.63696 
         -10      44.2563 -3.42387e-05 -8.58934e-06     -6.63658 
         -10      44.4606 -3.41193e-05 -8.53512e-06      -6.6362 
         -10      44.6653 -3.39801e-05  -8.4997e-06     -6.63582 
         -10      44.8704  -3.3824e-05  -8.4845e-06     -6.63543 
         -10       45.076 -3.36552e-05 -8.48954e-06     -6.63505 
         -10       45.282 -3.34801e-05 -8.51333e-06     -6.63466 
         -10      45.4886 -3.33062e-05 -8.55269e-06     -6.63427 
         -10      45.6955 -3.31439e-05 -8.60251e-06     -6.63388 
         -10       45.903 -3.30054e-05 -8.65581e-06     -6.63349 
         -10      46.1111  -3.2906e-05 -8.70335e-06      -6.6331 
         -10      46.3194 -3.28635e-05  -8.7337e-06      -6.6327 
         -10      46.5283 -3.28991e-05 -8.73321e-06     -6.63231 
         -10      46.7376 -3.30372e-05 -8.68582e-06     -6.63191 
         -10      46.9475 -3.33062e-05 -8.57299e-06     -6.63151 
         -10      47.1577 -3.37382e-05 -8.37402e-06     -6.63111 
         -10      47.3685 -3.42371e-05 -8.12323e-06      -6.6307 
         -10      47.5798 -3.36275e-05 -8.32519e-06      -6.6303 
         -10      47.7914  -3.3146e-05 -8.45271e-06     -6.62989 
         -10      48.0037 -3.27884e-05 -8.52178e-06     -6.62949 