Variables = x, y, u, v, p

Zone, I=800, F=POINT
         600            0           -0           -0      12.7715 
         600     0.000234   2.0782e-06 -5.94226e-13      12.7715 
         600     0.000939  7.64086e-06 -5.92791e-12      12.7715 
         600     0.002113  1.47616e-05 -2.93474e-11      12.7715 
         600     0.003759  2.08412e-05 -1.02225e-10      12.7715 
         600     0.005872  2.32555e-05 -2.86469e-10      12.7715 
         600     0.008457   2.0124e-05 -6.92941e-10      12.7715 
         600      0.01151  1.08005e-05 -1.50056e-09      12.7715 
         600     0.015036 -3.98066e-06 -2.98307e-09      12.7715 
         600     0.019031 -2.23388e-05  -5.5289e-09      12.7715 
         600     0.023493 -4.19717e-05 -9.66704e-09      12.7715 
         600     0.028429 -6.10894e-05 -1.61026e-08      12.7715 
         600     0.033831  -7.9095e-05 -2.57111e-08      12.7715 
         600     0.039706 -9.69686e-05  -3.9597e-08      12.7715 
         600     0.046047 -0.000116583  -5.9056e-08      12.7715 
         600     0.052863 -0.000139322 -8.56605e-08      12.7715 
         600      0.06015 -0.000164186 -1.21179e-07      12.7715 
         600       0.0679 -0.000187377 -1.67569e-07      12.7715 
         600     0.076126 -0.000206697 -2.27128e-07      12.7715 
         600     0.084816 -0.000232581 -3.02183e-07      12.7715 
         600     0.093982 -0.000254556 -3.95458e-07      12.7715 
         600     0.103611 -0.000276999  -5.0957e-07      12.7715 
         600     0.113718 -0.000299428 -6.47555e-07      12.7715 
         600     0.124286 -0.000321401 -8.12121e-07      12.7715 
         600     0.135333 -0.000342677 -1.00654e-06      12.7715 
         600      0.14685 -0.000363077 -1.23368e-06      12.7715 
         600     0.158827  -0.00038252 -1.49626e-06      12.7715 
         600     0.171284 -0.000401026 -1.79758e-06      12.7715 
         600     0.184201 -0.000418549  -2.1399e-06      12.7715 
         600     0.197599 -0.000435058 -2.52636e-06      12.7715 
         600     0.211455 -0.000450409 -2.95867e-06      12.7715 
         600     0.225792 -0.000464508 -3.43977e-06      12.7715 
         600       0.2406 -0.000477398 -3.97138e-06      12.7715 
         600     0.255865 -0.000489334 -4.55476e-06      12.7715 
         600     0.271613 -0.000499995 -5.19215e-06      12.7715 
         600     0.287818 -0.000509558  -5.8838e-06      12.7715 
         600     0.304506  -0.00051807 -6.63192e-06      12.7715 
         600      0.32165 -0.000525564 -7.43614e-06      12.7715 
         600     0.339278 -0.000532104 -8.29835e-06      12.7715 
         600     0.357377 -0.000537747 -9.21832e-06      12.7715 
         600      0.37593 -0.000542557 -1.01953e-05      12.7715 
         600     0.394968 -0.000546616 -1.12308e-05      12.7715 
         600     0.414461 -0.000549994 -1.23233e-05      12.7715 
         600      0.43444 -0.000552775  -1.3474e-05      12.7715 
         600     0.454872 -0.000555032 -1.46809e-05      12.7715 
         600     0.475791 -0.000556846 -1.59457e-05      12.7715 
         600     0.497163 -0.000558288  -1.7266e-05      12.7715 
         600     0.519021 -0.000559432 -1.86435e-05      12.7715 
         600      0.54135 -0.000560344 -2.00767e-05      12.7715 
         600     0.564131  -0.00056109 -2.15637e-05      12.7715 
         600       0.5874 -0.000561736 -2.31055e-05      12.7715 
         600     0.611121  -0.00056235 -2.46982e-05      12.7715 
         600      0.63533 -0.000562982 -2.63479e-05      12.7715 
         600      0.65999 -0.000563644  -2.8047e-05      12.7715 
         600     0.685139 -0.000564389 -2.97974e-05      12.7715 
         600     0.710759 -0.000565255 -3.15973e-05      12.7715 
         600     0.736828  -0.00056627 -3.34436e-05      12.7715 
         600     0.763387 -0.000567451 -3.53376e-05      12.7715 
         600     0.790396 -0.000568799 -3.72744e-05      12.7715 
         600     0.817896 -0.000570305 -3.92544e-05      12.7715 
         600     0.845843 -0.000571941 -4.12714e-05      12.7715 
         600     0.874283 -0.000573672 -4.33252e-05      12.7715 
         600      0.90317 -0.000575444 -4.54086e-05      12.7715 
         600     0.932551 -0.000577194 -4.75206e-05      12.7715 
         600     0.962401 -0.000578847 -4.96543e-05      12.7715 
         600     0.992697 -0.000580315 -5.18029e-05      12.7715 
         600      1.02349 -0.000581507 -5.39641e-05      12.7715 
         600      1.05472 -0.000582322 -5.61281e-05      12.7715 
         600      1.08645 -0.000582658 -5.82922e-05      12.7715 
         600      1.11863 -0.000582409 -6.04462e-05      12.7715 
         600       1.1513 -0.000581472 -6.25867e-05      12.7715 
         600      1.18444  -0.00057975 -6.47052e-05      12.7715 
         600      1.21802 -0.000577154 -6.67935e-05      12.7715 
         600      1.25211 -0.000573604 -6.88484e-05      12.7715 
         600      1.28663 -0.000569043 -7.08607e-05      12.7715 
         600      1.32165 -0.000563421 -7.28287e-05      12.7715 
         600      1.35712 -0.000556729 -7.47447e-05      12.7715 
         600      1.39308 -0.000548962  -7.6609e-05      12.7715 
         600      1.42951  -0.00054016 -7.84188e-05      12.7715 
         600      1.46638 -0.000530401 -8.01733e-05      12.7715 
         600      1.50375 -0.000519769 -8.18784e-05      12.7715 
         600      1.54156 -0.000508002 -8.35062e-05      12.7715 
         600      1.57987 -0.000495763 -8.50759e-05      12.7715 
         600      1.61863 -0.000483157 -8.65894e-05      12.7715 
         600      1.65788 -0.000470204 -8.80512e-05      12.7715 
         600      1.69757 -0.000456965 -8.94609e-05      12.7715 
         600      1.73776 -0.000443453 -9.08223e-05      12.7715 
         600      1.77842 -0.000429711 -9.21357e-05      12.7715 
         600      1.81952 -0.000415777 -9.34009e-05      12.7715 
         600      1.86113 -0.000401654 -9.46208e-05      12.7715 
         600      1.90316 -0.000387386 -9.57937e-05      12.7715 
         600      1.94571 -0.000372968 -9.69216e-05      12.7715 
         600      1.98869 -0.000358438 -9.80024e-05      12.7715 
         600      2.03217 -0.000343785 -9.90376e-05      12.7715 
         600      2.07612  -0.00032903 -0.000100025      12.7715 
         600      2.12051 -0.000314192 -0.000100964      12.7715 
         600       2.1654 -0.000299254 -0.000101855      12.7715 
         600      2.21073 -0.000284244 -0.000102694      12.7715 
         600      2.25656 -0.000269141 -0.000103481      12.7715 
         600      2.30283 -0.000253973 -0.000104215      12.7715 
         600       2.3496 -0.000238718 -0.000104894      12.7715 
         600      2.39685 -0.000223392 -0.000105516      12.7715 
         600      2.44452 -0.000208012  -0.00010608      12.7715 
         600      2.49271  -0.00019256 -0.000106584      12.7715 
         600      2.54132 -0.000177069 -0.000107027      12.7715 
         600      2.59044 -0.000161524 -0.000107407      12.7715 
         600         2.64 -0.000145965 -0.000107725      12.7715 
         600      2.69006 -0.000130383 -0.000107978      12.7715 
         600      2.74056 -0.000114824 -0.000108166      12.7715 
         600      2.79156 -9.92868e-05  -0.00010829      12.7715 
         600      2.84304 -8.38124e-05 -0.000108348      12.7715 
         600      2.89494 -6.84443e-05 -0.000108341      12.7715 
         600      2.94735 -5.31933e-05 -0.000108271      12.7715 
         600       3.0002 -3.81216e-05 -0.000108137      12.7715 
         600      3.05355 -2.32462e-05 -0.000107941      12.7715 
         600      3.10733 -8.63188e-06 -0.000107685      12.7715 
         600      3.16163   5.7024e-06 -0.000107368      12.7715 
         600      3.21639  1.97042e-05 -0.000106994      12.7715 
         600      3.27158  3.33256e-05 -0.000106564      12.7715 
         600      3.32729  4.65566e-05 -0.000106078      12.7715 
         600      3.38342  5.93533e-05 -0.000105538      12.7715 
         600      3.44007  7.17243e-05 -0.000104943      12.7715 
         600      3.49714  8.36546e-05 -0.000104293      12.7715 
         600      3.55472  9.51874e-05 -0.000103585      12.7715 
         600      3.61273  0.000106355 -0.000102818      12.7715 
         600      3.67125  0.000117255 -0.000101983      12.7715 
         600      3.73025  0.000127999 -0.000101074      12.7715 
         600      3.78967  0.000138049 -0.000100163      12.7715 
         600      3.84961  0.000147403 -9.92407e-05      12.7715 
         600      3.90996  0.000156276 -9.82788e-05      12.7715 
         600      3.97084  0.000164659  -9.7279e-05      12.7715 
         600      4.03214  0.000172517 -9.62464e-05      12.7715 
         600      4.09395  0.000179847 -9.51827e-05      12.7715 
         600      4.15624  0.000186633  -9.4092e-05      12.7715 
         600      4.21895  0.000192862 -9.29787e-05      12.7715 
         600      4.28217  0.000198543 -9.18441e-05      12.7715 
         600      4.34582  0.000203667 -9.06933e-05      12.7715 
         600      4.40998  0.000208249 -8.95276e-05      12.7715 
         600      4.47457   0.00021229 -8.83522e-05      12.7715 
         600      4.53968  0.000215809 -8.71683e-05      12.7715 
         600      4.60525  0.000218818   -8.598e-05      12.7715 
         600      4.67125  0.000221335 -8.47915e-05      12.7715 
         600      4.73777  0.000223383  -8.3604e-05      12.7715 
         600       4.8047  0.000224983 -8.24228e-05      12.7715 
         600      4.87216  0.000226163 -8.12492e-05      12.7715 
         600      4.94003  0.000226948 -8.00885e-05      12.7715 
         600      5.00843   0.00022737 -7.89439e-05      12.7715 
         600      5.07724  0.000227522 -7.78458e-05      12.7715 
         600      5.14658  0.000227358 -7.67479e-05      12.7715 
         600      5.21639  0.000226904 -7.56533e-05      12.7715 
         600      5.28661  0.000226189 -7.45655e-05      12.7715 
         600      5.35736  0.000225238 -7.34851e-05      12.7715 
         600      5.42852  0.000224079 -7.24162e-05      12.7715 
         600      5.50021  0.000222736 -7.13592e-05      12.7715 
         600      5.57231  0.000221236  -7.0318e-05      12.7715 
         600      5.64493  0.000219601 -6.92927e-05      12.7715 
         600      5.71803  0.000217856 -6.82858e-05      12.7715 
         600      5.79154  0.000216022 -6.72993e-05      12.7716 
         600      5.86558  0.000214118 -6.63327e-05      12.7716 
         600      5.94003  0.000212165 -6.53881e-05      12.7716 
         600      6.01501  0.000210175  -6.4464e-05      12.7716 
         600       6.0904  0.000208167 -6.35618e-05      12.7716 
         600      6.16632  0.000206149 -6.26793e-05      12.7716 
         600      6.24271  0.000204134 -6.18159e-05      12.7716 
         600       6.3195  0.000202132 -6.09708e-05      12.7716 
         600      6.39683  0.000200144 -6.01404e-05      12.7716 
         600      6.47457  0.000198178 -5.93235e-05      12.7716 
         600      6.55284  0.000196232 -5.85158e-05      12.7716 
         600      6.63152  0.000194308 -5.77154e-05      12.7716 
         600      6.71073  0.000192401 -5.69173e-05      12.7716 
         600      6.79034   0.00019051 -5.61189e-05      12.7716 
         600      6.87049  0.000188625 -5.53151e-05      12.7716 
         600      6.95111  0.000186742 -5.45024e-05      12.7716 
         600      7.03214  0.000184838 -5.37059e-05      12.7716 
         600       7.1137  0.000182932 -5.29813e-05      12.7716 
         600      7.19566  0.000181089 -5.22622e-05      12.7716 
         600      7.27816  0.000179298 -5.15472e-05      12.7716 
         600      7.36106  0.000177553 -5.08371e-05      12.7716 
         600      7.44451  0.000175845 -5.01305e-05      12.7716 
         600      7.52842   0.00017417 -4.94279e-05      12.7716 
         600      7.61273  0.000172523 -4.87299e-05      12.7716 
         600      7.69758  0.000170897 -4.80355e-05      12.7716 
         600      7.78283  0.000169291 -4.73461e-05      12.7716 
         600      7.86862    0.0001677 -4.66609e-05      12.7716 
         600      7.95481  0.000166125 -4.59815e-05      12.7716 
         600      8.04155  0.000164562 -4.53072e-05      12.7716 
         600      8.12868  0.000163012   -4.464e-05      12.7716 
         600      8.21635  0.000161474 -4.39795e-05      12.7716 
         600      8.30449  0.000159949 -4.33272e-05      12.7716 
         600      8.39303   0.00015844 -4.26847e-05      12.7716 
         600      8.48211  0.000156947 -4.20521e-05      12.7716 
         600      8.57159  0.000155473 -4.14319e-05      12.7716 
         600      8.66161   0.00015402 -4.08245e-05      12.7716 
         600      8.75203  0.000152592 -4.02328e-05      12.7716 
         600      8.84299  0.000151188 -3.96576e-05      12.7716 
         600      8.93443   0.00014979 -3.90706e-05      12.7716 
         600      9.02626  0.000148402 -3.84824e-05      12.7716 
         600      9.11863  0.000147029 -3.78995e-05      12.7716 
         600      9.21139  0.000145671  -3.7322e-05      12.7716 
         600      9.30471  0.000144326 -3.67482e-05      12.7716 
         600      9.39841  0.000142996 -3.61791e-05      12.7716 
         600      9.49267  0.000141681 -3.56141e-05      12.7716 
         600      9.58739  0.000140383 -3.50541e-05      12.7716 
         600      9.68251  0.000139105 -3.45006e-05      12.7716 
         600      9.77817  0.000137846 -3.39535e-05      12.7716 
         600      9.87422  0.000136612 -3.34147e-05      12.7716 
         600      9.97083  0.000135401  -3.2884e-05      12.7716 
         600      10.0678  0.000134216 -3.23628e-05      12.7716 
         600      10.1654  0.000133054 -3.18499e-05      12.7716 
         600      10.2633  0.000131916 -3.13453e-05      12.7716 
         600      10.3618  0.000130794 -3.08462e-05      12.7716 
         600      10.4607  0.000129682 -3.03496e-05      12.7716 
         600      10.5601   0.00012857 -2.98509e-05      12.7716 
         600        10.66  0.000127438 -2.93424e-05      12.7716 
         600      10.7603  0.000126268 -2.88156e-05      12.7716 
         600      10.8611  0.000125028 -2.82573e-05      12.7716 
         600      10.9623  0.000123683 -2.76532e-05      12.7716 
         600      11.0641  0.000122729 -2.72513e-05      12.7716 
         600      11.1663  0.000121829 -2.68524e-05      12.7716 
         600       11.269  0.000120886  -2.6416e-05      12.7716 
         600      11.3721  0.000119908 -2.59567e-05      12.7716 
         600      11.4757  0.000118907 -2.54874e-05      12.7716 
         600      11.5798   0.00011789 -2.50171e-05      12.7716 
         600      11.6844  0.000116865 -2.45536e-05      12.7716 
         600      11.7894  0.000115839 -2.41012e-05      12.7716 
         600       11.895  0.000114817 -2.36635e-05      12.7716 
         600      12.0009  0.000113804 -2.32423e-05      12.7716 
         600      12.1073  0.000112803 -2.28373e-05      12.7716 
         600      12.2142  0.000111818 -2.24484e-05      12.7716 
         600      12.3216  0.000110849 -2.20735e-05      12.7716 
         600      12.4294    0.0001099 -2.17112e-05      12.7716 
         600      12.5378  0.000108969 -2.13585e-05      12.7717 
         600      12.6465  0.000108058 -2.10135e-05      12.7717 
         600      12.7558  0.000107166  -2.0673e-05      12.7717 
         600      12.8656  0.000106291 -2.03352e-05      12.7717 
         600      12.9757  0.000105435 -1.99982e-05      12.7717 
         600      13.0864  0.000104593   -1.966e-05      12.7717 
         600      13.1975  0.000103767 -1.93199e-05      12.7717 
         600      13.3092  0.000102954 -1.89767e-05      12.7717 
         600      13.4212  0.000102153 -1.86306e-05      12.7717 
         600      13.5338  0.000101363 -1.82812e-05      12.7717 
         600      13.6468  0.000100584  -1.7929e-05      12.7717 
         600      13.7603  9.98168e-05 -1.75746e-05      12.7717 
         600      13.8743  9.90619e-05 -1.72175e-05      12.7717 
         600      13.9886  9.82705e-05 -1.69548e-05      12.7717 
         600      14.1036  9.74264e-05 -1.67809e-05      12.7717 
         600      14.2189   9.6599e-05 -1.65658e-05      12.7717 
         600      14.3348  9.57953e-05 -1.63135e-05      12.7717 
         600       14.451   9.5027e-05 -1.60323e-05      12.7717 
         600      14.5678  9.43057e-05 -1.57342e-05      12.7717 
         600      14.6851   9.3648e-05 -1.54363e-05      12.7717 
         600      14.8028  9.30736e-05 -1.51611e-05      12.7717 
         600       14.921  9.26048e-05 -1.49359e-05      12.7717 
         600      15.0396   9.1951e-05 -1.46416e-05      12.7717 
         600      15.1588  9.12588e-05 -1.43629e-05      12.7717 
         600      15.2783   9.0565e-05 -1.41049e-05      12.7717 
         600      15.3984  8.98754e-05 -1.38604e-05      12.7717 
         600       15.519  8.91951e-05  -1.3625e-05      12.7717 
         600        15.64   8.8528e-05 -1.33956e-05      12.7717 
         600      15.7615  8.78749e-05 -1.31705e-05      12.7717 
         600      15.8834  8.72377e-05 -1.29492e-05      12.7717 
         600      16.0058  8.66153e-05 -1.27319e-05      12.7717 
         600      16.1286   8.6008e-05 -1.25196e-05      12.7717 
         600       16.252  8.54139e-05 -1.23133e-05      12.7717 
         600      16.3759  8.48321e-05 -1.21142e-05      12.7717 
         600      16.5002  8.42618e-05 -1.19238e-05      12.7717 
         600       16.625  8.37007e-05 -1.17426e-05      12.7717 
         600      16.7501  8.31487e-05 -1.15713e-05      12.7717 
         600      16.8759  8.26041e-05 -1.14096e-05      12.7717 
         600       17.002  8.20673e-05 -1.12572e-05      12.7717 
         600      17.1287  8.15374e-05 -1.11125e-05      12.7717 
         600      17.2557  8.10156e-05  -1.0974e-05      12.7717 
         600      17.3834  8.05016e-05 -1.08389e-05      12.7717 
         600      17.5115  7.99967e-05 -1.07045e-05      12.7717 
         600      17.6399  7.95023e-05 -1.05678e-05      12.7717 
         600       17.769  7.90185e-05 -1.04252e-05      12.7717 
         600      17.8984  7.85466e-05 -1.02739e-05      12.7717 
         600      18.0284  7.80857e-05 -1.01111e-05      12.7717 
         600      18.1587  7.76359e-05 -9.93556e-06      12.7717 
         600      18.2896  7.71939e-05 -9.74667e-06      12.7717 
         600       18.421  7.67561e-05 -9.54637e-06      12.7717 
         600      18.5528  7.63165e-05 -9.33918e-06      12.7717 
         600      18.6851  7.58649e-05 -9.13246e-06      12.7717 
         600      18.8178  7.53891e-05 -8.93833e-06      12.7717 
         600      18.9511   7.4871e-05 -8.77336e-06      12.7717 
         600      19.0847  7.42887e-05  -8.6607e-06      12.7717 
         600      19.2189  7.38868e-05 -8.46594e-06      12.7717 
         600      19.3535  7.34922e-05 -8.30524e-06      12.7717 
         600      19.4886     7.31e-05 -8.17137e-06      12.7717 
         600      19.6242  7.27143e-05 -8.05397e-06      12.7717 
         600      19.7602  7.23381e-05 -7.94406e-06      12.7717 
         600      19.8968  7.19727e-05 -7.83372e-06      12.7717 
         600      20.0337  7.16184e-05 -7.71663e-06      12.7717 
         600      20.1712  7.12722e-05 -7.58721e-06      12.7717 
         600      20.3091  7.09289e-05  -7.4413e-06      12.7717 
         600      20.4475  7.05799e-05 -7.27812e-06      12.7717 
         600      20.5864  7.02615e-05 -7.20892e-06      12.7717 
         600      20.7257  6.99155e-05 -7.13405e-06      12.7717 
         600      20.8655  6.95515e-05 -7.05538e-06      12.7717 
         600      21.0058  6.91785e-05  -6.9746e-06      12.7717 
         600      21.1465  6.88031e-05 -6.89271e-06      12.7717 
         600      21.2877  6.84316e-05 -6.81064e-06      12.7718 
         600      21.4294  6.80679e-05 -6.72873e-06      12.7718 
         600      21.5716  6.77158e-05  -6.6473e-06      12.7718 
         600      21.7142  6.73778e-05 -6.56644e-06      12.7718 
         600      21.8573   6.7055e-05 -6.48592e-06      12.7718 
         600      22.0008  6.67486e-05 -6.40563e-06      12.7718 
         600      22.1449   6.6458e-05 -6.32519e-06      12.7718 
         600      22.2893  6.61833e-05 -6.24441e-06      12.7718 
         600      22.4344  6.59228e-05 -6.16291e-06      12.7718 
         600      22.5797  6.56756e-05  -6.0806e-06      12.7718 
         600      22.7257  6.54397e-05 -5.99724e-06      12.7718 
         600      22.8721  6.52132e-05 -5.91291e-06      12.7718 
         600      23.0189  6.49945e-05 -5.82783e-06      12.7718 
         600      23.1663  6.47812e-05 -5.74221e-06      12.7718 
         600       23.314  6.45716e-05 -5.65674e-06      12.7718 
         600      23.4623  6.43636e-05 -5.57203e-06      12.7718 
         600       23.611  6.41559e-05 -5.48917e-06      12.7718 
         600      23.7602  6.39469e-05 -5.40924e-06      12.7718 
         600        23.91  6.37355e-05 -5.33373e-06      12.7718 
         600        24.06  6.35213e-05 -5.26432e-06      12.7718 
         600      24.2107  6.33035e-05 -5.20275e-06      12.7718 
         600      24.3617  6.30825e-05 -5.15115e-06      12.7718 
         600      24.5133  6.28578e-05 -5.10863e-06      12.7718 
         600      24.6653  6.26274e-05 -5.04237e-06      12.7718 
         600      24.8178  6.24027e-05 -4.98163e-06      12.7718 
         600      24.9708  6.21843e-05 -4.92604e-06      12.7718 
         600      25.1242  6.19728e-05 -4.87508e-06      12.7718 
         600      25.2781   6.1768e-05 -4.82797e-06      12.7718 
         600      25.4324  6.15705e-05 -4.78405e-06      12.7718 
         600      25.5873  6.13799e-05 -4.74246e-06      12.7718 
         600      25.7426  6.11966e-05 -4.70247e-06      12.7718 
         600      25.8984  6.10199e-05 -4.66331e-06      12.7718 
         600      26.0546    6.085e-05 -4.62445e-06      12.7718 
         600      26.2114  6.06861e-05 -4.58543e-06      12.7718 
         600      26.3686   6.0528e-05 -4.54615e-06      12.7718 
         600      26.5262  6.03753e-05  -4.5069e-06      12.7718 
         600      26.6844  6.02271e-05  -4.4683e-06      12.7718 
         600      26.8429  6.00831e-05 -4.43168e-06      12.7718 
         600       27.002  5.99424e-05 -4.39895e-06      12.7718 
         600      27.1615  5.98048e-05 -4.37293e-06      12.7718 
         600      27.3216  5.96694e-05 -4.35729e-06      12.7718 
         600      27.4821   5.9536e-05  -4.3569e-06      12.7718 
         600       27.643  5.94043e-05 -4.37785e-06      12.7718 
         600      27.8044  5.92742e-05 -4.42774e-06      12.7718 
         600      27.9663  5.91458e-05 -4.51567e-06      12.7718 
         600      28.1287  5.89557e-05 -4.48734e-06      12.7718 
         600      28.2914  5.87548e-05 -4.36522e-06      12.7718 
         600      28.4548  5.86109e-05 -4.30333e-06      12.7718 
         600      28.6185  5.85117e-05 -4.28634e-06      12.7718 
         600      28.7828  5.84454e-05 -4.29891e-06      12.7718 
         600      28.9475  5.84016e-05 -4.32594e-06      12.7718 
         600      29.1126  5.83713e-05 -4.35247e-06      12.7719 
         600      29.2784  5.83474e-05 -4.36381e-06      12.7719 
         600      29.4444  5.83249e-05 -4.34546e-06      12.7719 
         600       29.611  5.80966e-05 -4.19716e-06      12.7719 
         600       29.778  5.78861e-05 -4.08052e-06      12.7719 
         600      29.9456  5.77128e-05 -3.99811e-06      12.7719 
         600      30.1137  5.75752e-05 -3.94237e-06      12.7719 
         600      30.2821  5.74702e-05 -3.90651e-06      12.7719 
         600      30.4511  5.73927e-05 -3.88454e-06      12.7719 
         600      30.6204  5.73373e-05 -3.87143e-06      12.7719 
         600      30.7903  5.72978e-05 -3.86293e-06      12.7719 
         600      30.9606  5.72681e-05  -3.8557e-06      12.7719 
         600      31.1315  5.72419e-05 -3.84717e-06      12.7719 
         600      31.3028  5.72138e-05 -3.83556e-06      12.7719 
         600      31.4745  5.71787e-05 -3.81984e-06      12.7719 
         600      31.6468  5.71327e-05 -3.79963e-06      12.7719 
         600      31.8194  5.70728e-05 -3.77523e-06      12.7719 
         600      31.9926  5.69973e-05  -3.7474e-06      12.7719 
         600      32.1662  5.69059e-05 -3.71748e-06      12.7719 
         600      32.3404  5.67992e-05 -3.68704e-06      12.7719 
         600      32.5149  5.66796e-05 -3.65806e-06      12.7719 
         600        32.69  5.65502e-05 -3.63253e-06      12.7719 
         600      32.8655  5.64154e-05 -3.61254e-06      12.7719 
         600      33.0414  5.62805e-05 -3.60002e-06      12.7719 
         600       33.218  5.61507e-05 -3.59659e-06      12.7719 
         600      33.3948  5.60322e-05  -3.6034e-06      12.7719 
         600      33.5723  5.59303e-05 -3.62097e-06      12.7719 
         600        33.75  5.58497e-05 -3.64891e-06      12.7719 
         600      33.9284  5.57937e-05 -3.68582e-06      12.7719 
         600      34.1073  5.57637e-05 -3.72891e-06      12.7719 
         600      34.2865   5.5758e-05 -3.77379e-06      12.7719 
         600      34.4663  5.57714e-05 -3.81433e-06      12.7719 
         600      34.6465   5.5794e-05 -3.84211e-06      12.7719 
         600      34.8272    5.581e-05 -3.84638e-06      12.7719 
         600      35.0083   5.5797e-05 -3.81353e-06      12.7719 
         600        35.19  5.57241e-05 -3.72677e-06      12.7719 
         600      35.3721   5.5551e-05  -3.5658e-06      12.7719 
         600      35.5546  5.56416e-05 -3.60434e-06       12.772 
         600      35.7377   5.5653e-05  -3.6455e-06       12.772 
         600      35.9211  5.55901e-05 -3.67494e-06       12.772 
         600      36.1052  5.54761e-05  -3.6922e-06       12.772 
         600      36.2895  5.53341e-05  -3.6985e-06       12.772 
         600      36.4745  5.51851e-05 -3.69642e-06       12.772 
         600      36.6598  5.50482e-05 -3.68934e-06       12.772 
         600      36.8457  5.49387e-05 -3.68096e-06       12.772 
         600      37.0321  5.48672e-05 -3.67473e-06       12.772 
         600      37.2188  5.48386e-05 -3.67319e-06       12.772 
         600      37.4062  5.48505e-05  -3.6773e-06       12.772 
         600      37.5938  5.48923e-05 -3.68567e-06       12.772 
         600      37.7821  5.49431e-05 -3.69385e-06       12.772 
         600      37.9707  5.49708e-05 -3.69336e-06       12.772 
         600      38.1599  5.49302e-05 -3.67083e-06       12.772 
         600      38.3496  5.48381e-05 -3.63065e-06       12.772 
         600      38.5396   5.4797e-05 -3.59348e-06       12.772 
         600      38.7302  5.47591e-05 -3.54561e-06       12.772 
         600      38.9211  5.47224e-05 -3.49146e-06       12.772 
         600      39.1127  5.46859e-05 -3.43453e-06       12.772 
         600      39.3046  5.46492e-05 -3.37778e-06       12.772 
         600      39.4971  5.46122e-05 -3.32338e-06       12.772 
         600      39.6899  5.45754e-05 -3.27316e-06       12.772 
         600      39.8833  5.45392e-05 -3.22826e-06       12.772 
         600      40.0772  5.45043e-05 -3.18957e-06       12.772 
         600      40.2714  5.44715e-05 -3.15755e-06       12.772 
         600      40.4663  5.44412e-05 -3.13229e-06       12.772 
         600      40.6615  5.44139e-05 -3.11366e-06       12.772 
         600      40.8573  5.43899e-05 -3.10116e-06       12.772 
         600      41.0534  5.43693e-05 -3.09408e-06      12.7721 
         600      41.2501  5.43519e-05 -3.09142e-06      12.7721 
         600      41.4473  5.43374e-05 -3.09188e-06      12.7721 
         600      41.6448  5.43254e-05 -3.09385e-06      12.7721 
         600      41.8429  5.43153e-05 -3.09537e-06      12.7721 
         600      42.0414  5.43067e-05 -3.09407e-06      12.7721 
         600      42.2405  5.42991e-05  -3.0871e-06      12.7721 
         600      42.4399  5.42926e-05 -3.07106e-06      12.7721 
         600      42.6399  5.42873e-05 -3.04185e-06      12.7721 
         600      42.8404  5.42844e-05 -2.99464e-06      12.7721 
         600      43.0412  5.42858e-05 -2.92375e-06      12.7721 
         600      43.2426  5.42945e-05 -2.82224e-06      12.7721 
         600      43.4444  5.43118e-05 -2.68553e-06      12.7721 
         600      43.6467  5.41334e-05 -2.75045e-06      12.7721 
         600      43.8494  5.40166e-05 -2.79234e-06      12.7721 
         600      44.0527  5.39509e-05 -2.81683e-06      12.7721 
         600      44.2563  5.39265e-05 -2.82836e-06      12.7721 
         600      44.4606  5.39342e-05 -2.83052e-06      12.7721 
         600      44.6653  5.39654e-05 -2.82604e-06      12.7721 
         600      44.8704  5.40125e-05 -2.81697e-06      12.7721 
         600       45.076  5.40684e-05  -2.8047e-06      12.7721 
         600       45.282  5.41269e-05 -2.79017e-06      12.7721 
         600      45.4886   5.4183e-05 -2.77385e-06      12.7721 
         600      45.6955  5.42321e-05 -2.75596e-06      12.7721 
         600       45.903  5.42708e-05 -2.73641e-06      12.7722 
         600      46.1111  5.42965e-05 -2.71504e-06      12.7722 
         600      46.3194  5.43076e-05  -2.6916e-06      12.7722 
         600      46.5283  5.43034e-05 -2.66581e-06      12.7722 
         600      46.7376  5.42838e-05 -2.63754e-06      12.7722 
         600      46.9475  5.42499e-05  -2.6067e-06      12.7722 
         600      47.1577  5.42033e-05  -2.5735e-06      12.7722 
         600      47.3685  5.41465e-05 -2.53827e-06      12.7722 
         600      47.5798  5.40824e-05 -2.50173e-06      12.7722 
         600      47.7914  5.40147e-05 -2.46488e-06      12.7722 
         600      48.0037  5.39475e-05 -2.42901e-06      12.7722 