Variables = x, y, u, v, p

Zone, I=800, F=POINT
         -70            0           -0           -0     -30.4957 
         -70     0.000234  1.32918e-06 -6.91168e-10     -30.4957 
         -70     0.000939   4.9966e-06 -2.53308e-09     -30.4957 
         -70     0.002113  1.00729e-05 -4.82739e-09     -30.4957 
         -70     0.003759  1.53223e-05 -6.51315e-09     -30.4957 
         -70     0.005872  1.95053e-05 -6.27246e-09     -30.4957 
         -70     0.008457  2.17798e-05 -2.68995e-09     -30.4957 
         -70      0.01151  2.19045e-05   5.5972e-09     -30.4957 
         -70     0.015036  2.03188e-05  1.97933e-08     -30.4957 
         -70     0.019031  1.79724e-05  4.08027e-08     -30.4957 
         -70     0.023493  1.59594e-05   6.9214e-08     -30.4957 
         -70     0.028429  1.50557e-05  1.05393e-07     -30.4957 
         -70     0.033831  1.53485e-05    1.494e-07     -30.4957 
         -70     0.039706  1.61392e-05  2.01351e-07     -30.4957 
         -70     0.046047  1.63037e-05  2.61363e-07     -30.4957 
         -70     0.052863   1.5106e-05   3.3004e-07     -30.4957 
         -70      0.06015  1.31193e-05  4.08445e-07     -30.4957 
         -70       0.0679  1.23131e-05  4.98478e-07     -30.4957 
         -70     0.076126  1.33946e-05  6.03634e-07     -30.4957 
         -70     0.084816  9.80221e-06  7.26755e-07     -30.4957 
         -70     0.093982  9.23106e-06  8.63035e-07     -30.4957 
         -70     0.103611  7.68625e-06  1.02065e-06     -30.4957 
         -70     0.113718  5.59064e-06   1.1965e-06     -30.4957 
         -70     0.124286  3.26041e-06  1.38985e-06     -30.4957 
         -70     0.135333  8.78093e-07  1.60293e-06     -30.4957 
         -70      0.14685 -1.48643e-06  1.83853e-06     -30.4957 
         -70     0.158827 -3.85174e-06  2.09868e-06     -30.4957 
         -70     0.171284 -6.28164e-06  2.38336e-06     -30.4957 
         -70     0.184201 -8.81333e-06   2.6872e-06     -30.4957 
         -70     0.197599 -1.14237e-05   3.0008e-06     -30.4957 
         -70     0.211455 -1.39999e-05  3.31068e-06     -30.4957 
         -70     0.225792   -1.642e-05  3.60737e-06     -30.4957 
         -70       0.2406 -1.87376e-05   3.8964e-06     -30.4956 
         -70     0.255865  -2.1208e-05  4.17392e-06     -30.4956 
         -70     0.271613   -2.339e-05  4.36643e-06     -30.4956 
         -70     0.287818 -2.54619e-05  4.49478e-06     -30.4956 
         -70     0.304506 -2.73925e-05  4.55152e-06     -30.4956 
         -70      0.32165 -2.91596e-05  4.54347e-06     -30.4956 
         -70     0.339278 -3.07616e-05  4.49094e-06     -30.4955 
         -70     0.357377 -3.22057e-05  4.42553e-06     -30.4955 
         -70      0.37593 -3.35099e-05  4.38698e-06     -30.4955 
         -70     0.394968 -3.47027e-05  4.41884e-06     -30.4955 
         -70     0.414461 -3.58115e-05  4.56348e-06     -30.4955 
         -70      0.43444 -3.68655e-05  4.85685e-06     -30.4954 
         -70     0.454872 -3.78839e-05  5.32141e-06     -30.4954 
         -70     0.475791  -3.8878e-05  5.96248e-06     -30.4954 
         -70     0.497163 -3.98417e-05  6.76019e-06     -30.4953 
         -70     0.519021 -4.07558e-05  7.67024e-06     -30.4953 
         -70      0.54135 -4.15848e-05  8.61924e-06     -30.4953 
         -70     0.564131 -4.22851e-05  9.50954e-06     -30.4952 
         -70       0.5874 -4.28186e-05  1.02302e-05     -30.4952 
         -70     0.611121 -4.31543e-05  1.06303e-05     -30.4952 
         -70      0.63533 -4.31368e-05  1.05554e-05     -30.4951 
         -70      0.65999 -4.28978e-05  1.05903e-05     -30.4951 
         -70     0.685139 -4.24471e-05  1.07131e-05      -30.495 
         -70     0.710759  -4.1796e-05  1.09051e-05     -30.4949 
         -70     0.736828 -4.09577e-05  1.11508e-05     -30.4949 
         -70     0.763387 -3.99443e-05  1.14381e-05     -30.4948 
         -70     0.790396 -3.87719e-05  1.17573e-05     -30.4948 
         -70     0.817896 -3.74538e-05  1.21021e-05     -30.4947 
         -70     0.845843 -3.60083e-05  1.24675e-05     -30.4946 
         -70     0.874283 -3.44497e-05  1.28515e-05     -30.4946 
         -70      0.90317 -3.27979e-05  1.32522e-05     -30.4945 
         -70     0.932551 -3.10677e-05  1.36694e-05     -30.4944 
         -70     0.962401 -2.92783e-05  1.41024e-05     -30.4943 
         -70     0.992697 -2.74488e-05  1.45497e-05     -30.4942 
         -70      1.02349 -2.55935e-05  1.50096e-05     -30.4941 
         -70      1.05472  -2.3732e-05  1.54777e-05      -30.494 
         -70      1.08645 -2.18766e-05   1.5949e-05     -30.4939 
         -70      1.11863 -2.00442e-05  1.64149e-05     -30.4938 
         -70       1.1513 -1.82436e-05  1.68667e-05     -30.4937 
         -70      1.18444 -1.64851e-05   1.7293e-05     -30.4936 
         -70      1.21802 -1.47756e-05  1.76827e-05     -30.4935 
         -70      1.25211 -1.31133e-05  1.80268e-05     -30.4933 
         -70      1.28663 -1.14967e-05  1.83194e-05     -30.4932 
         -70      1.32165 -9.91193e-06  1.85627e-05     -30.4931 
         -70      1.35712 -8.34298e-06  1.87698e-05     -30.4929 
         -70      1.39308 -6.75905e-06  1.89721e-05     -30.4928 
         -70      1.42951 -5.12187e-06  1.92248e-05     -30.4926 
         -70      1.46638 -3.38028e-06  1.96165e-05     -30.4925 
         -70      1.50375  -1.4633e-06  2.02808e-05     -30.4923 
         -70      1.54156  2.82339e-07  2.04913e-05     -30.4921 
         -70      1.57987  2.17718e-06  2.06419e-05      -30.492 
         -70      1.61863  4.24152e-06   2.0785e-05     -30.4918 
         -70      1.65788  6.47098e-06  2.09236e-05     -30.4916 
         -70      1.69757  8.85196e-06  2.10603e-05     -30.4914 
         -70      1.73776  1.13763e-05  2.11982e-05     -30.4912 
         -70      1.77842  1.40279e-05  2.13403e-05      -30.491 
         -70      1.81952  1.67883e-05  2.14897e-05     -30.4907 
         -70      1.86113   1.9644e-05  2.16495e-05     -30.4905 
         -70      1.90316  2.25707e-05  2.18225e-05     -30.4903 
         -70      1.94571  2.55521e-05   2.2012e-05       -30.49 
         -70      1.98869  2.85607e-05  2.22202e-05     -30.4898 
         -70      2.03217  3.15782e-05  2.24499e-05     -30.4895 
         -70      2.07612  3.45777e-05  2.27032e-05     -30.4892 
         -70      2.12051  3.75322e-05  2.29814e-05      -30.489 
         -70       2.1654  4.04216e-05  2.32865e-05     -30.4887 
         -70      2.21073  4.32163e-05  2.36187e-05     -30.4884 
         -70      2.25656  4.58967e-05  2.39788e-05     -30.4881 
         -70      2.30283  4.84351e-05  2.43661e-05     -30.4878 
         -70       2.3496  5.08131e-05  2.47803e-05     -30.4874 
         -70      2.39685  5.30081e-05  2.52195e-05     -30.4871 
         -70      2.44452  5.49997e-05  2.56812e-05     -30.4868 
         -70      2.49271  5.67747e-05  2.61632e-05     -30.4864 
         -70      2.54132  5.83167e-05  2.66613e-05     -30.4861 
         -70      2.59044  5.96173e-05   2.7172e-05     -30.4857 
         -70         2.64   6.0667e-05  2.76899e-05     -30.4853 
         -70      2.69006   6.1464e-05  2.82106e-05     -30.4849 
         -70      2.74056  6.20071e-05  2.87277e-05     -30.4845 
         -70      2.79156  6.23015e-05  2.92361e-05     -30.4841 
         -70      2.84304  6.23555e-05  2.97295e-05     -30.4837 
         -70      2.89494  6.21822e-05  3.02016e-05     -30.4832 
         -70      2.94735  6.17989e-05   3.0648e-05     -30.4828 
         -70       3.0002   6.1228e-05  3.10632e-05     -30.4823 
         -70      3.05355  6.04945e-05  3.14441e-05     -30.4818 
         -70      3.10733  5.96293e-05  3.17881e-05     -30.4813 
         -70      3.16163  5.86642e-05  3.20955e-05     -30.4808 
         -70      3.21639  5.76359e-05  3.23686e-05     -30.4803 
         -70      3.27158  5.65833e-05  3.26125e-05     -30.4798 
         -70      3.32729  5.55437e-05  3.28374e-05     -30.4793 
         -70      3.38342  5.45578e-05  3.30571e-05     -30.4787 
         -70      3.44007  5.36613e-05  3.32918e-05     -30.4781 
         -70      3.49714  5.28899e-05   3.3568e-05     -30.4776 
         -70      3.55472  5.22713e-05  3.39205e-05      -30.477 
         -70      3.61273  5.18278e-05  3.43928e-05     -30.4764 
         -70      3.67125  5.15701e-05  3.50399e-05     -30.4757 
         -70      3.73025  5.14967e-05  3.59283e-05     -30.4751 
         -70      3.78967  5.03999e-05  3.60978e-05     -30.4744 
         -70      3.84961   4.9081e-05  3.57821e-05     -30.4738 
         -70      3.90996  4.80882e-05   3.5503e-05     -30.4731 
         -70      3.97084  4.73143e-05  3.53384e-05     -30.4724 
         -70      4.03214   4.6653e-05  3.53649e-05     -30.4717 
         -70      4.09395  4.59947e-05  3.56523e-05     -30.4709 
         -70      4.15624   4.5105e-05  3.61852e-05     -30.4702 
         -70      4.21895  4.39811e-05  3.65965e-05     -30.4694 
         -70      4.28217   4.2764e-05  3.68345e-05     -30.4687 
         -70      4.34582  4.15055e-05  3.69107e-05     -30.4679 
         -70      4.40998  4.02404e-05   3.6844e-05      -30.467 
         -70      4.47457  3.89959e-05  3.66572e-05     -30.4662 
         -70      4.53968  3.77857e-05  3.63742e-05     -30.4654 
         -70      4.60525  3.66183e-05  3.60183e-05     -30.4645 
         -70      4.67125  3.54954e-05  3.56101e-05     -30.4636 
         -70      4.73777  3.44116e-05  3.51642e-05     -30.4627 
         -70       4.8047  3.33618e-05  3.46903e-05     -30.4618 
         -70      4.87216   3.2336e-05  3.41896e-05     -30.4609 
         -70      4.94003  3.13275e-05  3.36577e-05     -30.4599 
         -70      5.00843   3.0328e-05  3.30812e-05     -30.4589 
         -70      5.07724  2.93352e-05  3.24429e-05     -30.4579 
         -70      5.14658   2.8347e-05  3.17199e-05     -30.4569 
         -70      5.21639   2.7369e-05  3.08896e-05     -30.4559 
         -70      5.28661  2.64118e-05  2.99337e-05     -30.4548 
         -70      5.35736  2.54894e-05  2.88398e-05     -30.4537 
         -70      5.42852  2.46244e-05  2.76146e-05     -30.4526 
         -70      5.50021   2.3842e-05  2.62845e-05     -30.4515 
         -70      5.57231  2.31741e-05  2.49138e-05     -30.4504 
         -70      5.64493  2.26535e-05   2.3608e-05     -30.4492 
         -70      5.71803  2.23156e-05   2.2535e-05      -30.448 
         -70      5.79154  2.21936e-05  2.19371e-05     -30.4468 
         -70      5.86558  2.18927e-05    2.219e-05     -30.4456 
         -70      5.94003  2.12409e-05  2.23292e-05     -30.4444 
         -70      6.01501  2.07143e-05  2.20735e-05     -30.4431 
         -70       6.0904  2.03188e-05  2.16248e-05     -30.4418 
         -70      6.16632  2.00465e-05  2.11285e-05     -30.4405 
         -70      6.24271  1.98811e-05  2.06819e-05     -30.4392 
         -70       6.3195  1.97991e-05  2.03381e-05     -30.4378 
         -70      6.39683  1.97727e-05  2.01126e-05     -30.4364 
         -70      6.47457  1.97727e-05  1.99914e-05      -30.435 
         -70      6.55284  1.97706e-05   1.9937e-05     -30.4336 
         -70      6.63152  1.97412e-05  1.98969e-05     -30.4321 
         -70      6.71073  1.96644e-05  1.98107e-05     -30.4307 
         -70      6.79034  1.95276e-05  1.96191e-05     -30.4292 
         -70      6.87049  1.93268e-05  1.92717e-05     -30.4276 
         -70      6.95111  1.90684e-05  1.87367e-05     -30.4261 
         -70      7.03214  1.87707e-05  1.80098e-05     -30.4245 
         -70       7.1137  1.84627e-05  1.71217e-05     -30.4229 
         -70      7.19566   1.8187e-05  1.61513e-05     -30.4213 
         -70      7.27816  1.79967e-05  1.52302e-05     -30.4196 
         -70      7.36106  1.79568e-05  1.45579e-05      -30.418 
         -70      7.44451  1.81413e-05  1.44066e-05     -30.4163 
         -70      7.52842  1.86316e-05   1.5135e-05     -30.4145 
         -70      7.61273  1.75266e-05   1.4434e-05     -30.4128 
         -70      7.69758  1.63906e-05  1.31161e-05      -30.411 
         -70      7.78283  1.55976e-05  1.13035e-05     -30.4092 
         -70      7.86862   1.5419e-05   9.1512e-06     -30.4074 
         -70      7.95481  1.45763e-05  7.85726e-06     -30.4055 
         -70      8.04155  1.20926e-05  8.23762e-06     -30.4036 
         -70      8.12868  1.09806e-05  8.53401e-06     -30.4017 
         -70      8.21635  1.09026e-05  8.67882e-06     -30.3998 
         -70      8.30449  1.15699e-05  8.69048e-06     -30.3978 
         -70      8.39303  1.27326e-05  8.65169e-06     -30.3958 
         -70      8.48211  1.41467e-05  8.69211e-06     -30.3938 
         -70      8.57159  1.49683e-05  8.91089e-06     -30.3917 
         -70      8.66161  1.54844e-05  9.06798e-06     -30.3896 
         -70      8.75203  1.56692e-05  9.11284e-06     -30.3875 
         -70      8.84299  1.55498e-05    9.053e-06     -30.3854 
         -70      8.93443  1.51886e-05  8.92648e-06     -30.3832 
         -70      9.02626  1.46704e-05  8.77936e-06      -30.381 
         -70      9.11863  1.40867e-05  8.64751e-06     -30.3788 
         -70      9.21139  1.35277e-05  8.54568e-06     -30.3765 
         -70      9.30471  1.30691e-05  8.46137e-06     -30.3742 
         -70      9.39841   1.2768e-05  8.35768e-06     -30.3719 
         -70      9.49267  1.26549e-05  8.18276e-06     -30.3696 
         -70      9.58739  1.27341e-05  7.88951e-06     -30.3672 
         -70      9.68251  1.29825e-05  7.46476e-06     -30.3648 
         -70      9.77817  1.33554e-05  6.96767e-06     -30.3624 
         -70      9.87422  1.37926e-05  6.58356e-06     -30.3599 
         -70      9.97083  1.42331e-05  6.68583e-06     -30.3574 
         -70      10.0678  1.46284e-05  7.91509e-06     -30.3549 
         -70      10.1654  1.48733e-05  9.24508e-06     -30.3523 
         -70      10.2633  1.47677e-05   8.1491e-06     -30.3497 
         -70      10.3618  1.44914e-05  7.69664e-06     -30.3471 
         -70      10.4607  1.41122e-05  7.67216e-06     -30.3445 
         -70      10.5601  1.36852e-05  7.86291e-06     -30.3418 
         -70        10.66  1.32524e-05  8.05621e-06     -30.3391 
         -70      10.7603  1.28455e-05  8.03376e-06     -30.3363 
         -70      10.8611  1.24831e-05  7.56739e-06     -30.3336 
         -70      10.9623   1.2175e-05  6.41545e-06     -30.3308 
         -70      11.0641  1.19202e-05   4.3144e-06     -30.3279 
         -70      11.1663  1.20937e-05   4.1886e-06      -30.325 
         -70       11.269  1.24632e-05  6.48137e-06     -30.3221 
         -70      11.3721  1.25697e-05  7.78197e-06     -30.3192 
         -70      11.4757  1.24962e-05  8.32202e-06     -30.3162 
         -70      11.5798  1.23095e-05  8.31497e-06     -30.3133 
         -70      11.6844  1.20623e-05  7.94836e-06     -30.3102 
         -70      11.7894  1.17943e-05  7.38171e-06     -30.3072 
         -70       11.895   1.1535e-05  6.74569e-06     -30.3041 
         -70      12.0009  1.13051e-05  6.14047e-06     -30.3009 
         -70      12.1073  1.11176e-05  5.63381e-06     -30.2978 
         -70      12.2142  1.09803e-05  5.26521e-06     -30.2946 
         -70      12.3216  1.08959e-05  5.04492e-06     -30.2914 
         -70      12.4294  1.08647e-05  4.95952e-06     -30.2881 
         -70      12.5378   1.0884e-05  4.97521e-06     -30.2848 
         -70      12.6465  1.09499e-05  5.04466e-06     -30.2815 
         -70      12.7558  1.10577e-05  5.11466e-06     -30.2782 
         -70      12.8656  1.12014e-05  5.13529e-06     -30.2748 
         -70      12.9757  1.13742e-05  5.07162e-06     -30.2714 
         -70      13.0864  1.15684e-05  4.91658e-06     -30.2679 
         -70      13.1975  1.17735e-05  4.70676e-06     -30.2644 
         -70      13.3092  1.19766e-05  4.53919e-06     -30.2609 
         -70      13.4212  1.16258e-05  4.63729e-06     -30.2574 
         -70      13.5338  1.10378e-05  4.78259e-06     -30.2538 
         -70      13.6468  1.06549e-05  4.87466e-06     -30.2502 
         -70      13.7603  1.04137e-05  4.94511e-06     -30.2465 
         -70      13.8743  1.02637e-05  5.01938e-06     -30.2428 
         -70      13.9886  1.01676e-05   5.1164e-06     -30.2391 
         -70      14.1036  1.00981e-05  5.24929e-06     -30.2354 
         -70      14.2189  1.00374e-05  5.42489e-06     -30.2316 
         -70      14.3348   9.9751e-06  5.64495e-06     -30.2278 
         -70       14.451   9.9075e-06  5.90542e-06      -30.224 
         -70      14.5678  9.83547e-06  6.19829e-06     -30.2201 
         -70      14.6851  9.76366e-06  6.51079e-06     -30.2162 
         -70      14.8028  9.69908e-06  6.82671e-06     -30.2122 
         -70       14.921  9.64976e-06  7.12795e-06     -30.2083 
         -70      15.0396    9.624e-06  7.39376e-06     -30.2043 
         -70      15.1588  9.62907e-06  7.60366e-06     -30.2002 
         -70      15.2783  9.67051e-06  7.73698e-06     -30.1962 
         -70      15.3984  9.75138e-06  7.77548e-06      -30.192 
         -70       15.519  9.87152e-06  7.70394e-06     -30.1879 
         -70        15.64   1.0027e-05  7.51251e-06     -30.1837 
         -70      15.7615  1.02105e-05   7.1977e-06     -30.1795 
         -70      15.8834  1.04098e-05  6.76565e-06     -30.1753 
         -70      16.0058  1.06097e-05   6.2323e-06     -30.1711 
         -70      16.1286  1.07904e-05  5.62852e-06     -30.1668 
         -70       16.252  1.09296e-05  4.99932e-06     -30.1624 
         -70      16.3759  1.10021e-05  4.40992e-06     -30.1581 
         -70      16.5002  1.09815e-05  3.94717e-06     -30.1537 
         -70       16.625  1.08411e-05  3.72183e-06     -30.1493 
         -70      16.7501  1.05561e-05  3.87411e-06     -30.1448 
         -70      16.8759  1.01044e-05  4.57648e-06     -30.1403 
         -70       17.002  9.47038e-06  6.03614e-06     -30.1358 
         -70      17.1287  8.64531e-06  8.50449e-06     -30.1313 
         -70      17.2557  9.35963e-06  7.74893e-06     -30.1267 
         -70      17.3834  9.71702e-06  7.28265e-06     -30.1221 
         -70      17.5115   9.6705e-06  7.65582e-06     -30.1174 
         -70      17.6399  9.41839e-06  8.88211e-06     -30.1128 
         -70       17.769   9.1237e-06  7.78779e-06     -30.1081 
         -70      17.8984    9.025e-06  6.67736e-06     -30.1033 
         -70      18.0284  9.02029e-06  5.63795e-06     -30.0986 
         -70      18.1587   9.0151e-06  4.47933e-06     -30.0938 
         -70      18.2896  8.93815e-06  3.01117e-06      -30.089 
         -70       18.421  8.89046e-06  1.64394e-06     -30.0841 
         -70      18.5528  9.22067e-06   1.8356e-06     -30.0792 
         -70      18.6851  9.53185e-06  2.04363e-06     -30.0743 
         -70      18.8178   9.8142e-06  2.23988e-06     -30.0694 
         -70      18.9511  1.00611e-05  2.40418e-06     -30.0644 
         -70      19.0847   1.0267e-05  2.52236e-06     -30.0594 
         -70      19.2189  1.04293e-05  2.58642e-06     -30.0544 
         -70      19.3535  1.05463e-05  2.59297e-06     -30.0493 
         -70      19.4886  1.06185e-05  2.54287e-06     -30.0442 
         -70      19.6242  1.06472e-05  2.44032e-06     -30.0391 
         -70      19.7602  1.06353e-05   2.2923e-06     -30.0339 
         -70      19.8968  1.05868e-05  2.10738e-06     -30.0288 
         -70      20.0337  1.05063e-05  1.89591e-06     -30.0236 
         -70      20.1712  1.03991e-05   1.6683e-06     -30.0183 
         -70      20.3091  1.02712e-05  1.43576e-06     -30.0131 
         -70      20.4475  1.01287e-05  1.20837e-06     -30.0078 
         -70      20.5864  9.97775e-06  9.95921e-07     -30.0025 
         -70      20.7257  9.82482e-06  8.06917e-07     -29.9971 
         -70      20.8655  9.67554e-06  6.47861e-07     -29.9918 
         -70      21.0058  9.53558e-06  5.24017e-07     -29.9864 
         -70      21.1465  9.40956e-06  4.38252e-07      -29.981 
         -70      21.2877  9.30164e-06  3.91755e-07     -29.9755 
         -70      21.4294  9.21464e-06  3.83518e-07       -29.97 
         -70      21.5716  9.15044e-06  4.10801e-07     -29.9645 
         -70      21.7142  9.10948e-06  4.69139e-07      -29.959 
         -70      21.8573  9.09057e-06  5.52963e-07     -29.9534 
         -70      22.0008   9.0909e-06  6.55704e-07     -29.9479 
         -70      22.1449  9.10579e-06   7.7092e-07     -29.9423 
         -70      22.2893  9.12848e-06  8.92414e-07     -29.9366 
         -70      22.4344  9.15008e-06  1.01584e-06      -29.931 
         -70      22.5797  9.15935e-06  1.13902e-06     -29.9253 
         -70      22.7257  9.14258e-06  1.26392e-06     -29.9196 
         -70      22.8721  8.95653e-06  1.06591e-06     -29.9139 
         -70      23.0189  8.62108e-06  5.22779e-07     -29.9081 
         -70      23.1663  8.30544e-06  3.11944e-08     -29.9023 
         -70       23.314  8.02409e-06 -3.76671e-07     -29.8965 
         -70      23.4623  7.78471e-06  -6.7938e-07     -29.8907 
         -70       23.611  7.59067e-06 -8.62952e-07     -29.8849 
         -70      23.7602  7.44017e-06 -9.21949e-07      -29.879 
         -70        23.91  7.32812e-06  -8.5745e-07     -29.8731 
         -70        24.06  7.24624e-06 -6.77151e-07     -29.8672 
         -70      24.2107  7.18368e-06 -3.93715e-07     -29.8612 
         -70      24.3617  7.12817e-06 -2.52096e-08     -29.8553 
         -70      24.5133  7.06625e-06  4.07411e-07     -29.8493 
         -70      24.6653  6.98438e-06  8.78776e-07     -29.8433 
         -70      24.8178  6.86918e-06  1.36251e-06     -29.8372 
         -70      24.9708  6.70852e-06  1.82942e-06     -29.8312 
         -70      25.1242   6.4922e-06  2.24936e-06     -29.8251 
         -70      25.2781  6.21188e-06  2.59293e-06      -29.819 
         -70      25.4324  5.86309e-06   2.8299e-06     -29.8129 
         -70      25.5873  5.44406e-06  2.93194e-06     -29.8068 
         -70      25.7426  4.95859e-06  2.87188e-06     -29.8006 
         -70      25.8984  4.41393e-06  2.62477e-06     -29.7945 
         -70      26.0546  3.82447e-06  2.16896e-06     -29.7883 
         -70      26.2114  3.20888e-06  1.48493e-06      -29.782 
         -70      26.3686  5.88085e-06 -1.50975e-06     -29.7758 
         -70      26.5262  8.11073e-06 -3.82315e-06     -29.7696 
         -70      26.6844  9.51959e-06 -5.25731e-06     -29.7633 
         -70      26.8429  1.02506e-05 -5.98076e-06      -29.757 
         -70       27.002  1.04403e-05  -6.1526e-06     -29.7507 
         -70      27.1615   1.0213e-05 -5.91651e-06     -29.7444 
         -70      27.3216  9.68216e-06 -5.40173e-06      -29.738 
         -70      27.4821  8.95046e-06 -4.72272e-06     -29.7316 
         -70       27.643  8.10997e-06 -3.97852e-06     -29.7253 
         -70      27.8044  7.23907e-06 -3.24955e-06     -29.7189 
         -70      27.9663  6.40721e-06 -2.60107e-06     -29.7125 
         -70      28.1287  5.66947e-06   -2.078e-06      -29.706 
         -70      28.2914  5.07173e-06 -1.70815e-06     -29.6996 
         -70      28.4548  4.64619e-06 -1.49824e-06     -29.6931 
         -70      28.6185  4.41518e-06 -1.43546e-06     -29.6866 
         -70      28.7828  4.38876e-06  -1.4854e-06     -29.6801 
         -70      28.9475  4.56666e-06 -1.59188e-06     -29.6736 
         -70      29.1126  4.93733e-06 -1.67587e-06     -29.6671 
         -70      29.2784  5.48003e-06 -1.63516e-06     -29.6605 
         -70      29.4444  6.16292e-06 -1.34346e-06      -29.654 
         -70       29.611  6.94705e-06 -6.48945e-07     -29.6474 
         -70       29.778  7.94855e-06  4.24701e-07     -29.6408 
         -70      29.9456  9.11481e-06  8.99071e-07     -29.6342 
         -70      30.1137   9.6212e-06  1.21455e-06     -29.6276 
         -70      30.2821  9.64635e-06    1.388e-06      -29.621 
         -70      30.4511  9.33714e-06  1.44088e-06     -29.6143 
         -70      30.6204  8.81296e-06  1.39704e-06     -29.6077 
         -70      30.7903  8.16784e-06  1.28167e-06      -29.601 
         -70      30.9606  7.47677e-06  1.12026e-06     -29.5943 
         -70      31.1315  6.79497e-06  9.36778e-07     -29.5876 
         -70      31.3028  6.16458e-06  7.53483e-07     -29.5809 
         -70      31.4745  5.61539e-06  5.89677e-07     -29.5742 
         -70      31.6468  5.16609e-06  4.60636e-07     -29.5674 
         -70      31.8194  4.82912e-06  3.77947e-07     -29.5607 
         -70      31.9926  4.60959e-06  3.48406e-07     -29.5539 
         -70      32.1662  4.50873e-06    3.744e-07     -29.5472 
         -70      32.3404  4.52342e-06  4.53815e-07     -29.5404 
         -70      32.5149  4.64745e-06  5.80189e-07     -29.5336 
         -70        32.69  4.87172e-06  7.43741e-07     -29.5268 
         -70      32.8655  5.18342e-06  9.31556e-07       -29.52 
         -70      33.0414  5.56521e-06  1.12884e-06     -29.5132 
         -70       33.218  5.99521e-06  1.32085e-06     -29.5063 
         -70      33.3948  6.44288e-06  1.49335e-06     -29.4995 
         -70      33.5723  6.86933e-06  1.63578e-06     -29.4926 
         -70        33.75  7.22159e-06  1.74239e-06     -29.4858 
         -70      33.9284  7.43157e-06   1.8157e-06     -29.4789 
         -70      34.1073  7.40967e-06  1.86877e-06      -29.472 
         -70      34.2865   7.0416e-06  1.92879e-06     -29.4651 
         -70      34.4663  6.18098e-06  2.04082e-06     -29.4582 
         -70      34.6465  4.64609e-06  2.27134e-06     -29.4513 
         -70      34.8272  2.20663e-06  2.71372e-06     -29.4444 
         -70      35.0083  3.52407e-06   1.1919e-06     -29.4375 
         -70        35.19  4.77937e-06  -1.1385e-06     -29.4306 
         -70      35.3721  4.82076e-06 -1.29854e-06     -29.4236 
         -70      35.5546  5.06334e-06 -1.38297e-06     -29.4167 
         -70      35.7377  5.41014e-06 -1.41762e-06     -29.4097 
         -70      35.9211  5.78605e-06 -1.41825e-06     -29.4028 
         -70      36.1052  6.13699e-06 -1.39278e-06     -29.3958 
         -70      36.2895    6.425e-06 -1.34308e-06     -29.3888 
         -70      36.4745  6.62781e-06 -1.26652e-06     -29.3819 
         -70      36.6598  6.73461e-06 -1.15791e-06     -29.3749 
         -70      36.8457  6.74497e-06  -1.0104e-06     -29.3679 
         -70      37.0321  6.66589e-06 -8.17333e-07     -29.3609 
         -70      37.2188  6.51032e-06 -5.73281e-07     -29.3539 
         -70      37.4062  6.29457e-06  -2.7428e-07     -29.3469 
         -70      37.5938  6.03762e-06  7.99258e-08     -29.3399 
         -70      37.7821  5.75824e-06  4.87181e-07     -29.3329 
         -70      37.9707  5.47523e-06  9.40269e-07     -29.3259 
         -70      38.1599  5.20459e-06  1.42931e-06     -29.3189 
         -70      38.3496  4.96015e-06  1.93932e-06     -29.3118 
         -70      38.5396  4.75214e-06  2.45154e-06     -29.3048 
         -70      38.7302  4.58633e-06  2.94519e-06     -29.2978 
         -70      38.9211  4.46496e-06  3.39552e-06     -29.2907 
         -70      39.1127  4.38574e-06   3.7778e-06     -29.2837 
         -70      39.3046  4.34306e-06  4.06599e-06     -29.2767 
         -70      39.4971  4.32813e-06  4.23664e-06     -29.2696 
         -70      39.6899  4.33028e-06   4.2691e-06     -29.2626 
         -70      39.8833  4.33813e-06  4.14885e-06     -29.2555 
         -70      40.0772  4.34138e-06  3.86959e-06     -29.2485 
         -70      40.2714  4.33275e-06  3.43693e-06     -29.2414 
         -70      40.4663  4.31048e-06  2.87007e-06     -29.2343 
         -70      40.6615  4.28115e-06  2.20824e-06     -29.2273 
         -70      40.8573  4.26281e-06   1.5113e-06     -29.2202 
         -70      41.0534  4.28879e-06  8.68301e-07     -29.2132 
         -70      41.2501  4.41177e-06   3.9837e-07     -29.2061 
         -70      41.4473  4.70839e-06  2.59832e-07      -29.199 
         -70      41.6448  5.28368e-06  6.53364e-07      -29.192 
         -70      41.8429  4.39246e-06  2.03343e-06     -29.1849 
         -70      42.0414  3.70649e-06   2.4986e-06     -29.1779 
         -70      42.2405  4.68811e-06   1.7544e-06     -29.1708 
         -70      42.4399  5.32998e-06   1.2733e-06     -29.1637 
         -70      42.6399  5.70051e-06  1.00148e-06     -29.1567 
         -70      42.8404  5.85858e-06  8.92002e-07     -29.1496 
         -70      43.0412  5.85623e-06  9.02911e-07     -29.1425 
         -70      43.2426  5.73837e-06  9.97614e-07     -29.1355 
         -70      43.4444  5.54345e-06  1.14443e-06     -29.1284 
         -70      43.6467   5.3033e-06  1.31685e-06     -29.1214 
         -70      43.8494  5.04468e-06  1.49245e-06     -29.1143 
         -70      44.0527  4.78833e-06  1.65367e-06     -29.1072 
         -70      44.2563  4.55092e-06  1.78652e-06     -29.1002 
         -70      44.4606  4.34395e-06  1.88122e-06     -29.0931 
         -70      44.6653  4.17554e-06  1.93124e-06     -29.0861 
         -70      44.8704  4.05012e-06   1.9334e-06      -29.079 
         -70       45.076  3.96871e-06  1.88748e-06      -29.072 
         -70       45.282  3.92994e-06  1.79595e-06     -29.0649 
         -70      45.4886  3.92993e-06  1.66344e-06     -29.0579 
         -70      45.6955  3.96298e-06  1.49692e-06     -29.0509 
         -70       45.903  4.02188e-06  1.30459e-06     -29.0438 
         -70      46.1111  4.09822e-06   1.0964e-06     -29.0368 
         -70      46.3194   4.1839e-06  8.52463e-07     -29.0298 
         -70      46.5283  4.27432e-06  4.62713e-07     -29.0227 
         -70      46.7376  4.35458e-06  8.78612e-08     -29.0157 
         -70      46.9475  4.41586e-06 -2.60273e-07     -29.0087 
         -70      47.1577  4.45003e-06 -5.69834e-07     -29.0017 
         -70      47.3685  4.45028e-06 -8.31469e-07     -28.9947 
         -70      47.5798   4.4112e-06 -1.03685e-06     -28.9876 
         -70      47.7914  4.32926e-06  -1.1799e-06     -28.9806 
         -70      48.0037  4.20271e-06 -1.25722e-06     -28.9736 