Variables = x, y, u, v, p

Zone, I=800, F=POINT
         -50            0            0            0      43.5422 
         -50     0.000234 -5.31788e-06  5.78753e-10      43.5422 
         -50     0.000939 -1.99897e-05  2.13896e-09      43.5422 
         -50     0.002113 -4.02965e-05  4.16701e-09      43.5422 
         -50     0.003759 -6.13006e-05  5.94606e-09      43.5422 
         -50     0.005872 -7.80674e-05   6.6993e-09      43.5422 
         -50     0.008457 -8.72776e-05  5.77257e-09      43.5422 
         -50      0.01151 -8.80476e-05  2.75603e-09      43.5422 
         -50     0.015036  -8.2243e-05 -2.46158e-09      43.5422 
         -50     0.019031 -7.37825e-05 -9.70662e-09      43.5422 
         -50     0.023493 -6.71431e-05 -1.86436e-08      43.5422 
         -50     0.028429 -6.54726e-05  -2.8953e-08      43.5422 
         -50     0.033831 -6.90568e-05 -4.04214e-08      43.5422 
         -50     0.039706 -7.49078e-05 -5.30503e-08      43.5422 
         -50     0.046047 -7.82034e-05  -6.6892e-08      43.5422 
         -50     0.052863 -7.56415e-05 -8.18745e-08      43.5422 
         -50      0.06015 -6.93512e-05 -9.75129e-08      43.5421 
         -50       0.0679 -6.77174e-05 -1.13121e-07      43.5421 
         -50     0.076126 -7.55844e-05 -1.29249e-07      43.5421 
         -50     0.084816  -6.9333e-05 -1.49665e-07      43.5421 
         -50     0.093982 -7.09292e-05 -1.66724e-07      43.5421 
         -50     0.103611 -7.13154e-05 -1.84047e-07      43.5421 
         -50     0.113718 -7.11357e-05 -2.01814e-07      43.5421 
         -50     0.124286 -7.08585e-05 -2.19739e-07      43.5421 
         -50     0.135333 -7.07542e-05 -2.37232e-07      43.5421 
         -50      0.14685  -7.0908e-05 -2.53394e-07      43.5421 
         -50     0.158827 -7.12628e-05 -2.67213e-07      43.5421 
         -50     0.171284 -7.16959e-05 -2.77739e-07      43.5421 
         -50     0.184201 -7.21056e-05 -2.84096e-07      43.5421 
         -50     0.197599  -7.2491e-05 -2.85459e-07      43.5421 
         -50     0.211455 -7.29744e-05 -2.80605e-07      43.5421 
         -50     0.225792 -7.37149e-05 -2.66978e-07      43.5421 
         -50       0.2406 -7.46179e-05 -2.38941e-07      43.5421 
         -50     0.255865 -7.52421e-05 -1.94247e-07      43.5421 
         -50     0.271613 -7.61325e-05 -1.49404e-07      43.5421 
         -50     0.287818 -7.70399e-05 -8.21073e-08      43.5421 
         -50     0.304506 -7.79693e-05  1.95387e-08      43.5421 
         -50      0.32165 -7.89176e-05  1.57268e-07      43.5421 
         -50     0.339278 -7.98805e-05  3.24356e-07      43.5421 
         -50     0.357377 -8.08478e-05  5.06648e-07      43.5421 
         -50      0.37593 -8.18069e-05  6.85207e-07       43.542 
         -50     0.394968 -8.27468e-05  8.39747e-07       43.542 
         -50     0.414461 -8.36543e-05  9.50839e-07       43.542 
         -50      0.43444 -8.45216e-05  1.00399e-06       43.542 
         -50     0.454872 -8.53422e-05  9.91686e-07       43.542 
         -50     0.475791 -8.61173e-05  9.15382e-07       43.542 
         -50     0.497163 -8.68516e-05  7.85431e-07       43.542 
         -50     0.519021 -8.75564e-05  6.17838e-07       43.542 
         -50      0.54135  -8.8244e-05  4.28192e-07      43.5419 
         -50     0.564131 -8.89242e-05  2.19634e-07      43.5419 
         -50       0.5874 -8.95979e-05  -3.6465e-08      43.5419 
         -50     0.611121 -9.02526e-05 -3.61795e-07      43.5419 
         -50      0.63533  -9.1004e-05 -1.17455e-07      43.5419 
         -50      0.65999 -9.17774e-05  1.38641e-07      43.5418 
         -50     0.685139 -9.25656e-05  3.86302e-07      43.5418 
         -50     0.710759 -9.33586e-05  6.09087e-07      43.5418 
         -50     0.736828  -9.4146e-05  7.94991e-07      43.5418 
         -50     0.763387 -9.49183e-05  9.36754e-07      43.5417 
         -50     0.790396 -9.56637e-05  1.03069e-06      43.5417 
         -50     0.817896 -9.63722e-05  1.07722e-06      43.5417 
         -50     0.845843 -9.70323e-05  1.07981e-06      43.5416 
         -50     0.874283 -9.76349e-05  1.04473e-06      43.5416 
         -50      0.90317 -9.81697e-05  9.80302e-07      43.5416 
         -50     0.932551 -9.86298e-05  8.95945e-07      43.5415 
         -50     0.962401  -9.9008e-05  8.01672e-07      43.5415 
         -50     0.992697 -9.92997e-05  7.07094e-07      43.5414 
         -50      1.02349 -9.95025e-05   6.2033e-07      43.5414 
         -50      1.05472  -9.9616e-05  5.47748e-07      43.5414 
         -50      1.08645 -9.96424e-05  4.92757e-07      43.5413 
         -50      1.11863 -9.95865e-05  4.55807e-07      43.5413 
         -50       1.1513  -9.9455e-05  4.33822e-07      43.5412 
         -50      1.18444 -9.92573e-05  4.20606e-07      43.5411 
         -50      1.21802 -9.90046e-05  4.07348e-07      43.5411 
         -50      1.25211 -9.87084e-05  3.83846e-07       43.541 
         -50      1.28663 -9.83813e-05  3.40557e-07       43.541 
         -50      1.32165 -9.80338e-05  2.71245e-07      43.5409 
         -50      1.35712 -9.76746e-05   1.7719e-07      43.5408 
         -50      1.39308 -9.73065e-05  7.19134e-08      43.5408 
         -50      1.42951 -9.69254e-05  -1.1681e-08      43.5407 
         -50      1.46638 -9.65169e-05 -1.32493e-08      43.5406 
         -50      1.50375 -9.60506e-05  1.65457e-07      43.5405 
         -50      1.54156 -9.58021e-05 -1.87366e-07      43.5405 
         -50      1.57987 -9.55698e-05 -4.46572e-07      43.5404 
         -50      1.61863 -9.53295e-05  -5.8967e-07      43.5403 
         -50      1.65788 -9.50774e-05 -6.49261e-07      43.5402 
         -50      1.69757 -9.48123e-05 -6.54131e-07      43.5401 
         -50      1.73776 -9.45329e-05 -6.29658e-07        43.54 
         -50      1.77842 -9.42401e-05 -5.97629e-07      43.5399 
         -50      1.81952 -9.39357e-05 -5.76286e-07      43.5398 
         -50      1.86113  -9.3622e-05 -5.80296e-07      43.5397 
         -50      1.90316 -9.33029e-05 -6.20911e-07      43.5396 
         -50      1.94571  -9.2982e-05 -7.06167e-07      43.5395 
         -50      1.98869 -9.26647e-05  -8.4077e-07      43.5393 
         -50      2.03217 -9.23556e-05 -1.02688e-06      43.5392 
         -50      2.07612 -9.20602e-05 -1.26369e-06      43.5391 
         -50      2.12051  -9.1784e-05 -1.54788e-06       43.539 
         -50       2.1654 -9.15316e-05 -1.87477e-06      43.5388 
         -50      2.21073 -9.13081e-05 -2.23706e-06      43.5387 
         -50      2.25656 -9.11171e-05 -2.62719e-06      43.5385 
         -50      2.30283  -9.0962e-05 -3.03554e-06      43.5384 
         -50       2.3496 -9.08446e-05 -3.45322e-06      43.5382 
         -50      2.39685 -9.07659e-05  -3.8703e-06      43.5381 
         -50      2.44452 -9.07254e-05 -4.27718e-06      43.5379 
         -50      2.49271 -9.07209e-05 -4.66594e-06      43.5377 
         -50      2.54132 -9.07486e-05 -5.02855e-06      43.5376 
         -50      2.59044 -9.08032e-05 -5.35958e-06      43.5374 
         -50         2.64 -9.08772e-05 -5.65424e-06      43.5372 
         -50      2.69006 -9.09621e-05  -5.9107e-06       43.537 
         -50      2.74056 -9.10472e-05 -6.12834e-06      43.5368 
         -50      2.79156 -9.11208e-05 -6.30944e-06      43.5366 
         -50      2.84304   -9.117e-05 -6.45782e-06      43.5364 
         -50      2.89494 -9.11812e-05 -6.57922e-06      43.5362 
         -50      2.94735 -9.11408e-05 -6.68109e-06       43.536 
         -50       3.0002 -9.10358e-05 -6.77136e-06      43.5358 
         -50      3.05355 -9.08542e-05 -6.85833e-06      43.5356 
         -50      3.10733  -9.0587e-05 -6.94894e-06      43.5353 
         -50      3.16163 -9.02279e-05 -7.04806e-06      43.5351 
         -50      3.21639 -8.97762e-05 -7.15624e-06      43.5348 
         -50      3.27158 -8.92382e-05  -7.2679e-06      43.5346 
         -50      3.32729 -8.86275e-05 -7.36915e-06      43.5343 
         -50      3.38342 -8.79703e-05 -7.43431e-06      43.5341 
         -50      3.44007 -8.73039e-05 -7.42305e-06      43.5338 
         -50      3.49714 -8.66841e-05  -7.2762e-06      43.5335 
         -50      3.55472 -8.61841e-05 -6.91088e-06      43.5332 
         -50      3.61273  -8.5902e-05 -6.21653e-06      43.5329 
         -50      3.67125 -8.59619e-05 -5.04629e-06      43.5326 
         -50      3.73025 -8.65209e-05 -3.21334e-06      43.5323 
         -50      3.78967 -8.64312e-05 -4.80392e-06       43.532 
         -50      3.84961  -8.5639e-05  -6.6425e-06      43.5317 
         -50      3.90996 -8.47311e-05 -7.04442e-06      43.5314 
         -50      3.97084 -8.47992e-05 -5.60317e-06       43.531 
         -50      4.03214 -8.50209e-05 -4.12676e-06      43.5307 
         -50      4.09395 -8.51859e-05 -2.85527e-06      43.5303 
         -50      4.15624 -8.52594e-05 -1.80967e-06        43.53 
         -50      4.21895 -8.52294e-05 -9.89552e-07      43.5296 
         -50      4.28217 -8.51015e-05 -3.77177e-07      43.5292 
         -50      4.34582 -8.48946e-05   5.3396e-08      43.5288 
         -50      4.40998 -8.46348e-05  3.35434e-07      43.5285 
         -50      4.47457 -8.43531e-05  5.02279e-07       43.528 
         -50      4.53968  -8.4079e-05  5.85308e-07      43.5276 
         -50      4.60525 -8.38389e-05  6.09409e-07      43.5272 
         -50      4.67125 -8.36522e-05  5.90982e-07      43.5268 
         -50      4.73777 -8.35282e-05   5.3596e-07      43.5264 
         -50       4.8047 -8.34664e-05   4.3932e-07      43.5259 
         -50      4.87216 -8.34543e-05  2.85261e-07      43.5255 
         -50      4.94003 -8.34692e-05  4.98139e-08       43.525 
         -50      5.00843   -8.348e-05 -2.96684e-07      43.5245 
         -50      5.07724 -8.34501e-05 -7.82615e-07       43.524 
         -50      5.14658 -8.33435e-05 -1.43005e-06      43.5235 
         -50      5.21639 -8.31314e-05 -2.24259e-06       43.523 
         -50      5.28661 -8.28017e-05  -3.1938e-06      43.5225 
         -50      5.35736 -8.23702e-05 -4.21504e-06       43.522 
         -50      5.42852 -8.18962e-05 -5.17211e-06      43.5215 
         -50      5.50021 -8.14972e-05 -5.84977e-06      43.5209 
         -50      5.57231 -8.13723e-05  -5.9213e-06      43.5204 
         -50      5.64493 -8.18234e-05  -4.9229e-06      43.5198 
         -50      5.71803 -8.19111e-05 -5.98644e-06      43.5192 
         -50      5.79154  -8.2086e-05 -6.99686e-06      43.5186 
         -50      5.86558 -8.22871e-05 -7.71176e-06       43.518 
         -50      5.94003 -8.24548e-05 -8.01148e-06      43.5174 
         -50      6.01501 -8.25416e-05 -7.89068e-06      43.5168 
         -50       6.0904  -8.2519e-05   -7.438e-06      43.5162 
         -50      6.16632 -8.23829e-05 -6.81054e-06      43.5155 
         -50      6.24271 -8.21566e-05  -6.2035e-06      43.5149 
         -50       6.3195 -8.18895e-05 -5.80877e-06      43.5142 
         -50      6.39683 -8.16524e-05 -5.76495e-06      43.5135 
         -50      6.47457 -8.15302e-05 -6.10051e-06      43.5128 
         -50      6.55284 -8.16075e-05 -6.66464e-06      43.5121 
         -50      6.63152 -8.19512e-05 -7.04568e-06      43.5114 
         -50      6.71073 -8.25873e-05 -6.48075e-06      43.5107 
         -50      6.79034  -8.2338e-05 -6.80799e-06      43.5099 
         -50      6.87049 -8.17099e-05 -7.74415e-06      43.5092 
         -50      6.95111 -8.11785e-05 -8.41991e-06      43.5084 
         -50      7.03214 -8.07352e-05 -8.91199e-06      43.5076 
         -50       7.1137 -8.03686e-05 -9.27007e-06      43.5068 
         -50      7.19566 -8.00685e-05 -9.52007e-06       43.506 
         -50      7.27816 -7.98231e-05 -9.67256e-06      43.5052 
         -50      7.36106 -7.96221e-05 -9.72751e-06      43.5044 
         -50      7.44451 -7.94548e-05 -9.68171e-06      43.5035 
         -50      7.52842 -7.93112e-05 -9.53503e-06      43.5027 
         -50      7.61273 -7.91805e-05 -9.29786e-06      43.5018 
         -50      7.69758 -7.90506e-05 -8.99728e-06      43.5009 
         -50      7.78283 -7.89066e-05  -8.6857e-06         43.5 
         -50      7.86862 -7.87285e-05  -8.4465e-06      43.4991 
         -50      7.95481 -7.84899e-05 -8.40312e-06      43.4981 
         -50      8.04155 -7.81535e-05 -8.72553e-06      43.4972 
         -50      8.12868 -7.89184e-05 -9.02862e-06      43.4962 
         -50      8.21635 -7.96441e-05 -9.13156e-06      43.4952 
         -50      8.30449 -8.00252e-05 -9.14627e-06      43.4942 
         -50      8.39303 -8.01499e-05  -9.1184e-06      43.4932 
         -50      8.48211 -8.01029e-05 -9.10317e-06      43.4922 
         -50      8.57159 -7.99621e-05 -9.15835e-06      43.4912 
         -50      8.66161 -7.97942e-05 -9.33655e-06      43.4901 
         -50      8.75203 -7.96512e-05 -9.67638e-06       43.489 
         -50      8.84299 -7.95654e-05 -1.01946e-05      43.4879 
         -50      8.93443 -7.95453e-05  -1.0875e-05      43.4868 
         -50      9.02626 -7.95705e-05 -1.16581e-05      43.4857 
         -50      9.11863  -7.9587e-05 -1.24324e-05      43.4846 
         -50      9.21139  -7.9502e-05 -1.30189e-05      43.4834 
         -50      9.30471 -7.91784e-05 -1.31619e-05      43.4823 
         -50      9.39841 -7.89767e-05 -1.32352e-05      43.4811 
         -50      9.49267 -7.90523e-05 -1.37554e-05      43.4799 
         -50      9.58739 -7.90149e-05 -1.42536e-05      43.4786 
         -50      9.68251 -7.89099e-05 -1.47141e-05      43.4774 
         -50      9.77817 -7.87727e-05 -1.51252e-05      43.4762 
         -50      9.87422 -7.86308e-05  -1.5477e-05      43.4749 
         -50      9.97083 -7.85035e-05 -1.57638e-05      43.4736 
         -50      10.0678 -7.84034e-05 -1.59817e-05      43.4723 
         -50      10.1654 -7.83369e-05 -1.61306e-05       43.471 
         -50      10.2633 -7.83056e-05 -1.62124e-05      43.4696 
         -50      10.3618 -7.83065e-05 -1.62319e-05      43.4682 
         -50      10.4607 -7.83332e-05 -1.61962e-05      43.4669 
         -50      10.5601  -7.8377e-05 -1.61142e-05      43.4655 
         -50        10.66 -7.84271e-05 -1.59967e-05       43.464 
         -50      10.7603 -7.84721e-05 -1.58559e-05      43.4626 
         -50      10.8611 -7.85005e-05 -1.57046e-05      43.4612 
         -50      10.9623 -7.85012e-05 -1.55563e-05      43.4597 
         -50      11.0641 -7.84648e-05  -1.5424e-05      43.4582 
         -50      11.1663 -7.83839e-05 -1.53202e-05      43.4567 
         -50       11.269 -7.82539e-05 -1.52558e-05      43.4551 
         -50      11.3721 -7.80733e-05 -1.52391e-05      43.4536 
         -50      11.4757 -7.78447e-05 -1.52756e-05       43.452 
         -50      11.5798 -7.75745e-05 -1.53664e-05      43.4504 
         -50      11.6844 -7.72742e-05 -1.55071e-05      43.4488 
         -50      11.7894 -7.69594e-05 -1.56876e-05      43.4472 
         -50       11.895 -7.66512e-05 -1.58894e-05      43.4455 
         -50      12.0009 -7.63755e-05  -1.6085e-05      43.4439 
         -50      12.1073 -7.61625e-05  -1.6237e-05      43.4422 
         -50      12.2142 -7.60476e-05 -1.62951e-05      43.4405 
         -50      12.3216 -7.60696e-05 -1.61953e-05      43.4387 
         -50      12.4294 -7.62712e-05  -1.5858e-05       43.437 
         -50      12.5378 -7.66981e-05  -1.5185e-05      43.4352 
         -50      12.6465 -7.73944e-05 -1.46601e-05      43.4334 
         -50      12.7558 -7.77069e-05 -1.52825e-05      43.4316 
         -50      12.8656 -7.67874e-05 -1.49192e-05      43.4297 
         -50      12.9757 -7.58398e-05 -1.45898e-05      43.4279 
         -50      13.0864 -7.49608e-05 -1.46927e-05       43.426 
         -50      13.1975  -7.4449e-05 -1.49458e-05      43.4241 
         -50      13.3092 -7.41994e-05 -1.52868e-05      43.4222 
         -50      13.4212 -7.41262e-05 -1.56674e-05      43.4202 
         -50      13.5338 -7.41596e-05 -1.60538e-05      43.4182 
         -50      13.6468 -7.42447e-05 -1.64228e-05      43.4163 
         -50      13.7603 -7.43401e-05 -1.67602e-05      43.4142 
         -50      13.8743 -7.44164e-05 -1.70603e-05      43.4122 
         -50      13.9886 -7.44547e-05 -1.73224e-05      43.4101 
         -50      14.1036 -7.44451e-05 -1.75505e-05      43.4081 
         -50      14.2189  -7.4385e-05 -1.77507e-05       43.406 
         -50      14.3348 -7.42782e-05 -1.79311e-05      43.4038 
         -50       14.451  -7.4133e-05 -1.80994e-05      43.4017 
         -50      14.5678 -7.39608e-05 -1.82629e-05      43.3995 
         -50      14.6851 -7.37753e-05 -1.84268e-05      43.3973 
         -50      14.8028  -7.3591e-05  -1.8594e-05      43.3951 
         -50       14.921 -7.34211e-05 -1.87654e-05      43.3929 
         -50      15.0396 -7.32779e-05 -1.89385e-05      43.3906 
         -50      15.1588 -7.31705e-05  -1.9109e-05      43.3883 
         -50      15.2783 -7.31047e-05 -1.92698e-05       43.386 
         -50      15.3984 -7.30814e-05 -1.94136e-05      43.3837 
         -50       15.519 -7.30964e-05 -1.95326e-05      43.3813 
         -50        15.64 -7.31397e-05 -1.96207e-05      43.3789 
         -50      15.7615  -7.3195e-05 -1.96761e-05      43.3765 
         -50      15.8834 -7.32392e-05 -1.97027e-05      43.3741 
         -50      16.0058 -7.32426e-05 -1.97138e-05      43.3716 
         -50      16.1286 -7.31689e-05 -1.97352e-05      43.3691 
         -50       16.252 -7.29753e-05 -1.98095e-05      43.3666 
         -50      16.3759  -7.2613e-05 -2.00004e-05      43.3641 
         -50      16.5002 -7.20286e-05 -2.03979e-05      43.3615 
         -50       16.625 -7.11631e-05 -2.11248e-05       43.359 
         -50      16.7501 -7.07535e-05  -2.1488e-05      43.3564 
         -50      16.8759  -7.1102e-05 -2.11397e-05      43.3537 
         -50       17.002 -7.13438e-05 -2.09634e-05      43.3511 
         -50      17.1287 -7.14986e-05 -2.09251e-05      43.3484 
         -50      17.2557 -7.15817e-05 -2.09938e-05      43.3457 
         -50      17.3834 -7.16057e-05 -2.11416e-05       43.343 
         -50      17.5115 -7.15805e-05 -2.13436e-05      43.3402 
         -50      17.6399 -7.15142e-05 -2.15774e-05      43.3374 
         -50       17.769 -7.14132e-05 -2.18241e-05      43.3346 
         -50      17.8984 -7.12831e-05 -2.20673e-05      43.3318 
         -50      18.0284 -7.11283e-05 -2.22941e-05       43.329 
         -50      18.1587 -7.09535e-05 -2.24937e-05      43.3261 
         -50      18.2896 -7.07628e-05 -2.26592e-05      43.3232 
         -50       18.421 -7.05608e-05 -2.27861e-05      43.3202 
         -50      18.5528 -7.03525e-05 -2.28731e-05      43.3173 
         -50      18.6851  -7.0143e-05 -2.29222e-05      43.3143 
         -50      18.8178 -6.99383e-05 -2.29381e-05      43.3113 
         -50      18.9511 -6.97443e-05  -2.2929e-05      43.3083 
         -50      19.0847 -6.95676e-05 -2.29063e-05      43.3052 
         -50      19.2189 -6.94143e-05 -2.28846e-05      43.3021 
         -50      19.3535 -6.92906e-05 -2.28818e-05       43.299 
         -50      19.4886 -6.92013e-05 -2.29196e-05      43.2959 
         -50      19.6242 -6.91505e-05  -2.3023e-05      43.2927 
         -50      19.7602 -6.91395e-05 -2.32208e-05      43.2895 
         -50      19.8968  -6.9167e-05 -2.35458e-05      43.2863 
         -50      20.0337 -6.92276e-05 -2.40341e-05      43.2831 
         -50      20.1712  -6.9311e-05 -2.47274e-05      43.2798 
         -50      20.3091 -6.92786e-05 -2.54168e-05      43.2765 
         -50      20.4475 -6.88192e-05  -2.5266e-05      43.2732 
         -50      20.5864  -6.8356e-05 -2.49834e-05      43.2698 
         -50      20.7257 -6.79166e-05 -2.46269e-05      43.2665 
         -50      20.8655 -6.75299e-05 -2.42893e-05      43.2631 
         -50      21.0058 -6.72276e-05 -2.41039e-05      43.2596 
         -50      21.1465 -6.70409e-05  -2.4247e-05      43.2562 
         -50      21.2877 -6.83247e-05 -2.47097e-05      43.2527 
         -50      21.4294 -6.98012e-05 -2.52889e-05      43.2492 
         -50      21.5716 -6.97373e-05 -2.59872e-05      43.2457 
         -50      21.7142 -6.87211e-05 -2.65742e-05      43.2421 
         -50      21.8573  -6.7137e-05 -2.68415e-05      43.2385 
         -50      22.0008 -6.56517e-05 -2.67922e-05      43.2349 
         -50      22.1449 -6.53001e-05 -2.68508e-05      43.2313 
         -50      22.2893 -6.52876e-05 -2.68076e-05      43.2276 
         -50      22.4344 -6.55054e-05 -2.66966e-05      43.2239 
         -50      22.5797 -6.58501e-05 -2.65564e-05      43.2202 
         -50      22.7257 -6.62299e-05 -2.64247e-05      43.2164 
         -50      22.8721 -6.65668e-05  -2.6335e-05      43.2127 
         -50      23.0189 -6.68009e-05 -2.63122e-05      43.2089 
         -50      23.1663 -6.68927e-05  -2.6371e-05       43.205 
         -50       23.314 -6.68234e-05 -2.65135e-05      43.2012 
         -50      23.4623 -6.65952e-05   -2.673e-05      43.1973 
         -50       23.611 -6.62309e-05 -2.69985e-05      43.1934 
         -50      23.7602 -6.57696e-05 -2.72881e-05      43.1895 
         -50        23.91 -6.52647e-05 -2.75608e-05      43.1855 
         -50        24.06 -6.47783e-05 -2.77773e-05      43.1815 
         -50      24.2107 -6.43725e-05 -2.79032e-05      43.1775 
         -50      24.3617 -6.41039e-05 -2.79159e-05      43.1735 
         -50      24.5133 -6.40107e-05 -2.78148e-05      43.1694 
         -50      24.6653 -6.41026e-05 -2.76321e-05      43.1653 
         -50      24.8178 -6.43464e-05 -2.74457e-05      43.1612 
         -50      24.9708 -6.46495e-05 -2.73948e-05      43.1571 
         -50      25.1242 -6.48423e-05 -2.76957e-05      43.1529 
         -50      25.2781 -6.46586e-05 -2.86625e-05      43.1487 
         -50      25.4324 -6.37129e-05 -3.07254e-05      43.1445 
         -50      25.5873 -6.22499e-05 -3.10292e-05      43.1402 
         -50      25.7426 -6.16128e-05   -3.092e-05       43.136 
         -50      25.8984 -6.16112e-05 -3.07137e-05      43.1316 
         -50      26.0546 -6.20188e-05 -3.04644e-05      43.1273 
         -50      26.2114 -6.26211e-05 -3.01983e-05       43.123 
         -50      26.3686 -6.32281e-05 -2.99292e-05      43.1186 
         -50      26.5262 -6.36856e-05 -2.96704e-05      43.1142 
         -50      26.6844 -6.38854e-05 -2.94434e-05      43.1097 
         -50      26.8429 -6.37691e-05 -2.92867e-05      43.1053 
         -50       27.002  -6.3333e-05 -2.92579e-05      43.1008 
         -50      27.1615 -6.26297e-05 -2.94365e-05      43.0963 
         -50      27.3216 -6.17623e-05 -2.99212e-05      43.0918 
         -50      27.4821 -6.08833e-05 -3.08242e-05      43.0872 
         -50       27.643  -6.0784e-05 -3.09683e-05      43.0826 
         -50      27.8044 -6.10064e-05 -3.06168e-05       43.078 
         -50      27.9663 -6.11528e-05 -3.03989e-05      43.0734 
         -50      28.1287 -6.12337e-05 -3.02837e-05      43.0687 
         -50      28.2914 -6.12585e-05 -3.02454e-05       43.064 
         -50      28.4548  -6.1236e-05  -3.0262e-05      43.0593 
         -50      28.6185 -6.11741e-05 -3.03157e-05      43.0546 
         -50      28.7828 -6.10798e-05  -3.0392e-05      43.0498 
         -50      28.9475 -6.09596e-05 -3.04797e-05       43.045 
         -50      29.1126 -6.08193e-05 -3.05704e-05      43.0402 
         -50      29.2784 -6.06634e-05 -3.06582e-05      43.0354 
         -50      29.4444 -6.04966e-05 -3.07395e-05      43.0305 
         -50       29.611  -6.0322e-05 -3.08126e-05      43.0256 
         -50       29.778 -6.01429e-05 -3.08772e-05      43.0207 
         -50      29.9456 -5.99613e-05 -3.09346e-05      43.0158 
         -50      30.1137  -5.9779e-05 -3.09867e-05      43.0108 
         -50      30.2821 -5.95975e-05 -3.10365e-05      43.0058 
         -50      30.4511 -5.94171e-05 -3.10873e-05      43.0008 
         -50      30.6204 -5.92385e-05 -3.11426e-05      42.9958 
         -50      30.7903 -5.90613e-05  -3.1206e-05      42.9907 
         -50      30.9606 -5.88854e-05 -3.12808e-05      42.9856 
         -50      31.1315 -5.87098e-05 -3.13699e-05      42.9805 
         -50      31.3028 -5.85338e-05 -3.14756e-05      42.9754 
         -50      31.4745 -5.83566e-05 -3.15995e-05      42.9702 
         -50      31.6468 -5.81769e-05 -3.17422e-05      42.9651 
         -50      31.8194 -5.79939e-05 -3.19035e-05      42.9599 
         -50      31.9926 -5.78064e-05  -3.2082e-05      42.9546 
         -50      32.1662 -5.76142e-05 -3.22751e-05      42.9494 
         -50      32.3404 -5.74164e-05 -3.24794e-05      42.9441 
         -50      32.5149 -5.72134e-05 -3.26898e-05      42.9388 
         -50        32.69 -5.70055e-05 -3.29007e-05      42.9335 
         -50      32.8655 -5.67939e-05 -3.31049e-05      42.9282 
         -50      33.0414 -5.65807e-05 -3.32946e-05      42.9228 
         -50       33.218 -5.63683e-05 -3.34613e-05      42.9174 
         -50      33.3948 -5.61608e-05 -3.35954e-05       42.912 
         -50      33.5723 -5.59628e-05 -3.36877e-05      42.9066 
         -50        33.75 -5.57807e-05 -3.37282e-05      42.9012 
         -50      33.9284 -5.56219e-05 -3.37075e-05      42.8957 
         -50      34.1073 -5.54958e-05 -3.36166e-05      42.8902 
         -50      34.2865 -5.54133e-05 -3.34477e-05      42.8847 
         -50      34.4663 -5.53872e-05 -3.31941e-05      42.8791 
         -50      34.6465 -5.54325e-05 -3.28518e-05      42.8736 
         -50      34.8272 -5.55668e-05 -3.24184e-05       42.868 
         -50      35.0083 -5.53816e-05 -3.26264e-05      42.8624 
         -50        35.19 -5.49259e-05 -3.31783e-05      42.8568 
         -50      35.3721 -5.44671e-05 -3.34321e-05      42.8511 
         -50      35.5546 -5.40383e-05  -3.3329e-05      42.8455 
         -50      35.7377 -5.40028e-05 -3.31694e-05      42.8398 
         -50      35.9211 -5.40574e-05 -3.29861e-05      42.8341 
         -50      36.1052 -5.41885e-05 -3.28268e-05      42.8284 
         -50      36.2895 -5.43825e-05 -3.27275e-05      42.8226 
         -50      36.4745 -5.46266e-05 -3.27119e-05      42.8168 
         -50      36.6598 -5.49075e-05 -3.27934e-05      42.8111 
         -50      36.8457 -5.51701e-05 -3.29626e-05      42.8053 
         -50      37.0321 -5.47002e-05 -3.29533e-05      42.7994 
         -50      37.2188 -5.42322e-05 -3.29324e-05      42.7936 
         -50      37.4062 -5.37751e-05 -3.29036e-05      42.7877 
         -50      37.5938 -5.33369e-05 -3.28712e-05      42.7818 
         -50      37.7821 -5.29223e-05 -3.28399e-05      42.7759 
         -50      37.9707  -5.2536e-05 -3.28148e-05        42.77 
         -50      38.1599 -5.21797e-05 -3.28005e-05      42.7641 
         -50      38.3496 -5.18546e-05 -3.28013e-05      42.7581 
         -50      38.5396 -5.15612e-05 -3.28209e-05      42.7521 
         -50      38.7302 -5.12979e-05 -3.28622e-05      42.7462 
         -50      38.9211 -5.10635e-05 -3.29271e-05      42.7401 
         -50      39.1127 -5.08555e-05 -3.30164e-05      42.7341 
         -50      39.3046 -5.06715e-05 -3.31296e-05      42.7281 
         -50      39.4971 -5.05082e-05 -3.32653e-05       42.722 
         -50      39.6899 -5.03629e-05 -3.34203e-05      42.7159 
         -50      39.8833  -5.0232e-05 -3.35909e-05      42.7098 
         -50      40.0772 -5.01127e-05 -3.37718e-05      42.7037 
         -50      40.2714 -5.00017e-05 -3.39565e-05      42.6976 
         -50      40.4663 -4.98962e-05 -3.41385e-05      42.6914 
         -50      40.6615 -4.97936e-05 -3.43097e-05      42.6853 
         -50      40.8573 -4.96911e-05 -3.44625e-05      42.6791 
         -50      41.0534 -4.95867e-05 -3.45888e-05      42.6729 
         -50      41.2501 -4.94782e-05 -3.46814e-05      42.6667 
         -50      41.4473 -4.93637e-05 -3.47334e-05      42.6604 
         -50      41.6448 -4.92415e-05 -3.47399e-05      42.6542 
         -50      41.8429 -4.91094e-05 -3.46975e-05      42.6479 
         -50      42.0414 -4.89659e-05 -3.46058e-05      42.6417 
         -50      42.2405 -4.88083e-05 -3.44676e-05      42.6354 
         -50      42.4399 -4.86343e-05 -3.42901e-05      42.6291 
         -50      42.6399 -4.84402e-05 -3.40852e-05      42.6227 
         -50      42.8404  -4.8222e-05 -3.38711e-05      42.6164 
         -50      43.0412 -4.79745e-05 -3.36734e-05      42.6101 
         -50      43.2426 -4.76905e-05 -3.35253e-05      42.6037 
         -50      43.4444  -4.7362e-05 -3.34699e-05      42.5973 
         -50      43.6467 -4.69777e-05 -3.35609e-05      42.5909 
         -50      43.8494  -4.6525e-05  -3.3864e-05      42.5845 
         -50      44.0527 -4.59869e-05 -3.44596e-05      42.5781 
         -50      44.2563 -4.53747e-05 -3.53951e-05      42.5717 
         -50      44.4606 -4.59024e-05 -3.46007e-05      42.5652 
         -50      44.6653  -4.6217e-05 -3.39608e-05      42.5588 
         -50      44.8704 -4.63477e-05 -3.34682e-05      42.5523 
         -50       45.076 -4.63279e-05 -3.31109e-05      42.5458 
         -50       45.282 -4.61939e-05 -3.28746e-05      42.5393 
         -50      45.4886 -4.59839e-05   -3.274e-05      42.5328 
         -50      45.6955 -4.57382e-05 -3.26844e-05      42.5263 
         -50       45.903 -4.54971e-05 -3.26803e-05      42.5198 
         -50      46.1111 -4.53011e-05  -3.2696e-05      42.5132 
         -50      46.3194 -4.51898e-05  -3.2695e-05      42.5067 
         -50      46.5283 -4.52003e-05 -3.26362e-05      42.5001 
         -50      46.7376  -4.5367e-05 -3.24736e-05      42.4935 
         -50      46.9475 -4.57207e-05 -3.21556e-05       42.487 
         -50      47.1577 -4.62866e-05 -3.16264e-05      42.4804 
         -50      47.3685 -4.65827e-05 -3.11584e-05      42.4737 
         -50      47.5798 -4.61413e-05 -3.11838e-05      42.4671 
         -50      47.7914 -4.57419e-05 -3.12383e-05      42.4605 
         -50      48.0037 -4.53753e-05 -3.13118e-05      42.4539 