Variables = x, y, u, v, p

Zone, I=800, F=POINT
         -25            0 -3.44526e-19 -1.60678e-23     -84.9513 
         -25     0.000234 -1.70743e-05 -8.09598e-10     -84.9513 
         -25     0.000939 -6.43983e-05  -3.2125e-09     -84.9513 
         -25     0.002113 -0.000130598 -7.10907e-09     -84.9513 
         -25     0.003759 -0.000200513 -1.24036e-08     -84.9513 
         -25     0.005872 -0.000258801 -1.90223e-08     -84.9513 
         -25     0.008457 -0.000294855 -2.70306e-08     -84.9513 
         -25      0.01151  -0.00030524 -3.66145e-08     -84.9513 
         -25     0.015036 -0.000294773 -4.81458e-08     -84.9513 
         -25     0.019031 -0.000274516 -6.20919e-08     -84.9513 
         -25     0.023493 -0.000257471 -7.89787e-08     -84.9513 
         -25     0.028429 -0.000253056 -9.93331e-08     -84.9513 
         -25     0.033831 -0.000262577 -1.23508e-07     -84.9513 
         -25     0.039706 -0.000277974 -1.51776e-07     -84.9513 
         -25     0.046047  -0.00028594 -1.84241e-07     -84.9513 
         -25     0.052863 -0.000277584 -2.21117e-07     -84.9513 
         -25      0.06015 -0.000259608 -2.62744e-07     -84.9513 
         -25       0.0679  -0.00025618  -3.0967e-07     -84.9513 
         -25     0.076126 -0.000279243 -3.62449e-07     -84.9513 
         -25     0.084816 -0.000256527 -4.20342e-07     -84.9513 
         -25     0.093982 -0.000263648 -4.84087e-07     -84.9513 
         -25     0.103611 -0.000265025 -5.53388e-07     -84.9513 
         -25     0.113718 -0.000263626 -6.28458e-07     -84.9513 
         -25     0.124286 -0.000261571 -7.09134e-07     -84.9513 
         -25     0.135333 -0.000260035 -7.95389e-07     -84.9513 
         -25      0.14685 -0.000259325 -8.86891e-07     -84.9513 
         -25     0.158827 -0.000259107 -9.83236e-07     -84.9513 
         -25     0.171284 -0.000258774 -1.08426e-06     -84.9513 
         -25     0.184201 -0.000257879 -1.18949e-06     -84.9513 
         -25     0.197599 -0.000256495 -1.29889e-06     -84.9513 
         -25     0.211455 -0.000255312 -1.41203e-06     -84.9513 
         -25     0.225792 -0.000255131 -1.52877e-06     -84.9512 
         -25       0.2406 -0.000255389 -1.64832e-06     -84.9512 
         -25     0.255865 -0.000253895  -1.7692e-06     -84.9512 
         -25     0.271613 -0.000253767 -1.89305e-06     -84.9512 
         -25     0.287818 -0.000253564 -2.02024e-06     -84.9512 
         -25     0.304506 -0.000253353 -2.15042e-06     -84.9512 
         -25      0.32165 -0.000253184 -2.28236e-06     -84.9512 
         -25     0.339278 -0.000253092 -2.41486e-06     -84.9512 
         -25     0.357377 -0.000253093 -2.54617e-06     -84.9512 
         -25      0.37593 -0.000253188 -2.67449e-06     -84.9512 
         -25     0.394968  -0.00025337 -2.79848e-06     -84.9512 
         -25     0.414461 -0.000253623 -2.91677e-06     -84.9512 
         -25      0.43444 -0.000253931 -3.02902e-06     -84.9512 
         -25     0.454872 -0.000254277 -3.13531e-06     -84.9512 
         -25     0.475791 -0.000254656 -3.23705e-06     -84.9512 
         -25     0.497163 -0.000255066 -3.33632e-06     -84.9511 
         -25     0.519021 -0.000255515 -3.43646e-06     -84.9511 
         -25      0.54135 -0.000256013 -3.54119e-06     -84.9511 
         -25     0.564131 -0.000256558 -3.65423e-06     -84.9511 
         -25       0.5874 -0.000257119 -3.77861e-06     -84.9511 
         -25     0.611121 -0.000257615 -3.92042e-06     -84.9511 
         -25      0.63533 -0.000258172 -4.11396e-06     -84.9511 
         -25      0.65999 -0.000258727 -4.28739e-06      -84.951 
         -25     0.685139 -0.000259277 -4.44349e-06      -84.951 
         -25     0.710759 -0.000259818 -4.58444e-06      -84.951 
         -25     0.736828 -0.000260348 -4.71223e-06      -84.951 
         -25     0.763387 -0.000260864 -4.82893e-06      -84.951 
         -25     0.790396 -0.000261365 -4.93606e-06     -84.9509 
         -25     0.817896 -0.000261851 -5.03528e-06     -84.9509 
         -25     0.845843 -0.000262319 -5.12775e-06     -84.9509 
         -25     0.874283 -0.000262772 -5.21484e-06     -84.9509 
         -25      0.90317  -0.00026321 -5.29752e-06     -84.9508 
         -25     0.932551 -0.000263634 -5.37696e-06     -84.9508 
         -25     0.962401 -0.000264046 -5.45412e-06     -84.9508 
         -25     0.992697 -0.000264448 -5.52993e-06     -84.9507 
         -25      1.02349 -0.000264844 -5.60555e-06     -84.9507 
         -25      1.05472 -0.000265236  -5.6819e-06     -84.9507 
         -25      1.08645 -0.000265629 -5.76014e-06     -84.9506 
         -25      1.11863 -0.000266024 -5.84112e-06     -84.9506 
         -25       1.1513 -0.000266425 -5.92583e-06     -84.9506 
         -25      1.18444 -0.000266836 -6.01477e-06     -84.9505 
         -25      1.21802 -0.000267256 -6.10799e-06     -84.9505 
         -25      1.25211 -0.000267689 -6.20506e-06     -84.9504 
         -25      1.28663 -0.000268133 -6.30414e-06     -84.9504 
         -25      1.32165 -0.000268587 -6.40226e-06     -84.9503 
         -25      1.35712 -0.000269047 -6.49403e-06     -84.9503 
         -25      1.39308 -0.000269508 -6.57161e-06     -84.9502 
         -25      1.42951 -0.000269961 -6.62331e-06     -84.9502 
         -25      1.46638 -0.000270392 -6.63289e-06     -84.9501 
         -25      1.50375 -0.000270789 -6.57819e-06     -84.9501 
         -25      1.54156  -0.00027102 -6.72555e-06       -84.95 
         -25      1.57987 -0.000271559  -6.8615e-06     -84.9499 
         -25      1.61863 -0.000272335 -6.96515e-06     -84.9499 
         -25      1.65788 -0.000273262 -7.03722e-06     -84.9498 
         -25      1.69757 -0.000274267 -7.07957e-06     -84.9497 
         -25      1.73776 -0.000275291 -7.09559e-06     -84.9497 
         -25      1.77842 -0.000276282 -7.08978e-06     -84.9496 
         -25      1.81952 -0.000277204 -7.06791e-06     -84.9495 
         -25      1.86113 -0.000278032 -7.03672e-06     -84.9494 
         -25      1.90316 -0.000278749 -7.00392e-06     -84.9493 
         -25      1.94571 -0.000279352 -6.97789e-06     -84.9492 
         -25      1.98869 -0.000279843 -6.96769e-06     -84.9492 
         -25      2.03217 -0.000280238  -6.9827e-06     -84.9491 
         -25      2.07612 -0.000280555 -7.03258e-06      -84.949 
         -25      2.12051 -0.000280823 -7.12681e-06     -84.9489 
         -25       2.1654 -0.000281072 -7.27491e-06     -84.9488 
         -25      2.21073 -0.000281337 -7.48552e-06     -84.9487 
         -25      2.25656 -0.000281657 -7.76716e-06     -84.9485 
         -25      2.30283 -0.000282068 -8.12662e-06     -84.9484 
         -25       2.3496 -0.000282608 -8.57051e-06     -84.9483 
         -25      2.39685  -0.00028331 -9.10326e-06     -84.9482 
         -25      2.44452 -0.000284202 -9.72737e-06     -84.9481 
         -25      2.49271 -0.000285309  -1.0445e-05     -84.9479 
         -25      2.54132 -0.000286645 -1.12544e-05     -84.9478 
         -25      2.59044  -0.00028822 -1.21538e-05     -84.9477 
         -25         2.64 -0.000290027 -1.31368e-05     -84.9475 
         -25      2.69006 -0.000292056 -1.41975e-05     -84.9474 
         -25      2.74056 -0.000294278 -1.53245e-05     -84.9473 
         -25      2.79156 -0.000296658 -1.65077e-05     -84.9471 
         -25      2.84304 -0.000299147 -1.77323e-05     -84.9469 
         -25      2.89494 -0.000301681 -1.89814e-05     -84.9468 
         -25      2.94735 -0.000304195 -2.02399e-05     -84.9466 
         -25       3.0002 -0.000306606 -2.14873e-05     -84.9465 
         -25      3.05355 -0.000308835  -2.2707e-05     -84.9463 
         -25      3.10733 -0.000310793 -2.38784e-05     -84.9461 
         -25      3.16163 -0.000312402 -2.49863e-05     -84.9459 
         -25      3.21639 -0.000313586 -2.60145e-05     -84.9457 
         -25      3.27158 -0.000314288 -2.69511e-05     -84.9455 
         -25      3.32729 -0.000314474 -2.77911e-05     -84.9454 
         -25      3.38342 -0.000314146 -2.85336e-05     -84.9451 
         -25      3.44007  -0.00031335 -2.91893e-05     -84.9449 
         -25      3.49714 -0.000312192 -2.97777e-05     -84.9447 
         -25      3.55472 -0.000310854 -3.03343e-05     -84.9445 
         -25      3.61273 -0.000309611 -3.09095e-05     -84.9443 
         -25      3.67125 -0.000308851 -3.15759e-05     -84.9441 
         -25      3.73025 -0.000309102 -3.24292e-05     -84.9438 
         -25      3.78967 -0.000309089 -3.30997e-05     -84.9436 
         -25      3.84961 -0.000308337 -3.36933e-05     -84.9433 
         -25      3.90996 -0.000307507 -3.43775e-05     -84.9431 
         -25      3.97084 -0.000306634 -3.51192e-05     -84.9428 
         -25      4.03214 -0.000305746 -3.58903e-05     -84.9426 
         -25      4.09395  -0.00030486 -3.66716e-05     -84.9423 
         -25      4.15624 -0.000303992  -3.7447e-05      -84.942 
         -25      4.21895 -0.000303148 -3.82053e-05     -84.9418 
         -25      4.28217 -0.000302331 -3.89401e-05     -84.9415 
         -25      4.34582 -0.000301542 -3.96454e-05     -84.9412 
         -25      4.40998 -0.000300778  -4.0319e-05     -84.9409 
         -25      4.47457 -0.000300036 -4.09574e-05     -84.9406 
         -25      4.53968 -0.000299312 -4.15594e-05     -84.9403 
         -25      4.60525 -0.000298602 -4.21217e-05     -84.9399 
         -25      4.67125 -0.000297904 -4.26405e-05     -84.9396 
         -25      4.73777 -0.000297217 -4.31122e-05     -84.9393 
         -25       4.8047 -0.000296542 -4.35304e-05     -84.9389 
         -25      4.87216 -0.000295879 -4.38894e-05     -84.9386 
         -25      4.94003 -0.000295231 -4.41819e-05     -84.9382 
         -25      5.00843 -0.000294602 -4.44024e-05     -84.9379 
         -25      5.07724 -0.000293993 -4.45461e-05     -84.9375 
         -25      5.14658 -0.000293404 -4.46122e-05     -84.9371 
         -25      5.21639 -0.000292829 -4.46049e-05     -84.9367 
         -25      5.28661 -0.000292257 -4.45369e-05     -84.9363 
         -25      5.35736 -0.000291665 -4.44315e-05     -84.9359 
         -25      5.42852 -0.000291033 -4.44853e-05     -84.9355 
         -25      5.50021 -0.000290378 -4.45918e-05     -84.9351 
         -25      5.57231 -0.000289707 -4.43361e-05     -84.9347 
         -25      5.64493 -0.000289046 -4.43052e-05     -84.9342 
         -25      5.71803 -0.000288438 -4.48352e-05     -84.9338 
         -25      5.79154 -0.000287862 -4.50154e-05     -84.9333 
         -25      5.86558 -0.000287294 -4.49884e-05     -84.9329 
         -25      5.94003 -0.000286722 -4.48628e-05     -84.9324 
         -25      6.01501  -0.00028614 -4.47163e-05     -84.9319 
         -25       6.0904 -0.000285549 -4.46009e-05     -84.9315 
         -25      6.16632 -0.000284951 -4.45456e-05      -84.931 
         -25      6.24271 -0.000284356 -4.45613e-05     -84.9305 
         -25       6.3195 -0.000283773 -4.46045e-05     -84.9299 
         -25      6.39683 -0.000283215 -4.46332e-05     -84.9294 
         -25      6.47457 -0.000282697 -4.46674e-05     -84.9289 
         -25      6.55284 -0.000282224 -4.46795e-05     -84.9283 
         -25      6.63152 -0.000281803 -4.46507e-05     -84.9278 
         -25      6.71073  -0.00028143 -4.45729e-05     -84.9272 
         -25      6.79034 -0.000281102 -4.44498e-05     -84.9267 
         -25      6.87049 -0.000280808 -4.42964e-05     -84.9261 
         -25      6.95111 -0.000280535 -4.41385e-05     -84.9255 
         -25      7.03214 -0.000280268 -4.40096e-05     -84.9249 
         -25       7.1137 -0.000279988 -4.39466e-05     -84.9243 
         -25      7.19566 -0.000279679 -4.39851e-05     -84.9236 
         -25      7.27816 -0.000279324 -4.41512e-05      -84.923 
         -25      7.36106 -0.000278912 -4.44522e-05     -84.9224 
         -25      7.44451 -0.000278438 -4.48661e-05     -84.9217 
         -25      7.52842 -0.000277909  -4.5326e-05      -84.921 
         -25      7.61273 -0.000277344  -4.5705e-05     -84.9204 
         -25      7.69758 -0.000276781 -4.57974e-05     -84.9197 
         -25      7.78283 -0.000276283 -4.52954e-05      -84.919 
         -25      7.86862  -0.00027602  -4.4834e-05     -84.9182 
         -25      7.95481 -0.000275849 -4.56518e-05     -84.9175 
         -25      8.04155 -0.000275457 -4.71175e-05     -84.9168 
         -25      8.12868 -0.000275044 -4.82393e-05      -84.916 
         -25      8.21635 -0.000275092 -4.75453e-05     -84.9153 
         -25      8.30449 -0.000275031 -4.70862e-05     -84.9145 
         -25      8.39303  -0.00027486 -4.68139e-05     -84.9137 
         -25      8.48211 -0.000274579 -4.66892e-05     -84.9129 
         -25      8.57159 -0.000274185 -4.66823e-05     -84.9121 
         -25      8.66161 -0.000273677  -4.6772e-05     -84.9113 
         -25      8.75203 -0.000273052 -4.69447e-05     -84.9105 
         -25      8.84299 -0.000272587 -4.67071e-05     -84.9096 
         -25      8.93443 -0.000272254 -4.62183e-05     -84.9087 
         -25      9.02626  -0.00027194 -4.57153e-05     -84.9079 
         -25      9.11863 -0.000271643 -4.52165e-05      -84.907 
         -25      9.21139  -0.00027136 -4.47395e-05     -84.9061 
         -25      9.30471 -0.000271085 -4.42972e-05     -84.9052 
         -25      9.39841 -0.000270814 -4.39013e-05     -84.9042 
         -25      9.49267 -0.000270542 -4.35594e-05     -84.9033 
         -25      9.58739 -0.000270264  -4.3277e-05     -84.9023 
         -25      9.68251 -0.000269977 -4.30563e-05     -84.9014 
         -25      9.77817 -0.000269681 -4.28968e-05     -84.9004 
         -25      9.87422 -0.000269374 -4.27955e-05     -84.8994 
         -25      9.97083  -0.00026906 -4.27472e-05     -84.8984 
         -25      10.0678 -0.000268742 -4.27449e-05     -84.8973 
         -25      10.1654 -0.000268425 -4.27805e-05     -84.8963 
         -25      10.2633 -0.000268119 -4.28451e-05     -84.8952 
         -25      10.3618  -0.00026783 -4.29299e-05     -84.8942 
         -25      10.4607 -0.000267568 -4.30275e-05     -84.8931 
         -25      10.5601 -0.000267343 -4.31321e-05      -84.892 
         -25        10.66  -0.00026716 -4.32417e-05     -84.8909 
         -25      10.7603 -0.000267026 -4.33587e-05     -84.8897 
         -25      10.8611  -0.00026694 -4.34919e-05     -84.8886 
         -25      10.9623 -0.000266899 -4.36579e-05     -84.8874 
         -25      11.0641 -0.000266889 -4.38836e-05     -84.8862 
         -25      11.1663 -0.000266888 -4.40837e-05      -84.885 
         -25       11.269 -0.000266697 -4.41661e-05     -84.8838 
         -25      11.3721 -0.000266335 -4.43068e-05     -84.8826 
         -25      11.4757 -0.000265908  -4.4479e-05     -84.8814 
         -25      11.5798 -0.000265493 -4.46667e-05     -84.8801 
         -25      11.6844 -0.000265144 -4.48615e-05     -84.8788 
         -25      11.7894 -0.000264889  -4.5061e-05     -84.8775 
         -25       11.895 -0.000264734 -4.52647e-05     -84.8762 
         -25      12.0009 -0.000264667 -4.54729e-05     -84.8749 
         -25      12.1073  -0.00026466 -4.56838e-05     -84.8735 
         -25      12.2142  -0.00026467 -4.58906e-05     -84.8722 
         -25      12.3216 -0.000264644 -4.60801e-05     -84.8708 
         -25      12.4294 -0.000264522   -4.623e-05     -84.8694 
         -25      12.5378 -0.000264238 -4.63071e-05      -84.868 
         -25      12.6465 -0.000263724 -4.62658e-05     -84.8665 
         -25      12.7558 -0.000263156 -4.62587e-05     -84.8651 
         -25      12.8656 -0.000263025 -4.64598e-05     -84.8636 
         -25      12.9757 -0.000262975 -4.65051e-05     -84.8621 
         -25      13.0864 -0.000262972 -4.64532e-05     -84.8606 
         -25      13.1975 -0.000262984 -4.63539e-05     -84.8591 
         -25      13.3092  -0.00026298  -4.6247e-05     -84.8575 
         -25      13.4212 -0.000262934 -4.61619e-05      -84.856 
         -25      13.5338 -0.000262826 -4.61169e-05     -84.8544 
         -25      13.6468 -0.000262643 -4.61193e-05     -84.8528 
         -25      13.7603  -0.00026238 -4.61665e-05     -84.8512 
         -25      13.8743  -0.00026204 -4.62463e-05     -84.8495 
         -25      13.9886 -0.000261641 -4.63389e-05     -84.8479 
         -25      14.1036 -0.000261214 -4.64197e-05     -84.8462 
         -25      14.2189 -0.000260804 -4.64609e-05     -84.8445 
         -25      14.3348 -0.000260477 -4.64365e-05     -84.8428 
         -25       14.451 -0.000260319 -4.63257e-05      -84.841 
         -25      14.5678 -0.000260439 -4.61183e-05     -84.8393 
         -25      14.6851 -0.000260579 -4.62872e-05     -84.8375 
         -25      14.8028 -0.000260572 -4.65471e-05     -84.8357 
         -25       14.921 -0.000260508 -4.67391e-05     -84.8339 
         -25      15.0396 -0.000260396 -4.68821e-05      -84.832 
         -25      15.1588 -0.000260248 -4.69923e-05     -84.8302 
         -25      15.2783  -0.00026007 -4.70826e-05     -84.8283 
         -25      15.3984  -0.00025987 -4.71632e-05     -84.8264 
         -25       15.519 -0.000259652  -4.7242e-05     -84.8245 
         -25        15.64 -0.000259421 -4.73249e-05     -84.8225 
         -25      15.7615 -0.000259181 -4.74159e-05     -84.8205 
         -25      15.8834 -0.000258935 -4.75174e-05     -84.8185 
         -25      16.0058 -0.000258685  -4.7631e-05     -84.8165 
         -25      16.1286 -0.000258435 -4.77567e-05     -84.8145 
         -25       16.252 -0.000258188 -4.78941e-05     -84.8124 
         -25      16.3759 -0.000257945 -4.80422e-05     -84.8104 
         -25      16.5002  -0.00025771 -4.81993e-05     -84.8083 
         -25       16.625 -0.000257485 -4.83636e-05     -84.8061 
         -25      16.7501 -0.000257273 -4.85329e-05      -84.804 
         -25      16.8759 -0.000257076 -4.87053e-05     -84.8018 
         -25       17.002 -0.000256897 -4.88782e-05     -84.7996 
         -25      17.1287 -0.000256737 -4.90493e-05     -84.7974 
         -25      17.2557 -0.000256597 -4.92158e-05     -84.7952 
         -25      17.3834 -0.000256477 -4.93748e-05     -84.7929 
         -25      17.5115 -0.000256376 -4.95229e-05     -84.7906 
         -25      17.6399 -0.000256289 -4.96556e-05     -84.7883 
         -25       17.769 -0.000256212  -4.9768e-05      -84.786 
         -25      17.8984 -0.000255957 -4.97988e-05     -84.7836 
         -25      18.0284 -0.000255521 -4.97533e-05     -84.7813 
         -25      18.1587 -0.000255087 -4.96953e-05     -84.7789 
         -25      18.2896 -0.000254688 -4.96475e-05     -84.7764 
         -25       18.421 -0.000254376 -4.96471e-05      -84.774 
         -25      18.5528 -0.000254217 -4.97476e-05     -84.7715 
         -25      18.6851 -0.000254304 -5.00218e-05      -84.769 
         -25      18.8178 -0.000254757 -5.05626e-05     -84.7665 
         -25      18.9511 -0.000254754 -5.06641e-05     -84.7639 
         -25      19.0847 -0.000254548 -5.06344e-05     -84.7614 
         -25      19.2189 -0.000254439 -5.07297e-05     -84.7588 
         -25      19.3535 -0.000254424 -5.09404e-05     -84.7561 
         -25      19.4886 -0.000254503 -5.12653e-05     -84.7535 
         -25      19.6242 -0.000254433 -5.15587e-05     -84.7508 
         -25      19.7602 -0.000253961 -5.15946e-05     -84.7481 
         -25      19.8968  -0.00025351 -5.16193e-05     -84.7454 
         -25      20.0337 -0.000253093 -5.16612e-05     -84.7426 
         -25      20.1712 -0.000252716 -5.17401e-05     -84.7399 
         -25      20.3091 -0.000252383 -5.18681e-05     -84.7371 
         -25      20.4475 -0.000252094 -5.20508e-05     -84.7342 
         -25      20.5864 -0.000251849  -5.2288e-05     -84.7314 
         -25      20.7257 -0.000251643 -5.25753e-05     -84.7285 
         -25      20.8655  -0.00025147 -5.29051e-05     -84.7256 
         -25      21.0058 -0.000251323 -5.32668e-05     -84.7226 
         -25      21.1465 -0.000251194 -5.36493e-05     -84.7197 
         -25      21.2877 -0.000251074 -5.40396e-05     -84.7167 
         -25      21.4294 -0.000250955 -5.44261e-05     -84.7137 
         -25      21.5716 -0.000250827  -5.4797e-05     -84.7107 
         -25      21.7142 -0.000250684 -5.51423e-05     -84.7076 
         -25      21.8573 -0.000250518 -5.54545e-05     -84.7045 
         -25      22.0008 -0.000250324 -5.57277e-05     -84.7014 
         -25      22.1449 -0.000250099 -5.59598e-05     -84.6982 
         -25      22.2893 -0.000249842 -5.61506e-05     -84.6951 
         -25      22.4344 -0.000249554 -5.63039e-05     -84.6918 
         -25      22.5797 -0.000249241  -5.6426e-05     -84.6886 
         -25      22.7257 -0.000248909 -5.65265e-05     -84.6854 
         -25      22.8721 -0.000248571 -5.66173e-05     -84.6821 
         -25      23.0189 -0.000248244 -5.67124e-05     -84.6788 
         -25      23.1663 -0.000247945 -5.68275e-05     -84.6754 
         -25       23.314 -0.000247702 -5.69786e-05     -84.6721 
         -25      23.4623 -0.000247541 -5.71815e-05     -84.6687 
         -25       23.611 -0.000247499 -5.74502e-05     -84.6652 
         -25      23.7602 -0.000247413 -5.76324e-05     -84.6618 
         -25        23.91  -0.00024711 -5.77229e-05     -84.6583 
         -25        24.06 -0.000246792 -5.78948e-05     -84.6548 
         -25      24.2107 -0.000246476 -5.81183e-05     -84.6513 
         -25      24.3617 -0.000246174 -5.83705e-05     -84.6477 
         -25      24.5133 -0.000245893 -5.86352e-05     -84.6441 
         -25      24.6653 -0.000245637 -5.89007e-05     -84.6405 
         -25      24.8178 -0.000245406 -5.91607e-05     -84.6368 
         -25      24.9708   -0.0002452 -5.94115e-05     -84.6331 
         -25      25.1242 -0.000245013 -5.96524e-05     -84.6294 
         -25      25.2781 -0.000244841 -5.98848e-05     -84.6257 
         -25      25.4324 -0.000244677  -6.0111e-05     -84.6219 
         -25      25.5873 -0.000244516 -6.03342e-05     -84.6181 
         -25      25.7426 -0.000244351 -6.05571e-05     -84.6143 
         -25      25.8984 -0.000244177 -6.07826e-05     -84.6105 
         -25      26.0546 -0.000243988 -6.10118e-05     -84.6066 
         -25      26.2114 -0.000243781 -6.12457e-05     -84.6027 
         -25      26.3686 -0.000243553  -6.1483e-05     -84.5987 
         -25      26.5262 -0.000243303  -6.1721e-05     -84.5948 
         -25      26.6844  -0.00024303  -6.1956e-05     -84.5908 
         -25      26.8429 -0.000242738 -6.21822e-05     -84.5867 
         -25       27.002 -0.000242427 -6.23932e-05     -84.5827 
         -25      27.1615 -0.000242103 -6.25814e-05     -84.5786 
         -25      27.3216  -0.00024177 -6.27394e-05     -84.5745 
         -25      27.4821 -0.000241432 -6.28597e-05     -84.5703 
         -25       27.643 -0.000241096 -6.29361e-05     -84.5661 
         -25      27.8044 -0.000240765  -6.2965e-05     -84.5619 
         -25      27.9663 -0.000240442 -6.29458e-05     -84.5577 
         -25      28.1287 -0.000240127 -6.28828e-05     -84.5534 
         -25      28.2914 -0.000239819 -6.27865e-05     -84.5491 
         -25      28.4548 -0.000239509 -6.26755e-05     -84.5448 
         -25      28.6185 -0.000239185 -6.25783e-05     -84.5405 
         -25      28.7828 -0.000238835 -6.29574e-05     -84.5361 
         -25      28.9475 -0.000238138 -6.43355e-05     -84.5316 
         -25      29.1126  -0.00023678 -6.61279e-05     -84.5272 
         -25      29.2784 -0.000238183 -6.55302e-05     -84.5227 
         -25      29.4444 -0.000239036 -6.46267e-05     -84.5182 
         -25       29.611 -0.000239097 -6.44277e-05     -84.5137 
         -25       29.778  -0.00023893 -6.46621e-05     -84.5091 
         -25      29.9456 -0.000238615 -6.50316e-05     -84.5045 
         -25      30.1137 -0.000238215 -6.54378e-05     -84.4999 
         -25      30.2821 -0.000237778 -6.58184e-05     -84.4952 
         -25      30.4511 -0.000237331  -6.6141e-05     -84.4905 
         -25      30.6204 -0.000236893 -6.63947e-05     -84.4858 
         -25      30.7903 -0.000236471 -6.65855e-05     -84.4811 
         -25      30.9606 -0.000236068 -6.67297e-05     -84.4763 
         -25      31.1315 -0.000235679 -6.68498e-05     -84.4715 
         -25      31.3028 -0.000235302 -6.69695e-05     -84.4667 
         -25      31.4745 -0.000234929 -6.71102e-05     -84.4618 
         -25      31.6468 -0.000234557 -6.72888e-05     -84.4569 
         -25      31.8194 -0.000234182 -6.75141e-05      -84.452 
         -25      31.9926 -0.000233806 -6.77874e-05      -84.447 
         -25      32.1662  -0.00023343 -6.81002e-05      -84.442 
         -25      32.3404 -0.000233061 -6.84363e-05      -84.437 
         -25      32.5149 -0.000232706 -6.87719e-05     -84.4319 
         -25        32.69 -0.000232372 -6.90797e-05     -84.4269 
         -25      32.8655 -0.000232067 -6.93309e-05     -84.4218 
         -25      33.0414 -0.000231796 -6.95008e-05     -84.4166 
         -25       33.218 -0.000231556 -6.95752e-05     -84.4114 
         -25      33.3948 -0.000231336  -6.9557e-05     -84.4062 
         -25      33.5723 -0.000231111 -6.94751e-05      -84.401 
         -25        33.75 -0.000230838 -6.93943e-05     -84.3957 
         -25      33.9284 -0.000230451 -6.94269e-05     -84.3905 
         -25      34.1073 -0.000229852  -6.9746e-05     -84.3851 
         -25      34.2865 -0.000228911 -7.05986e-05     -84.3798 
         -25      34.4663 -0.000227981 -7.18238e-05     -84.3744 
         -25      34.6465 -0.000228619 -7.15035e-05      -84.369 
         -25      34.8272 -0.000228763 -7.13152e-05     -84.3635 
         -25      35.0083 -0.000228574 -7.12515e-05     -84.3581 
         -25        35.19 -0.000228181 -7.12973e-05     -84.3526 
         -25      35.3721 -0.000227685 -7.14324e-05      -84.347 
         -25      35.5546 -0.000227161 -7.16326e-05     -84.3415 
         -25      35.7377  -0.00022666 -7.18717e-05     -84.3359 
         -25      35.9211 -0.000226213 -7.21228e-05     -84.3303 
         -25      36.1052 -0.000225834 -7.23607e-05     -84.3246 
         -25      36.2895 -0.000225525 -7.25622e-05     -84.3189 
         -25      36.4745 -0.000225273 -7.27096e-05     -84.3132 
         -25      36.6598 -0.000225061 -7.27909e-05     -84.3075 
         -25      36.8457 -0.000224863 -7.28025e-05     -84.3017 
         -25      37.0321 -0.000224651 -7.27501e-05     -84.2959 
         -25      37.2188 -0.000224398 -7.26514e-05     -84.2901 
         -25      37.4062 -0.000224078 -7.25368e-05     -84.2843 
         -25      37.5938 -0.000223669 -7.24518e-05     -84.2784 
         -25      37.7821 -0.000223156 -7.24586e-05     -84.2725 
         -25      37.9707 -0.000222535 -7.26375e-05     -84.2665 
         -25      38.1599  -0.00022181 -7.30892e-05     -84.2605 
         -25      38.3496    -0.000221  -7.3936e-05     -84.2545 
         -25      38.5396 -0.000220786 -7.45729e-05     -84.2485 
         -25      38.7302 -0.000221212 -7.44217e-05     -84.2425 
         -25      38.9211 -0.000221347 -7.43271e-05     -84.2364 
         -25      39.1127 -0.000221227 -7.42853e-05     -84.2302 
         -25      39.3046 -0.000220901 -7.42996e-05     -84.2241 
         -25      39.4971 -0.000220418  -7.4376e-05     -84.2179 
         -25      39.6899 -0.000219833 -7.45188e-05     -84.2117 
         -25      39.8833 -0.000219203 -7.47258e-05     -84.2055 
         -25      40.0772 -0.000218586 -7.49817e-05     -84.1992 
         -25      40.2714 -0.000218036 -7.52523e-05      -84.193 
         -25      40.4663   -0.0002176 -7.54783e-05     -84.1866 
         -25      40.6615 -0.000217321 -7.55663e-05     -84.1803 
         -25      40.8573 -0.000217224  -7.5382e-05     -84.1739 
         -25      41.0534 -0.000217307 -7.51542e-05     -84.1675 
         -25      41.2501 -0.000217281 -7.53335e-05     -84.1611 
         -25      41.4473 -0.000217094 -7.55175e-05     -84.1547 
         -25      41.6448 -0.000216784 -7.56948e-05     -84.1482 
         -25      41.8429 -0.000216384 -7.58572e-05     -84.1417 
         -25      42.0414 -0.000215924 -7.59985e-05     -84.1352 
         -25      42.2405 -0.000215425 -7.61152e-05     -84.1286 
         -25      42.4399 -0.000214908 -7.62054e-05      -84.122 
         -25      42.6399 -0.000214386 -7.62691e-05     -84.1154 
         -25      42.8404 -0.000213871 -7.63073e-05     -84.1087 
         -25      43.0412 -0.000213371 -7.63223e-05     -84.1021 
         -25      43.2426  -0.00021289 -7.63172e-05     -84.0954 
         -25      43.4444 -0.000212433 -7.62956e-05     -84.0887 
         -25      43.6467 -0.000211998 -7.62615e-05     -84.0819 
         -25      43.8494 -0.000211586 -7.62191e-05     -84.0752 
         -25      44.0527 -0.000211194 -7.61726e-05     -84.0684 
         -25      44.2563 -0.000210819  -7.6126e-05     -84.0615 
         -25      44.4606 -0.000210455 -7.60829e-05     -84.0547 
         -25      44.6653   -0.0002101 -7.60467e-05     -84.0478 
         -25      44.8704 -0.000209747 -7.60202e-05     -84.0409 
         -25       45.076 -0.000209393 -7.60054e-05      -84.034 
         -25       45.282 -0.000209033 -7.60041e-05      -84.027 
         -25      45.4886 -0.000208662 -7.60172e-05     -84.0201 
         -25      45.6955 -0.000208279 -7.60452e-05     -84.0131 
         -25       45.903  -0.00020788 -7.60881e-05      -84.006 
         -25      46.1111 -0.000207465 -7.61452e-05      -83.999 
         -25      46.3194 -0.000207032 -7.62158e-05     -83.9919 
         -25      46.5283 -0.000206583  -7.6299e-05     -83.9848 
         -25      46.7376 -0.000206119 -7.63939e-05     -83.9777 
         -25      46.9475 -0.000205644 -7.64999e-05     -83.9705 
         -25      47.1577 -0.000205161 -7.66171e-05     -83.9634 
         -25      47.3685 -0.000204676 -7.67464e-05     -83.9562 
         -25      47.5798 -0.000204194 -7.68901e-05      -83.949 
         -25      47.7914 -0.000203723  -7.7052e-05     -83.9417 
         -25      48.0037 -0.000203309 -7.72318e-05     -83.9345 