Variables = x, y, u, v, p

Zone, I=800, F=POINT
         -10            0 -1.01977e-19 -2.66857e-24     -61.1824 
         -10     0.000234 -5.04981e-06 -1.28989e-10     -61.1824 
         -10     0.000939 -1.89993e-05 -4.46054e-10     -61.1824 
         -10     0.002113 -3.83655e-05 -7.42608e-10     -61.1824 
         -10     0.003759 -5.85299e-05 -6.94431e-10     -61.1824 
         -10     0.005872 -7.48799e-05  1.11466e-10     -61.1824 
         -10     0.008457 -8.43208e-05  2.14974e-09     -61.1824 
         -10      0.01151 -8.60253e-05  5.92555e-09     -61.1824 
         -10     0.015036 -8.17127e-05  1.19753e-08     -61.1824 
         -10     0.019031 -7.49704e-05  2.08437e-08     -61.1824 
         -10     0.023493 -6.98495e-05  3.31047e-08     -61.1824 
         -10     0.028429 -6.91182e-05   4.9408e-08     -61.1824 
         -10     0.033831 -7.28864e-05  7.04157e-08     -61.1824 
         -10     0.039706 -7.83385e-05  9.68939e-08     -61.1824 
         -10     0.046047 -8.12146e-05  1.29563e-07     -61.1824 
         -10     0.052863 -7.90323e-05  1.69169e-07     -61.1824 
         -10      0.06015  -7.4602e-05   2.1626e-07     -61.1824 
         -10       0.0679 -7.61059e-05  2.71184e-07     -61.1824 
         -10     0.076126 -8.61942e-05  3.34414e-07     -61.1824 
         -10     0.084816 -7.80401e-05  4.06599e-07     -61.1824 
         -10     0.093982 -8.36015e-05  4.87862e-07     -61.1824 
         -10     0.103611 -8.63122e-05  5.78429e-07     -61.1824 
         -10     0.113718 -8.76959e-05  6.78504e-07     -61.1824 
         -10     0.124286 -8.88264e-05   7.8791e-07     -61.1824 
         -10     0.135333 -9.02933e-05  9.06752e-07     -61.1824 
         -10      0.14685 -9.22304e-05  1.03478e-06     -61.1824 
         -10     0.158827 -9.44384e-05  1.17162e-06     -61.1824 
         -10     0.171284 -9.65844e-05  1.31719e-06     -61.1824 
         -10     0.184201  -9.8413e-05  1.47081e-06     -61.1824 
         -10     0.197599 -9.99476e-05   1.6322e-06     -61.1824 
         -10     0.211455 -0.000101522  1.80052e-06     -61.1824 
         -10     0.225792 -0.000103534  1.97542e-06     -61.1824 
         -10       0.2406 -0.000105655  2.15627e-06     -61.1824 
         -10     0.255865 -0.000106726  2.34244e-06     -61.1824 
         -10     0.271613 -0.000108397   2.5335e-06     -61.1824 
         -10     0.287818 -0.000109872  2.72877e-06     -61.1824 
         -10     0.304506 -0.000111187  2.92811e-06     -61.1824 
         -10      0.32165 -0.000112364  3.13079e-06     -61.1824 
         -10     0.339278  -0.00011342  3.33681e-06     -61.1824 
         -10     0.357377 -0.000114363  3.54576e-06     -61.1824 
         -10      0.37593 -0.000115195  3.75724e-06     -61.1824 
         -10     0.394968 -0.000115913  3.97147e-06     -61.1824 
         -10     0.414461 -0.000116511  4.18801e-06     -61.1824 
         -10      0.43444 -0.000116984  4.40711e-06     -61.1823 
         -10     0.454872 -0.000117327  4.62835e-06     -61.1823 
         -10     0.475791  -0.00011754  4.85202e-06     -61.1823 
         -10     0.497163 -0.000117628  5.07768e-06     -61.1823 
         -10     0.519021 -0.000117599   5.3056e-06     -61.1823 
         -10      0.54135 -0.000117462  5.53553e-06     -61.1823 
         -10     0.564131 -0.000117221  5.76724e-06     -61.1823 
         -10       0.5874 -0.000116862  6.00121e-06     -61.1823 
         -10     0.611121 -0.000116346  6.23667e-06     -61.1823 
         -10      0.63533 -0.000115749  6.46992e-06     -61.1823 
         -10      0.65999 -0.000115038  6.70838e-06     -61.1823 
         -10     0.685139 -0.000114216  6.95147e-06     -61.1823 
         -10     0.710759 -0.000113287  7.19818e-06     -61.1823 
         -10     0.736828 -0.000112259  7.44757e-06     -61.1823 
         -10     0.763387 -0.000111139  7.69939e-06     -61.1823 
         -10     0.790396 -0.000109938  7.95272e-06     -61.1823 
         -10     0.817896 -0.000108662  8.20747e-06     -61.1823 
         -10     0.845843 -0.000107325   8.4628e-06     -61.1823 
         -10     0.874283 -0.000105937  8.71875e-06     -61.1823 
         -10      0.90317  -0.00010451  8.97449e-06     -61.1823 
         -10     0.932551 -0.000103052  9.23001e-06     -61.1823 
         -10     0.962401 -0.000101577  9.48463e-06     -61.1823 
         -10     0.992697 -0.000100094  9.73759e-06     -61.1823 
         -10      1.02349   -9.861e-05  9.98865e-06     -61.1823 
         -10      1.05472 -9.71342e-05  1.02366e-05     -61.1823 
         -10      1.08645 -9.56694e-05   1.0481e-05     -61.1823 
         -10      1.11863 -9.42212e-05  1.07204e-05     -61.1822 
         -10       1.1513 -9.27883e-05  1.09541e-05     -61.1822 
         -10      1.18444 -9.13707e-05  1.11807e-05     -61.1822 
         -10      1.21802 -8.99661e-05  1.13989e-05     -61.1822 
         -10      1.25211  -8.8567e-05  1.16079e-05     -61.1822 
         -10      1.28663 -8.71688e-05  1.18065e-05     -61.1822 
         -10      1.32165 -8.57615e-05  1.19946e-05     -61.1822 
         -10      1.35712   -8.434e-05  1.21721e-05     -61.1822 
         -10      1.39308 -8.28959e-05  1.23402e-05     -61.1822 
         -10      1.42951  -8.1427e-05  1.25013e-05     -61.1822 
         -10      1.46638 -7.99367e-05  1.26592e-05     -61.1822 
         -10      1.50375 -7.84326e-05  1.28204e-05     -61.1821 
         -10      1.54156 -7.67675e-05   1.2988e-05     -61.1821 
         -10      1.57987 -7.50968e-05  1.31232e-05     -61.1821 
         -10      1.61863 -7.34437e-05    1.323e-05     -61.1821 
         -10      1.65788 -7.18125e-05  1.33134e-05     -61.1821 
         -10      1.69757 -7.02115e-05  1.33782e-05     -61.1821 
         -10      1.73776 -6.86425e-05  1.34286e-05     -61.1821 
         -10      1.77842 -6.71103e-05  1.34683e-05     -61.1821 
         -10      1.81952 -6.56182e-05  1.35007e-05      -61.182 
         -10      1.86113 -6.41652e-05  1.35287e-05      -61.182 
         -10      1.90316 -6.27538e-05  1.35544e-05      -61.182 
         -10      1.94571 -6.13815e-05  1.35797e-05      -61.182 
         -10      1.98869 -6.00493e-05  1.36058e-05      -61.182 
         -10      2.03217 -5.87535e-05  1.36335e-05      -61.182 
         -10      2.07612 -5.74931e-05  1.36629e-05     -61.1819 
         -10      2.12051 -5.62669e-05  1.36938e-05     -61.1819 
         -10       2.1654 -5.50708e-05  1.37254e-05     -61.1819 
         -10      2.21073 -5.39045e-05  1.37565e-05     -61.1819 
         -10      2.25656 -5.27643e-05  1.37855e-05     -61.1819 
         -10      2.30283 -5.16509e-05  1.38103e-05     -61.1818 
         -10       2.3496  -5.0562e-05  1.38286e-05     -61.1818 
         -10      2.39685 -4.94985e-05  1.38377e-05     -61.1818 
         -10      2.44452 -4.84628e-05  1.38347e-05     -61.1818 
         -10      2.49271 -4.74554e-05  1.38166e-05     -61.1817 
         -10      2.54132 -4.64817e-05  1.37802e-05     -61.1817 
         -10      2.59044 -4.55451e-05  1.37223e-05     -61.1817 
         -10         2.64 -4.46535e-05  1.36397e-05     -61.1817 
         -10      2.69006 -4.38133e-05  1.35294e-05     -61.1816 
         -10      2.74056 -4.30347e-05  1.33888e-05     -61.1816 
         -10      2.79156 -4.23267e-05   1.3215e-05     -61.1816 
         -10      2.84304 -4.17014e-05  1.30061e-05     -61.1815 
         -10      2.89494 -4.11709e-05  1.27607e-05     -61.1815 
         -10      2.94735 -4.07465e-05  1.24775e-05     -61.1815 
         -10       3.0002 -4.04411e-05  1.21564e-05     -61.1814 
         -10      3.05355 -4.02652e-05  1.17975e-05     -61.1814 
         -10      3.10733 -4.02286e-05  1.14027e-05     -61.1814 
         -10      3.16163 -4.03383e-05  1.09737e-05     -61.1813 
         -10      3.21639 -4.05978e-05  1.05141e-05     -61.1813 
         -10      3.27158 -4.10051e-05  1.00288e-05     -61.1813 
         -10      3.32729 -4.15526e-05  9.52269e-06     -61.1812 
         -10      3.38342 -4.22231e-05  9.00356e-06     -61.1812 
         -10      3.44007 -4.29911e-05  8.47883e-06     -61.1811 
         -10      3.49714 -4.38159e-05  7.95886e-06     -61.1811 
         -10      3.55472 -4.46443e-05  7.45377e-06      -61.181 
         -10      3.61273 -4.54024e-05  6.97657e-06      -61.181 
         -10      3.67125 -4.59968e-05  6.54007e-06     -61.1809 
         -10      3.73025 -4.63071e-05  6.15945e-06     -61.1809 
         -10      3.78967 -4.66529e-05  5.80865e-06     -61.1808 
         -10      3.84961 -4.71777e-05  5.45234e-06     -61.1808 
         -10      3.90996 -4.77244e-05  5.10454e-06     -61.1807 
         -10      3.97084 -4.82808e-05  4.76713e-06     -61.1807 
         -10      4.03214 -4.88347e-05  4.43925e-06     -61.1806 
         -10      4.09395 -4.93787e-05  4.11486e-06     -61.1805 
         -10      4.15624  -4.9908e-05  3.78437e-06     -61.1805 
         -10      4.21895 -5.04228e-05  3.43385e-06     -61.1804 
         -10      4.28217 -5.08941e-05  3.19395e-06     -61.1804 
         -10      4.34582  -5.1348e-05  2.98364e-06     -61.1803 
         -10      4.40998 -5.17912e-05  2.75476e-06     -61.1802 
         -10      4.47457 -5.22191e-05  2.50367e-06     -61.1802 
         -10      4.53968   -5.263e-05  2.23041e-06     -61.1801 
         -10      4.60525 -5.30223e-05  1.93995e-06       -61.18 
         -10      4.67125 -5.33959e-05  1.64104e-06     -61.1799 
         -10      4.73777 -5.37527e-05  1.34438e-06     -61.1798 
         -10       4.8047 -5.40949e-05  1.06265e-06     -61.1798 
         -10      4.87216 -5.44264e-05  8.06461e-07     -61.1797 
         -10      4.94003 -5.47514e-05  5.83225e-07     -61.1796 
         -10      5.00843 -5.50758e-05  3.91874e-07     -61.1795 
         -10      5.07724 -5.54048e-05  2.19814e-07     -61.1794 
         -10      5.14658 -5.57451e-05  3.62059e-08     -61.1793 
         -10      5.21639 -5.61022e-05 -2.13484e-07     -61.1792 
         -10      5.28661 -5.64537e-05 -5.26564e-07     -61.1791 
         -10      5.35736 -5.67277e-05 -5.40418e-07      -61.179 
         -10      5.42852 -5.70831e-05 -6.90199e-07     -61.1789 
         -10      5.50021 -5.74758e-05  -9.0182e-07     -61.1788 
         -10      5.57231  -5.7874e-05 -1.12518e-06     -61.1787 
         -10      5.64493 -5.82579e-05 -1.33121e-06     -61.1786 
         -10      5.71803 -5.86158e-05  -1.5067e-06     -61.1785 
         -10      5.79154 -5.89429e-05 -1.65096e-06     -61.1784 
         -10      5.86558 -5.92403e-05 -1.77234e-06     -61.1783 
         -10      5.94003  -5.9511e-05 -1.88394e-06     -61.1781 
         -10      6.01501 -5.97609e-05 -2.00123e-06      -61.178 
         -10       6.0904 -5.99953e-05 -2.13847e-06     -61.1779 
         -10      6.16632 -6.02196e-05 -2.30712e-06     -61.1777 
         -10      6.24271 -6.04378e-05 -2.51331e-06     -61.1776 
         -10       6.3195 -6.06522e-05 -2.75684e-06     -61.1775 
         -10      6.39683 -6.08648e-05 -3.03142e-06     -61.1773 
         -10      6.47457 -6.10767e-05 -3.32367e-06     -61.1772 
         -10      6.55284 -6.12907e-05 -3.61609e-06      -61.177 
         -10      6.63152 -6.15124e-05 -3.88772e-06     -61.1769 
         -10      6.71073 -6.17543e-05 -4.11937e-06     -61.1767 
         -10      6.79034 -6.20378e-05 -4.29694e-06     -61.1766 
         -10      6.87049 -6.23999e-05 -4.41909e-06     -61.1764 
         -10      6.95111 -6.28863e-05 -4.53875e-06     -61.1762 
         -10      7.03214 -6.33613e-05 -4.71703e-06     -61.1761 
         -10       7.1137   -6.338e-05  -4.7505e-06     -61.1759 
         -10      7.19566 -6.35974e-05 -4.91062e-06     -61.1757 
         -10      7.27816 -6.39432e-05 -5.29388e-06     -61.1755 
         -10      7.36106 -6.43342e-05 -5.61847e-06     -61.1753 
         -10      7.44451 -6.46896e-05  -5.8919e-06     -61.1751 
         -10      7.52842 -6.49678e-05 -6.12278e-06     -61.1749 
         -10      7.61273 -6.51581e-05   -6.321e-06     -61.1747 
         -10      7.69758 -6.52713e-05 -6.49743e-06     -61.1745 
         -10      7.78283  -6.5331e-05 -6.66212e-06     -61.1743 
         -10      7.86862 -6.53661e-05 -6.82485e-06     -61.1741 
         -10      7.95481 -6.54046e-05 -6.99345e-06     -61.1739 
         -10      8.04155 -6.54689e-05 -7.17427e-06     -61.1737 
         -10      8.12868 -6.55711e-05 -7.37061e-06     -61.1734 
         -10      8.21635 -6.57126e-05 -7.58338e-06     -61.1732 
         -10      8.30449 -6.58826e-05  -7.8097e-06      -61.173 
         -10      8.39303 -6.60608e-05 -8.04302e-06     -61.1727 
         -10      8.48211 -6.62221e-05 -8.27346e-06     -61.1725 
         -10      8.57159 -6.63428e-05 -8.48649e-06     -61.1722 
         -10      8.66161 -6.64111e-05  -8.6643e-06     -61.1719 
         -10      8.75203 -6.64396e-05 -8.78469e-06     -61.1717 
         -10      8.84299  -6.6482e-05 -8.82234e-06     -61.1714 
         -10      8.93443 -6.65197e-05  -8.8442e-06     -61.1711 
         -10      9.02626 -6.64749e-05 -8.94276e-06     -61.1708 
         -10      9.11863 -6.64798e-05 -9.03154e-06     -61.1706 
         -10      9.21139 -6.65405e-05  -9.0871e-06     -61.1703 
         -10      9.30471 -6.66502e-05 -9.08239e-06       -61.17 
         -10      9.39841 -6.67892e-05 -9.01538e-06     -61.1696 
         -10      9.49267  -6.6926e-05  -8.9379e-06     -61.1693 
         -10      9.58739 -6.69973e-05 -9.14987e-06      -61.169 
         -10      9.68251  -6.7058e-05 -9.27956e-06     -61.1687 
         -10      9.77817 -6.71314e-05  -9.2542e-06     -61.1684 
         -10      9.87422 -6.72152e-05 -9.15498e-06      -61.168 
         -10      9.97083 -6.73061e-05 -9.04302e-06     -61.1677 
         -10      10.0678 -6.73995e-05 -8.95937e-06     -61.1673 
         -10      10.1654 -6.74905e-05 -8.92495e-06      -61.167 
         -10      10.2633 -6.75739e-05 -8.94273e-06     -61.1666 
         -10      10.3618  -6.7645e-05  -9.0004e-06     -61.1662 
         -10      10.4607 -6.77004e-05 -9.07461e-06     -61.1658 
         -10      10.5601 -6.77379e-05 -9.13665e-06     -61.1654 
         -10        10.66 -6.77579e-05 -9.15993e-06     -61.1651 
         -10      10.7603 -6.77635e-05 -9.12866e-06     -61.1647 
         -10      10.8611 -6.77615e-05 -9.04883e-06     -61.1642 
         -10      10.9623 -6.77632e-05  -8.9611e-06     -61.1638 
         -10      11.0641 -6.77849e-05 -8.95544e-06     -61.1634 
         -10      11.1663 -6.78497e-05 -9.17546e-06      -61.163 
         -10       11.269 -6.79369e-05 -9.10125e-06     -61.1625 
         -10      11.3721 -6.79892e-05 -9.00998e-06     -61.1621 
         -10      11.4757 -6.80179e-05 -8.94996e-06     -61.1616 
         -10      11.5798 -6.80331e-05 -8.95264e-06     -61.1612 
         -10      11.6844  -6.8043e-05 -9.03337e-06     -61.1607 
         -10      11.7894 -6.80539e-05 -9.19224e-06     -61.1602 
         -10       11.895 -6.80696e-05 -9.41473e-06     -61.1597 
         -10      12.0009  -6.8092e-05 -9.67285e-06     -61.1592 
         -10      12.1073  -6.8121e-05 -9.92733e-06     -61.1587 
         -10      12.2142  -6.8155e-05 -1.01279e-05     -61.1582 
         -10      12.3216 -6.81924e-05 -1.02164e-05     -61.1577 
         -10      12.4294 -6.82315e-05 -1.01284e-05     -61.1572 
         -10      12.5378 -6.81602e-05 -1.01754e-05     -61.1566 
         -10      12.6465 -6.80976e-05 -1.04098e-05     -61.1561 
         -10      12.7558 -6.81509e-05 -1.05063e-05     -61.1555 
         -10      12.8656 -6.82648e-05 -1.05151e-05     -61.1549 
         -10      12.9757 -6.83944e-05 -1.04783e-05     -61.1544 
         -10      13.0864 -6.85056e-05 -1.04302e-05     -61.1538 
         -10      13.1975 -6.85744e-05 -1.03963e-05     -61.1532 
         -10      13.3092  -6.8588e-05  -1.0394e-05     -61.1526 
         -10      13.4212 -6.85439e-05 -1.04316e-05      -61.152 
         -10      13.5338 -6.84494e-05 -1.05093e-05     -61.1514 
         -10      13.6468 -6.83212e-05 -1.06181e-05     -61.1507 
         -10      13.7603 -6.81846e-05 -1.07402e-05     -61.1501 
         -10      13.8743 -6.80716e-05 -1.08495e-05     -61.1494 
         -10      13.9886 -6.80202e-05 -1.09108e-05     -61.1488 
         -10      14.1036 -6.80721e-05 -1.08803e-05     -61.1481 
         -10      14.2189 -6.82706e-05 -1.07061e-05     -61.1474 
         -10      14.3348  -6.8618e-05 -1.05436e-05     -61.1467 
         -10       14.451 -6.88382e-05 -1.08841e-05      -61.146 
         -10      14.5678 -6.89531e-05 -1.10873e-05     -61.1453 
         -10      14.6851 -6.89857e-05 -1.11961e-05     -61.1446 
         -10      14.8028 -6.89575e-05 -1.12441e-05     -61.1439 
         -10       14.921 -6.88876e-05 -1.12564e-05     -61.1431 
         -10      15.0396 -6.87933e-05 -1.12509e-05     -61.1424 
         -10      15.1588 -6.86892e-05 -1.12391e-05     -61.1416 
         -10      15.2783 -6.85878e-05 -1.12277e-05     -61.1408 
         -10      15.3984 -6.84989e-05 -1.12194e-05       -61.14 
         -10       15.519 -6.84299e-05 -1.12141e-05     -61.1392 
         -10        15.64 -6.83858e-05 -1.12096e-05     -61.1384 
         -10      15.7615 -6.83688e-05 -1.12024e-05     -61.1376 
         -10      15.8834 -6.83791e-05 -1.11888e-05     -61.1368 
         -10      16.0058 -6.84145e-05 -1.11655e-05     -61.1359 
         -10      16.1286 -6.84706e-05 -1.11299e-05     -61.1351 
         -10       16.252 -6.85416e-05 -1.10808e-05     -61.1342 
         -10      16.3759 -6.86199e-05 -1.10184e-05     -61.1334 
         -10      16.5002 -6.86965e-05 -1.09452e-05     -61.1325 
         -10       16.625 -6.87623e-05  -1.0865e-05     -61.1316 
         -10      16.7501 -6.88074e-05 -1.07836e-05     -61.1307 
         -10      16.8759 -6.88224e-05 -1.07081e-05     -61.1297 
         -10       17.002  -6.8799e-05 -1.06464e-05     -61.1288 
         -10      17.1287 -6.87302e-05 -1.06065e-05     -61.1279 
         -10      17.2557 -6.86119e-05 -1.05955e-05     -61.1269 
         -10      17.3834 -6.84429e-05 -1.06187e-05     -61.1259 
         -10      17.5115 -6.82266e-05 -1.06778e-05      -61.125 
         -10      17.6399 -6.79721e-05 -1.07691e-05      -61.124 
         -10       17.769 -6.76944e-05 -1.08821e-05      -61.123 
         -10      17.8984 -6.74173e-05 -1.09965e-05     -61.1219 
         -10      18.0284  -6.7173e-05 -1.10801e-05     -61.1209 
         -10      18.1587 -6.75702e-05 -1.03591e-05     -61.1199 
         -10      18.2896 -6.81668e-05 -1.01687e-05     -61.1188 
         -10       18.421 -6.84339e-05 -1.10152e-05     -61.1177 
         -10      18.5528 -6.85372e-05 -1.14014e-05     -61.1167 
         -10      18.6851 -6.86124e-05 -1.15986e-05     -61.1156 
         -10      18.8178 -6.86475e-05 -1.17099e-05     -61.1145 
         -10      18.9511 -6.86374e-05 -1.18057e-05     -61.1133 
         -10      19.0847 -6.85819e-05 -1.19284e-05     -61.1122 
         -10      19.2189 -6.84854e-05 -1.20984e-05     -61.1111 
         -10      19.3535 -6.83556e-05 -1.23186e-05     -61.1099 
         -10      19.4886 -6.82023e-05   -1.258e-05     -61.1087 
         -10      19.6242 -6.80367e-05  -1.2865e-05     -61.1075 
         -10      19.7602 -6.78707e-05 -1.31518e-05     -61.1063 
         -10      19.8968 -6.77155e-05 -1.34185e-05     -61.1051 
         -10      20.0337 -6.75816e-05 -1.36444e-05     -61.1039 
         -10      20.1712 -6.74773e-05 -1.38144e-05     -61.1027 
         -10      20.3091 -6.74091e-05  -1.3919e-05     -61.1014 
         -10      20.4475 -6.73803e-05 -1.39564e-05     -61.1002 
         -10      20.5864 -6.73912e-05 -1.39327e-05     -61.0989 
         -10      20.7257 -6.74386e-05 -1.38613e-05     -61.0976 
         -10      20.8655 -6.75159e-05 -1.37619e-05     -61.0963 
         -10      21.0058 -6.76124e-05 -1.36584e-05      -61.095 
         -10      21.1465 -6.77144e-05 -1.35759e-05     -61.0936 
         -10      21.2877 -6.78046e-05 -1.35367e-05     -61.0923 
         -10      21.4294 -6.78632e-05 -1.35552e-05     -61.0909 
         -10      21.5716 -6.78678e-05 -1.36318e-05     -61.0895 
         -10      21.7142 -6.77949e-05 -1.37452e-05     -61.0881 
         -10      21.8573 -6.76199e-05 -1.38446e-05     -61.0867 
         -10      22.0008 -6.73198e-05 -1.38386e-05     -61.0853 
         -10      22.1449 -6.68722e-05 -1.35846e-05     -61.0839 
         -10      22.2893 -6.72501e-05 -1.38709e-05     -61.0824 
         -10      22.4344 -6.74286e-05 -1.39959e-05      -61.081 
         -10      22.5797 -6.74065e-05 -1.39351e-05     -61.0795 
         -10      22.7257  -6.7304e-05 -1.37865e-05      -61.078 
         -10      22.8721 -6.72032e-05 -1.36331e-05     -61.0765 
         -10      23.0189  -6.7152e-05 -1.35372e-05      -61.075 
         -10      23.1663 -6.71675e-05 -1.35365e-05     -61.0734 
         -10       23.314 -6.72416e-05 -1.36434e-05     -61.0719 
         -10      23.4623 -6.73453e-05 -1.38446e-05     -61.0703 
         -10       23.611 -6.74337e-05 -1.41023e-05     -61.0688 
         -10      23.7602 -6.74524e-05 -1.43601e-05     -61.0672 
         -10        23.91 -6.73427e-05 -1.45468e-05     -61.0655 
         -10        24.06 -6.70451e-05  -1.4536e-05     -61.0639 
         -10      24.2107 -6.67324e-05 -1.43892e-05     -61.0623 
         -10      24.3617 -6.65439e-05 -1.43798e-05     -61.0606 
         -10      24.5133 -6.64655e-05 -1.44635e-05      -61.059 
         -10      24.6653 -6.64796e-05 -1.46013e-05     -61.0573 
         -10      24.8178 -6.65657e-05 -1.47607e-05     -61.0556 
         -10      24.9708 -6.67014e-05 -1.49145e-05     -61.0539 
         -10      25.1242 -6.68636e-05 -1.50421e-05     -61.0521 
         -10      25.2781   -6.703e-05 -1.51295e-05     -61.0504 
         -10      25.4324 -6.71797e-05 -1.51693e-05     -61.0486 
         -10      25.5873 -6.72946e-05 -1.51613e-05     -61.0469 
         -10      25.7426 -6.73603e-05 -1.51135e-05     -61.0451 
         -10      25.8984 -6.73673e-05 -1.50415e-05     -61.0433 
         -10      26.0546 -6.73119e-05 -1.49707e-05     -61.0414 
         -10      26.2114 -6.71972e-05 -1.49354e-05     -61.0396 
         -10      26.3686 -6.70341e-05  -1.4981e-05     -61.0377 
         -10      26.5262 -6.68425e-05  -1.5164e-05     -61.0359 
         -10      26.6844 -6.66511e-05 -1.55536e-05      -61.034 
         -10      26.8429 -6.64999e-05  -1.6232e-05     -61.0321 
         -10       27.002 -6.64411e-05 -1.72804e-05     -61.0302 
         -10      27.1615  -6.6586e-05 -1.65921e-05     -61.0282 
         -10      27.3216 -6.66127e-05 -1.62184e-05     -61.0263 
         -10      27.4821 -6.65581e-05 -1.60693e-05     -61.0243 
         -10       27.643   -6.645e-05 -1.60714e-05     -61.0223 
         -10      27.8044  -6.6309e-05  -1.6166e-05     -61.0203 
         -10      27.9663 -6.61499e-05 -1.63075e-05     -61.0183 
         -10      28.1287 -6.59823e-05 -1.64616e-05     -61.0163 
         -10      28.2914 -6.58129e-05  -1.6603e-05     -61.0143 
         -10      28.4548 -6.56454e-05 -1.67148e-05     -61.0122 
         -10      28.6185 -6.54831e-05 -1.67864e-05     -61.0101 
         -10      28.7828 -6.53281e-05 -1.68127e-05      -61.008 
         -10      28.9475 -6.51837e-05 -1.67928e-05     -61.0059 
         -10      29.1126 -6.50547e-05   -1.673e-05     -61.0038 
         -10      29.2784 -6.49472e-05 -1.66304e-05     -61.0017 
         -10      29.4444 -6.48708e-05 -1.65034e-05     -60.9995 
         -10       29.611 -6.48374e-05 -1.63613e-05     -60.9973 
         -10       29.778 -6.48626e-05   -1.622e-05     -60.9952 
         -10      29.9456 -6.49654e-05 -1.60988e-05     -60.9929 
         -10      30.1137 -6.51684e-05 -1.60225e-05     -60.9907 
         -10      30.2821 -6.54967e-05 -1.60217e-05     -60.9885 
         -10      30.4511 -6.48661e-05 -1.58778e-05     -60.9862 
         -10      30.6204 -6.44562e-05 -1.58604e-05      -60.984 
         -10      30.7903 -6.42196e-05 -1.59117e-05     -60.9817 
         -10      30.9606 -6.40978e-05 -1.59858e-05     -60.9794 
         -10      31.1315 -6.40455e-05 -1.60528e-05     -60.9771 
         -10      31.3028 -6.40309e-05 -1.60963e-05     -60.9747 
         -10      31.4745 -6.40334e-05 -1.61109e-05     -60.9724 
         -10      31.6468 -6.40428e-05 -1.60986e-05       -60.97 
         -10      31.8194 -6.40564e-05 -1.60659e-05     -60.9676 
         -10      31.9926 -6.40772e-05 -1.60196e-05     -60.9652 
         -10      32.1662   -6.411e-05 -1.59629e-05     -60.9628 
         -10      32.3404 -6.41585e-05 -1.58912e-05     -60.9604 
         -10      32.5149 -6.42208e-05 -1.57868e-05     -60.9579 
         -10        32.69 -6.42852e-05  -1.5614e-05     -60.9554 
         -10      32.8655 -6.43246e-05 -1.53134e-05      -60.953 
         -10      33.0414 -6.42907e-05 -1.47963e-05     -60.9505 
         -10       33.218 -6.41273e-05 -1.51666e-05     -60.9479 
         -10      33.3948 -6.39854e-05 -1.56852e-05     -60.9454 
         -10      33.5723 -6.38713e-05 -1.59011e-05     -60.9428 
         -10        33.75 -6.37673e-05 -1.59335e-05     -60.9403 
         -10      33.9284 -6.36622e-05 -1.58745e-05     -60.9377 
         -10      34.1073  -6.3551e-05  -1.5792e-05     -60.9351 
         -10      34.2865 -6.34332e-05 -1.57321e-05     -60.9325 
         -10      34.4663 -6.33111e-05 -1.57224e-05     -60.9299 
         -10      34.6465 -6.31895e-05 -1.57744e-05     -60.9272 
         -10      34.8272 -6.30737e-05 -1.58865e-05     -60.9245 
         -10      35.0083 -6.29694e-05 -1.60464e-05     -60.9219 
         -10        35.19 -6.28815e-05 -1.62341e-05     -60.9192 
         -10      35.3721 -6.28131e-05 -1.64238e-05     -60.9164 
         -10      35.5546 -6.27656e-05 -1.65865e-05     -60.9137 
         -10      35.7377 -6.27375e-05 -1.66928e-05      -60.911 
         -10      35.9211 -6.27244e-05 -1.67145e-05     -60.9082 
         -10      36.1052 -6.27189e-05 -1.66269e-05     -60.9054 
         -10      36.2895 -6.27104e-05 -1.64109e-05     -60.9026 
         -10      36.4745 -6.26855e-05 -1.60544e-05     -60.8998 
         -10      36.6598 -6.26279e-05  -1.5555e-05      -60.897 
         -10      36.8457 -6.25471e-05 -1.52083e-05     -60.8941 
         -10      37.0321 -6.25053e-05 -1.55823e-05     -60.8913 
         -10      37.2188 -6.24392e-05 -1.59079e-05     -60.8884 
         -10      37.4062   -6.235e-05 -1.61937e-05     -60.8855 
         -10      37.5938 -6.22403e-05  -1.6447e-05     -60.8826 
         -10      37.7821 -6.21135e-05 -1.66751e-05     -60.8796 
         -10      37.9707 -6.19745e-05 -1.68833e-05     -60.8767 
         -10      38.1599 -6.18287e-05 -1.70753e-05     -60.8737 
         -10      38.3496 -6.16827e-05  -1.7252e-05     -60.8707 
         -10      38.5396 -6.15433e-05 -1.74107e-05     -60.8678 
         -10      38.7302 -6.14178e-05 -1.75452e-05     -60.8647 
         -10      38.9211 -6.13136e-05 -1.76436e-05     -60.8617 
         -10      39.1127 -6.12379e-05 -1.76884e-05     -60.8587 
         -10      39.3046 -6.11974e-05 -1.76551e-05     -60.8556 
         -10      39.4971 -6.11979e-05 -1.75107e-05     -60.8525 
         -10      39.6899 -6.12438e-05 -1.72136e-05     -60.8494 
         -10      39.8833 -6.13379e-05 -1.67106e-05     -60.8463 
         -10      40.0772 -6.14853e-05 -1.61467e-05     -60.8432 
         -10      40.2714 -6.16378e-05 -1.69489e-05     -60.8401 
         -10      40.4663 -6.17021e-05  -1.7506e-05     -60.8369 
         -10      40.6615 -6.16921e-05 -1.78665e-05     -60.8337 
         -10      40.8573 -6.16218e-05 -1.80735e-05     -60.8305 
         -10      41.0534 -6.15056e-05 -1.81636e-05     -60.8273 
         -10      41.2501 -6.13569e-05 -1.81682e-05     -60.8241 
         -10      41.4473 -6.11885e-05 -1.81132e-05     -60.8209 
         -10      41.6448 -6.10125e-05 -1.80202e-05     -60.8176 
         -10      41.8429 -6.08389e-05 -1.79061e-05     -60.8144 
         -10      42.0414 -6.06766e-05 -1.77845e-05     -60.8111 
         -10      42.2405 -6.05322e-05 -1.76651e-05     -60.8078 
         -10      42.4399  -6.0411e-05 -1.75548e-05     -60.8045 
         -10      42.6399 -6.03157e-05 -1.74579e-05     -60.8011 
         -10      42.8404 -6.02473e-05 -1.73766e-05     -60.7978 
         -10      43.0412 -6.02049e-05 -1.73112e-05     -60.7944 
         -10      43.2426 -6.01854e-05 -1.72605e-05      -60.791 
         -10      43.4444  -6.0184e-05 -1.72225e-05     -60.7877 
         -10      43.6467 -6.01947e-05 -1.71943e-05     -60.7842 
         -10      43.8494 -6.02098e-05 -1.71727e-05     -60.7808 
         -10      44.0527 -6.02213e-05 -1.71545e-05     -60.7774 
         -10      44.2563 -6.02203e-05 -1.71368e-05     -60.7739 
         -10      44.4606 -6.01982e-05 -1.71174e-05     -60.7705 
         -10      44.6653 -6.01472e-05 -1.70949e-05      -60.767 
         -10      44.8704 -6.00609e-05 -1.70691e-05     -60.7635 
         -10       45.076 -5.99349e-05  -1.7041e-05       -60.76 
         -10       45.282 -5.97682e-05 -1.70136e-05     -60.7564 
         -10      45.4886 -5.95633e-05 -1.69914e-05     -60.7529 
         -10      45.6955 -5.93286e-05  -1.6981e-05     -60.7493 
         -10       45.903 -5.90778e-05 -1.69913e-05     -60.7457 
         -10      46.1111 -5.88328e-05 -1.70334e-05     -60.7422 
         -10      46.3194 -5.86247e-05 -1.71205e-05     -60.7386 
         -10      46.5283 -5.84941e-05 -1.72688e-05     -60.7349 
         -10      46.7376 -5.84946e-05 -1.74965e-05     -60.7313 
         -10      46.9475 -5.86931e-05 -1.78248e-05     -60.7276 
         -10      47.1577 -5.91722e-05 -1.82767e-05      -60.724 
         -10      47.3685 -5.99166e-05 -1.87458e-05     -60.7203 
         -10      47.5798 -5.97166e-05 -1.80988e-05     -60.7166 
         -10      47.7914 -5.94762e-05 -1.76081e-05     -60.7129 
         -10      48.0037 -5.92161e-05 -1.72696e-05     -60.7092 