Variables = x, y, u, v, p

Zone, I=800, F=POINT
           0            0 -1.82344e-20  -5.0097e-20     -85.6967 
           0     0.000234  2.28123e-06  1.87922e-07     -85.6968 
           0     0.000939  8.75047e-06  8.94149e-07      -85.697 
           0     0.002113  1.82338e-05  2.46946e-06     -85.6973 
           0     0.003759    2.901e-05  5.30214e-06     -85.6978 
           0     0.005872  3.89866e-05  9.55817e-06     -85.6983 
           0     0.008457  4.61603e-05  1.49981e-05      -85.699 
           0      0.01151  4.89247e-05  2.08377e-05     -85.6998 
           0     0.015036  4.65162e-05  2.58588e-05     -85.7006 
           0     0.019031  3.93017e-05  2.86631e-05     -85.7015 
           0     0.023493  2.89015e-05  2.81601e-05     -85.7025 
           0     0.028429  1.79571e-05  2.40762e-05     -85.7034 
           0     0.033831  9.59408e-06  1.73738e-05     -85.7044 
           0     0.039706  6.36204e-06   1.0286e-05     -85.7053 
           0     0.046047  9.01828e-06  5.82195e-06     -85.7062 
           0     0.052863  1.54282e-05  6.50936e-06     -85.7072 
           0      0.06015  2.05123e-05  1.25792e-05     -85.7081 
           0       0.0679  1.87984e-05  2.00353e-05     -85.7092 
           0     0.076126  1.20314e-05  1.99744e-05     -85.7103 
           0     0.084816  2.00228e-05  6.86034e-06     -85.7114 
           0     0.093982  2.36908e-05  1.00871e-05     -85.7124 
           0     0.103611  2.78871e-05  1.14631e-05     -85.7135 
           0     0.113718  3.18717e-05  1.16704e-05     -85.7146 
           0     0.124286   3.5308e-05  1.12531e-05     -85.7157 
           0     0.135333  3.82536e-05  1.05939e-05     -85.7168 
           0      0.14685  4.10244e-05  9.91486e-06     -85.7179 
           0     0.158827  4.40214e-05  9.30557e-06     -85.7191 
           0     0.171284  4.75141e-05  8.77395e-06     -85.7202 
           0     0.184201  5.14192e-05  8.31173e-06     -85.7214 
           0     0.197599  5.52335e-05  7.93886e-06     -85.7225 
           0     0.211455  5.81751e-05  7.70176e-06     -85.7237 
           0     0.225792  5.98233e-05  7.55724e-06     -85.7249 
           0       0.2406  6.14424e-05  7.07284e-06     -85.7261 
           0     0.255865  6.49885e-05   6.1515e-06     -85.7273 
           0     0.271613  6.69145e-05  5.95805e-06     -85.7284 
           0     0.287818  6.88117e-05  5.56407e-06     -85.7296 
           0     0.304506  7.05215e-05  5.13526e-06     -85.7309 
           0      0.32165  7.21185e-05  4.74173e-06     -85.7321 
           0     0.339278  7.35287e-05  4.38337e-06     -85.7333 
           0     0.357377    7.478e-05  4.01436e-06     -85.7345 
           0      0.37593   7.5893e-05  3.64233e-06     -85.7357 
           0     0.394968  7.68852e-05  3.26773e-06     -85.7369 
           0     0.414461  7.77646e-05   2.9009e-06     -85.7382 
           0      0.43444  7.85409e-05  2.53937e-06     -85.7394 
           0     0.454872  7.92215e-05  2.18198e-06     -85.7406 
           0     0.475791  7.98114e-05  1.82823e-06     -85.7419 
           0     0.497163  8.03112e-05  1.48079e-06     -85.7431 
           0     0.519021  8.07314e-05  1.14008e-06     -85.7443 
           0      0.54135  8.10622e-05   8.0011e-07     -85.7456 
           0     0.564131  8.13087e-05  4.66483e-07     -85.7468 
           0       0.5874  8.14652e-05  1.35284e-07      -85.748 
           0     0.611121   8.1527e-05 -1.92438e-07     -85.7493 
           0      0.63533  8.14873e-05 -5.16862e-07     -85.7505 
           0      0.65999  8.13388e-05 -8.39196e-07     -85.7518 
           0     0.685139  8.10742e-05 -1.16133e-06      -85.753 
           0     0.710759  8.06866e-05 -1.48326e-06     -85.7542 
           0     0.736828  8.01705e-05 -1.80391e-06     -85.7555 
           0     0.763387   7.9519e-05 -2.12335e-06     -85.7567 
           0     0.790396   7.8727e-05 -2.44446e-06     -85.7579 
           0     0.817896  7.77964e-05 -2.76053e-06     -85.7592 
           0     0.845843  7.67226e-05 -3.07949e-06     -85.7604 
           0     0.874283  7.55071e-05 -3.40054e-06     -85.7616 
           0      0.90317  7.41574e-05 -3.71828e-06     -85.7629 
           0     0.932551   7.2673e-05 -4.03966e-06     -85.7641 
           0     0.962401  7.10609e-05   -4.359e-06     -85.7653 
           0     0.992697  6.93306e-05 -4.67169e-06     -85.7665 
           0      1.02349  6.74868e-05 -4.97901e-06     -85.7678 
           0      1.05472  6.55397e-05 -5.28339e-06      -85.769 
           0      1.08645  6.34931e-05 -5.58785e-06     -85.7702 
           0      1.11863   6.1358e-05  -5.8921e-06     -85.7714 
           0       1.1513  5.91413e-05  -6.1948e-06     -85.7726 
           0      1.18444  5.68509e-05 -6.49007e-06     -85.7738 
           0      1.21802  5.44957e-05 -6.77218e-06      -85.775 
           0      1.25211  5.20784e-05 -7.04128e-06     -85.7762 
           0      1.28663  4.96093e-05 -7.30999e-06     -85.7774 
           0      1.32165  4.70874e-05 -7.58587e-06     -85.7786 
           0      1.35712  4.45246e-05 -7.82476e-06     -85.7798 
           0      1.39308  4.19253e-05  -8.0598e-06     -85.7809 
           0      1.42951  3.92978e-05 -8.29579e-06     -85.7821 
           0      1.46638  3.66532e-05 -8.53369e-06     -85.7833 
           0      1.50375  3.39951e-05 -8.75888e-06     -85.7844 
           0      1.54156  3.13371e-05 -8.97103e-06     -85.7856 
           0      1.57987  2.86877e-05 -9.16721e-06     -85.7868 
           0      1.61863   2.6058e-05 -9.34674e-06     -85.7879 
           0      1.65788  2.34457e-05 -9.51312e-06      -85.789 
           0      1.69757   2.0852e-05 -9.67132e-06     -85.7902 
           0      1.73776  1.82657e-05 -9.82661e-06     -85.7913 
           0      1.77842  1.56807e-05  -9.9808e-06     -85.7924 
           0      1.81952  1.30929e-05  -1.0129e-05     -85.7936 
           0      1.86113  1.04982e-05 -1.02556e-05     -85.7947 
           0      1.90316  7.87951e-06 -1.03815e-05     -85.7958 
           0      1.94571  5.17613e-06 -1.05112e-05     -85.7969 
           0      1.98869  2.44706e-06 -1.06162e-05      -85.798 
           0      2.03217  -2.8216e-07 -1.07048e-05     -85.7991 
           0      2.07612 -3.00031e-06 -1.07827e-05     -85.8002 
           0      2.12051 -5.70672e-06 -1.08465e-05     -85.8012 
           0       2.1654 -8.39964e-06 -1.09205e-05     -85.8023 
           0      2.21073 -1.10407e-05 -1.09977e-05     -85.8034 
           0      2.25656 -1.35932e-05 -1.10462e-05     -85.8044 
           0      2.30283 -1.60156e-05 -1.10553e-05     -85.8055 
           0       2.3496 -1.82801e-05 -1.10209e-05     -85.8065 
           0      2.39685 -2.03594e-05 -1.09453e-05     -85.8076 
           0      2.44452  -2.2233e-05 -1.08369e-05     -85.8086 
           0      2.49271 -2.38908e-05 -1.07067e-05     -85.8096 
           0      2.54132 -2.53221e-05 -1.05659e-05     -85.8106 
           0      2.59044 -2.65243e-05 -1.04183e-05     -85.8116 
           0         2.64 -2.74916e-05 -1.02537e-05     -85.8126 
           0      2.69006 -2.82186e-05 -1.00366e-05     -85.8136 
           0      2.74056 -2.86903e-05 -9.69322e-06     -85.8146 
           0      2.79156 -2.89729e-05  -9.3856e-06     -85.8156 
           0      2.84304 -2.91102e-05 -9.12762e-06     -85.8166 
           0      2.89494 -2.90787e-05  -8.8153e-06     -85.8175 
           0      2.94735 -2.89026e-05  -8.4755e-06     -85.8185 
           0       3.0002 -2.86176e-05 -8.13293e-06     -85.8194 
           0      3.05355 -2.82676e-05 -7.80638e-06     -85.8204 
           0      3.10733 -2.79034e-05 -7.50888e-06     -85.8213 
           0      3.16163 -2.75771e-05 -7.24369e-06     -85.8222 
           0      3.21639  -2.7341e-05 -7.00352e-06     -85.8231 
           0      3.27158 -2.71802e-05 -6.84183e-06      -85.824 
           0      3.32729  -2.7096e-05 -6.76241e-06     -85.8249 
           0      3.38342 -2.71204e-05 -6.71572e-06     -85.8258 
           0      3.44007 -2.72321e-05 -6.70062e-06     -85.8267 
           0      3.49714 -2.74003e-05 -6.71549e-06     -85.8275 
           0      3.55472 -2.75906e-05 -6.75814e-06     -85.8284 
           0      3.61273 -2.77678e-05 -6.82574e-06     -85.8293 
           0      3.67125 -2.79025e-05 -6.91528e-06     -85.8301 
           0      3.73025 -2.79736e-05 -7.02367e-06     -85.8309 
           0      3.78967 -2.79734e-05 -7.14838e-06     -85.8317 
           0      3.84961 -2.79105e-05 -7.28859e-06     -85.8326 
           0      3.90996  -2.7813e-05  -7.4456e-06     -85.8334 
           0      3.97084   -2.773e-05 -7.62498e-06     -85.8342 
           0      4.03214 -2.77339e-05 -7.83731e-06     -85.8349 
           0      4.09395 -2.75969e-05  -7.9305e-06     -85.8357 
           0      4.15624 -2.75197e-05 -8.06054e-06     -85.8365 
           0      4.21895 -2.74789e-05 -8.22157e-06     -85.8372 
           0      4.28217 -2.74364e-05 -8.39474e-06      -85.838 
           0      4.34582 -2.73692e-05 -8.56646e-06     -85.8387 
           0      4.40998 -2.72661e-05 -8.72829e-06     -85.8394 
           0      4.47457 -2.71261e-05 -8.87485e-06     -85.8402 
           0      4.53968 -2.69547e-05 -9.00383e-06     -85.8409 
           0      4.60525 -2.67624e-05 -9.11424e-06     -85.8416 
           0      4.67125 -2.65623e-05 -9.20595e-06     -85.8422 
           0      4.73777 -2.63668e-05 -9.27913e-06     -85.8429 
           0       4.8047 -2.61876e-05 -9.33327e-06     -85.8436 
           0      4.87216 -2.60323e-05 -9.36718e-06     -85.8442 
           0      4.94003 -2.59047e-05 -9.37855e-06     -85.8449 
           0      5.00843 -2.58029e-05 -9.36421e-06     -85.8455 
           0      5.07724 -2.57199e-05 -9.32044e-06     -85.8461 
           0      5.14658 -2.56433e-05 -9.24357e-06     -85.8468 
           0      5.21639  -2.5557e-05 -9.13122e-06     -85.8474 
           0      5.28661 -2.54426e-05 -8.98385e-06      -85.848 
           0      5.35736 -2.52823e-05 -8.80617e-06     -85.8485 
           0      5.42852 -2.50626e-05 -8.61057e-06     -85.8491 
           0      5.50021 -2.49478e-05 -8.53829e-06     -85.8497 
           0      5.57231 -2.48747e-05 -8.58508e-06     -85.8502 
           0      5.64493 -2.48006e-05 -8.75534e-06     -85.8507 
           0      5.71803 -2.46237e-05 -8.64993e-06     -85.8513 
           0      5.79154 -2.43691e-05 -8.44493e-06     -85.8518 
           0      5.86558 -2.41463e-05  -8.4117e-06     -85.8523 
           0      5.94003 -2.39467e-05 -8.42558e-06     -85.8528 
           0      6.01501 -2.37581e-05 -8.44344e-06     -85.8533 
           0       6.0904 -2.35719e-05 -8.43973e-06     -85.8537 
           0      6.16632 -2.33811e-05  -8.4028e-06     -85.8542 
           0      6.24271 -2.31816e-05 -8.33138e-06     -85.8547 
           0       6.3195 -2.29715e-05 -8.23139e-06     -85.8551 
           0      6.39683   -2.275e-05 -8.11252e-06     -85.8555 
           0      6.47457 -2.25186e-05 -7.98609e-06     -85.8559 
           0      6.55284 -2.22794e-05 -7.86204e-06     -85.8563 
           0      6.63152 -2.20359e-05 -7.74782e-06     -85.8567 
           0      6.71073 -2.17917e-05 -7.64633e-06     -85.8571 
           0      6.79034 -2.15515e-05 -7.55596e-06     -85.8575 
           0      6.87049 -2.13188e-05    -7.47e-06     -85.8578 
           0      6.95111 -2.10977e-05 -7.37801e-06     -85.8582 
           0      7.03214 -2.08912e-05  -7.2674e-06     -85.8585 
           0       7.1137 -2.07008e-05 -7.12595e-06     -85.8588 
           0      7.19566 -2.05268e-05 -6.94639e-06     -85.8592 
           0      7.27816 -2.03674e-05  -6.7307e-06     -85.8595 
           0      7.36106 -2.02187e-05 -6.49771e-06     -85.8597 
           0      7.44451 -2.00738e-05 -6.28991e-06       -85.86 
           0      7.52842 -1.99229e-05 -6.18441e-06     -85.8603 
           0      7.61273 -1.98156e-05 -6.13759e-06     -85.8605 
           0      7.69758 -1.97824e-05 -5.86392e-06     -85.8608 
           0      7.78283 -1.96668e-05 -5.65766e-06      -85.861 
           0      7.86862 -1.94887e-05 -5.50058e-06     -85.8612 
           0      7.95481 -1.92666e-05 -5.38107e-06     -85.8614 
           0      8.04155 -1.90165e-05 -5.29209e-06     -85.8616 
           0      8.12868 -1.87538e-05 -5.23095e-06     -85.8618 
           0      8.21635 -1.84912e-05 -5.19757e-06      -85.862 
           0      8.30449 -1.82409e-05 -5.19383e-06     -85.8621 
           0      8.39303 -1.80134e-05 -5.22215e-06     -85.8623 
           0      8.48211 -1.78165e-05 -5.28448e-06     -85.8624 
           0      8.57159 -1.76566e-05 -5.38094e-06     -85.8625 
           0      8.66161  -1.7537e-05 -5.50898e-06     -85.8626 
           0      8.75203 -1.74575e-05 -5.66159e-06     -85.8627 
           0      8.84299 -1.74138e-05  -5.8269e-06     -85.8628 
           0      8.93443 -1.73962e-05 -5.98614e-06     -85.8629 
           0      9.02626 -1.73885e-05 -6.11289e-06     -85.8629 
           0      9.11863 -1.72773e-05 -6.19903e-06      -85.863 
           0      9.21139 -1.69712e-05  -6.4085e-06      -85.863 
           0      9.30471 -1.67588e-05 -6.70066e-06      -85.863 
           0      9.39841 -1.66291e-05 -7.01857e-06      -85.863 
           0      9.49267 -1.65674e-05 -7.31662e-06      -85.863 
           0      9.58739 -1.65563e-05 -7.56014e-06      -85.863 
           0      9.68251 -1.65753e-05 -7.72739e-06     -85.8629 
           0      9.77817 -1.66021e-05 -7.81049e-06     -85.8629 
           0      9.87422 -1.66128e-05 -7.81495e-06     -85.8628 
           0      9.97083 -1.65826e-05 -7.76028e-06     -85.8628 
           0      10.0678 -1.64873e-05 -7.67935e-06     -85.8627 
           0      10.1654 -1.63038e-05 -7.61725e-06     -85.8626 
           0      10.2633 -1.59073e-05 -7.52598e-06     -85.8625 
           0      10.3618 -1.55704e-05  -7.4369e-06     -85.8624 
           0      10.4607   -1.532e-05 -7.36059e-06     -85.8622 
           0      10.5601 -1.51305e-05 -7.28766e-06     -85.8621 
           0        10.66 -1.49821e-05 -7.21088e-06     -85.8619 
           0      10.7603 -1.48602e-05 -7.12545e-06     -85.8617 
           0      10.8611 -1.47545e-05 -7.02822e-06     -85.8616 
           0      10.9623 -1.46584e-05 -6.91813e-06     -85.8614 
           0      11.0641 -1.45681e-05 -6.79532e-06     -85.8611 
           0      11.1663 -1.44821e-05 -6.66148e-06     -85.8609 
           0       11.269 -1.44005e-05 -6.51939e-06     -85.8607 
           0      11.3721 -1.43242e-05 -6.37228e-06     -85.8604 
           0      11.4757 -1.42546e-05 -6.22434e-06     -85.8602 
           0      11.5798 -1.41924e-05 -6.07948e-06     -85.8599 
           0      11.6844  -1.4138e-05 -5.94196e-06     -85.8596 
           0      11.7894 -1.40902e-05 -5.81516e-06     -85.8593 
           0       11.895 -1.40463e-05 -5.70195e-06      -85.859 
           0      12.0009 -1.40017e-05 -5.60402e-06     -85.8586 
           0      12.1073 -1.39492e-05 -5.52124e-06     -85.8583 
           0      12.2142 -1.38796e-05 -5.45181e-06     -85.8579 
           0      12.3216 -1.37951e-05 -5.47169e-06     -85.8576 
           0      12.4294 -1.36903e-05 -5.46825e-06     -85.8572 
           0      12.5378 -1.35866e-05 -5.41691e-06     -85.8568 
           0      12.6465  -1.3506e-05 -5.32449e-06     -85.8564 
           0      12.7558 -1.34629e-05 -5.20578e-06     -85.8559 
           0      12.8656 -1.34598e-05 -5.08545e-06     -85.8555 
           0      12.9757 -1.34824e-05 -4.99931e-06      -85.855 
           0      13.0864 -1.34934e-05 -4.99573e-06     -85.8546 
           0      13.1975 -1.34269e-05 -5.13755e-06     -85.8541 
           0      13.3092 -1.31804e-05 -5.50408e-06     -85.8536 
           0      13.4212 -1.27894e-05 -5.92912e-06     -85.8531 
           0      13.5338 -1.30261e-05 -5.19944e-06     -85.8525 
           0      13.6468 -1.30439e-05 -4.65021e-06      -85.852 
           0      13.7603   -1.293e-05 -4.28104e-06     -85.8515 
           0      13.8743 -1.27444e-05 -4.09501e-06     -85.8509 
           0      13.9886 -1.25221e-05 -4.10249e-06     -85.8503 
           0      14.1036 -1.22726e-05 -4.32192e-06     -85.8497 
           0      14.2189 -1.19827e-05 -4.78173e-06     -85.8491 
           0      14.3348 -1.21022e-05 -4.46906e-06     -85.8485 
           0       14.451 -1.21324e-05  -4.1037e-06     -85.8478 
           0      14.5678 -1.20689e-05 -3.78011e-06     -85.8472 
           0      14.6851 -1.19391e-05 -3.52751e-06     -85.8465 
           0      14.8028 -1.17703e-05  -3.3634e-06     -85.8459 
           0       14.921 -1.15867e-05 -3.29409e-06     -85.8452 
           0      15.0396 -1.14091e-05 -3.31625e-06     -85.8444 
           0      15.1588 -1.12526e-05 -3.41772e-06     -85.8437 
           0      15.2783 -1.11268e-05 -3.57886e-06      -85.843 
           0      15.3984 -1.10347e-05 -3.77493e-06     -85.8422 
           0       15.519 -1.09737e-05 -3.97747e-06     -85.8415 
           0        15.64 -1.09358e-05  -4.1572e-06     -85.8407 
           0      15.7615 -1.09093e-05 -4.28735e-06     -85.8399 
           0      15.8834 -1.08812e-05 -4.34614e-06     -85.8391 
           0      16.0058 -1.08392e-05 -4.32123e-06     -85.8383 
           0      16.1286 -1.07759e-05 -4.21368e-06     -85.8374 
           0       16.252 -1.06925e-05 -4.04248e-06     -85.8366 
           0      16.3759 -1.06047e-05 -3.85026e-06     -85.8357 
           0      16.5002 -1.05482e-05 -3.70888e-06     -85.8348 
           0       16.625 -1.05859e-05 -3.72541e-06     -85.8339 
           0      16.7501 -1.08158e-05 -4.04946e-06      -85.833 
           0      16.8759 -1.10119e-05 -4.52385e-06     -85.8321 
           0       17.002 -1.02902e-05 -4.06471e-06     -85.8311 
           0      17.1287 -1.00191e-05 -3.87404e-06     -85.8302 
           0      17.2557 -1.00172e-05 -3.83645e-06     -85.8292 
           0      17.3834  -1.0148e-05 -3.86686e-06     -85.8282 
           0      17.5115 -1.03149e-05 -3.90653e-06     -85.8272 
           0      17.6399 -1.04548e-05 -3.91861e-06     -85.8262 
           0       17.769 -1.05326e-05 -3.88403e-06     -85.8252 
           0      17.8984 -1.05354e-05 -3.79756e-06     -85.8241 
           0      18.0284 -1.04668e-05 -3.66395e-06      -85.823 
           0      18.1587 -1.03427e-05 -3.49502e-06      -85.822 
           0      18.2896 -1.01857e-05 -3.30584e-06     -85.8209 
           0       18.421 -1.00218e-05 -3.11288e-06     -85.8198 
           0      18.5528 -9.87608e-06 -2.93132e-06     -85.8186 
           0      18.6851 -9.76918e-06  -2.7727e-06     -85.8175 
           0      18.8178 -9.71513e-06 -2.64452e-06     -85.8163 
           0      18.9511  -9.7186e-06 -2.54832e-06     -85.8152 
           0      19.0847 -9.77365e-06 -2.48016e-06      -85.814 
           0      19.2189 -9.86289e-06 -2.43027e-06     -85.8128 
           0      19.3535 -9.95704e-06 -2.38433e-06     -85.8116 
           0      19.4886 -1.00161e-05 -2.32475e-06     -85.8103 
           0      19.6242 -9.99034e-06 -2.23319e-06     -85.8091 
           0      19.7602 -9.88905e-06 -2.13497e-06     -85.8078 
           0      19.8968 -9.90714e-06 -2.11711e-06     -85.8065 
           0      20.0337 -1.00199e-05 -2.14961e-06     -85.8052 
           0      20.1712 -1.01849e-05 -2.20577e-06     -85.8039 
           0      20.3091 -1.03456e-05 -2.24417e-06     -85.8026 
           0      20.4475 -1.04305e-05 -2.20698e-06     -85.8012 
           0      20.5864 -1.03511e-05 -2.01752e-06     -85.7999 
           0      20.7257 -1.00011e-05 -1.57876e-06     -85.7985 
           0      20.8655 -9.66607e-06 -1.84896e-06     -85.7971 
           0      21.0058 -9.42727e-06 -2.11898e-06     -85.7957 
           0      21.1465 -9.24631e-06 -2.27992e-06     -85.7942 
           0      21.2877 -9.11513e-06 -2.36539e-06     -85.7928 
           0      21.4294 -9.02579e-06 -2.40147e-06     -85.7913 
           0      21.5716 -8.97138e-06 -2.40721e-06     -85.7899 
           0      21.7142 -8.94555e-06 -2.39596e-06     -85.7884 
           0      21.8573 -8.94261e-06  -2.3762e-06     -85.7869 
           0      22.0008 -8.95757e-06 -2.35258e-06     -85.7853 
           0      22.1449 -8.98612e-06 -2.32675e-06     -85.7838 
           0      22.2893 -9.02452e-06 -2.29827e-06     -85.7822 
           0      22.4344 -9.06967e-06 -2.26525e-06     -85.7806 
           0      22.5797 -9.11886e-06 -2.22523e-06     -85.7791 
           0      22.7257 -9.16995e-06 -2.17557e-06     -85.7774 
           0      22.8721 -9.22099e-06 -2.11423e-06     -85.7758 
           0      23.0189 -9.27027e-06  -2.0401e-06     -85.7742 
           0      23.1663 -9.31627e-06 -1.95316e-06     -85.7725 
           0       23.314 -9.35724e-06 -1.85516e-06     -85.7708 
           0      23.4623 -9.39136e-06 -1.74916e-06     -85.7691 
           0       23.611 -9.38764e-06 -1.60642e-06     -85.7674 
           0      23.7602 -9.31416e-06 -1.40004e-06     -85.7657 
           0        23.91 -9.26094e-06 -1.24434e-06     -85.7639 
           0        24.06 -9.22512e-06 -1.13933e-06     -85.7622 
           0      24.2107 -9.20111e-06 -1.07815e-06     -85.7604 
           0      24.3617 -9.18132e-06 -1.04834e-06     -85.7586 
           0      24.5133  -9.1566e-06 -1.03266e-06     -85.7568 
           0      24.6653 -9.11743e-06 -1.01133e-06      -85.755 
           0      24.8178 -9.05487e-06 -9.64405e-07     -85.7531 
           0      24.9708 -8.96227e-06 -8.75184e-07     -85.7512 
           0      25.1242 -8.83706e-06 -7.34333e-07     -85.7494 
           0      25.2781 -8.68238e-06 -5.44181e-07     -85.7475 
           0      25.4324 -8.51026e-06 -3.25206e-07     -85.7455 
           0      25.5873 -8.34341e-06 -1.21359e-07     -85.7436 
           0      25.7426 -8.21926e-06 -8.67735e-09     -85.7416 
           0      25.8984 -8.00164e-06  5.75939e-07     -85.7397 
           0      26.0546 -7.69237e-06  6.73626e-07     -85.7377 
           0      26.2114  -7.3665e-06    2.188e-07     -85.7357 
           0      26.3686 -7.23816e-06  5.61927e-07     -85.7336 
           0      26.5262 -7.22992e-06  1.06785e-06     -85.7316 
           0      26.6844 -7.28561e-06  1.31842e-06     -85.7295 
           0      26.8429 -7.39655e-06  1.37534e-06     -85.7275 
           0       27.002 -7.55305e-06  1.29261e-06     -85.7254 
           0      27.1615 -7.74401e-06   1.1163e-06     -85.7233 
           0      27.3216 -7.95818e-06  8.84635e-07     -85.7211 
           0      27.4821 -8.18345e-06  6.29152e-07      -85.719 
           0       27.643  -8.4075e-06  3.74777e-07     -85.7168 
           0      27.8044  -8.6187e-06   1.3956e-07     -85.7146 
           0      27.9663 -8.80508e-06 -6.35032e-08     -85.7124 
           0      28.1287 -8.80666e-06 -4.95136e-08     -85.7102 
           0      28.2914 -8.71615e-06  3.73919e-08     -85.7079 
           0      28.4548 -8.60209e-06  1.22027e-07     -85.7057 
           0      28.6185 -8.47671e-06  2.01195e-07     -85.7034 
           0      28.7828 -8.35027e-06  2.72584e-07     -85.7011 
           0      28.9475 -8.23161e-06  3.34293e-07     -85.6988 
           0      29.1126 -8.12783e-06  3.85031e-07     -85.6965 
           0      29.2784 -8.04402e-06  4.24162e-07     -85.6941 
           0      29.4444 -7.98385e-06  4.51412e-07     -85.6918 
           0       29.611 -7.94901e-06  4.67067e-07     -85.6894 
           0       29.778  -7.9397e-06  4.71752e-07      -85.687 
           0      29.9456 -7.95451e-06  4.66467e-07     -85.6845 
           0      30.1137 -7.99058e-06   4.5248e-07     -85.6821 
           0      30.2821 -8.04375e-06  4.31299e-07     -85.6796 
           0      30.4511 -8.10888e-06  4.04503e-07     -85.6772 
           0      30.6204 -8.17977e-06  3.73792e-07     -85.6747 
           0      30.7903 -8.24988e-06  3.40724e-07     -85.6721 
           0      30.9606 -8.31212e-06  3.06803e-07     -85.6696 
           0      31.1315 -8.35971e-06  2.73159e-07     -85.6671 
           0      31.3028 -8.38615e-06   2.4062e-07     -85.6645 
           0      31.4745 -8.38591e-06  2.09493e-07     -85.6619 
           0      31.6468 -8.35485e-06  1.79355e-07     -85.6593 
           0      31.8194 -8.29081e-06  1.49077e-07     -85.6567 
           0      31.9926 -8.19402e-06   1.1647e-07      -85.654 
           0      32.1662 -8.06811e-06  7.83114e-08     -85.6513 
           0      32.3404 -7.92026e-06  2.99493e-08     -85.6487 
           0      32.5149 -7.76272e-06 -3.46337e-08      -85.646 
           0        32.69 -7.61272e-06 -1.23354e-07     -85.6432 
           0      32.8655 -7.49427e-06 -2.45917e-07     -85.6405 
           0      33.0414 -7.43861e-06 -4.14078e-07     -85.6377 
           0       33.218 -7.48518e-06 -6.42408e-07      -85.635 
           0      33.3948 -7.55206e-06 -6.03708e-07     -85.6322 
           0      33.5723 -7.60663e-06 -5.28689e-07     -85.6293 
           0        33.75 -7.66114e-06 -4.38764e-07     -85.6265 
           0      33.9284 -7.72244e-06  -3.4523e-07     -85.6237 
           0      34.1073 -7.79339e-06 -2.59164e-07     -85.6208 
           0      34.2865 -7.87346e-06 -1.90929e-07     -85.6179 
           0      34.4663 -7.95938e-06 -1.49783e-07      -85.615 
           0      34.6465 -8.04514e-06 -1.43983e-07     -85.6121 
           0      34.8272 -8.12296e-06 -1.80318e-07     -85.6091 
           0      35.0083 -8.18322e-06 -2.63916e-07     -85.6061 
           0        35.19 -8.21533e-06 -3.98289e-07     -85.6032 
           0      35.3721 -8.20781e-06 -5.84767e-07     -85.6001 
           0      35.5546 -8.14895e-06 -8.22345e-07     -85.5971 
           0      35.7377 -8.02696e-06 -1.10827e-06     -85.5941 
           0      35.9211 -7.83081e-06 -1.43648e-06      -85.591 
           0      36.1052 -7.68728e-06 -1.40498e-06     -85.5879 
           0      36.2895 -7.65901e-06 -1.17422e-06     -85.5848 
           0      36.4745 -7.66579e-06 -1.02346e-06     -85.5817 
           0      36.6598 -7.69638e-06 -9.38487e-07     -85.5786 
           0      36.8457 -7.74109e-06 -9.05167e-07     -85.5754 
           0      37.0321 -7.79171e-06 -9.10305e-07     -85.5723 
           0      37.2188 -7.84154e-06 -9.41513e-07     -85.5691 
           0      37.4062 -7.88553e-06 -9.87623e-07     -85.5658 
           0      37.5938 -7.91996e-06 -1.03865e-06     -85.5626 
           0      37.7821 -7.94262e-06  -1.0862e-06     -85.5594 
           0      37.9707 -7.95254e-06 -1.12327e-06     -85.5561 
           0      38.1599    -7.95e-06 -1.14461e-06     -85.5528 
           0      38.3496 -7.93628e-06 -1.14654e-06     -85.5495 
           0      38.5396 -7.91357e-06 -1.12711e-06     -85.5462 
           0      38.7302 -7.88465e-06 -1.08597e-06     -85.5428 
           0      38.9211 -7.85284e-06 -1.02442e-06     -85.5395 
           0      39.1127 -7.82147e-06 -9.45074e-07     -85.5361 
           0      39.3046 -7.79383e-06 -8.52056e-07     -85.5327 
           0      39.4971 -7.77264e-06 -7.50322e-07     -85.5293 
           0      39.6899 -7.75978e-06 -6.45983e-07     -85.5258 
           0      39.8833 -7.75582e-06 -5.45372e-07     -85.5224 
           0      40.0772 -7.75958e-06  -4.5527e-07     -85.5189 
           0      40.2714  -7.7676e-06 -3.82213e-07     -85.5154 
           0      40.4663 -7.77367e-06 -3.31882e-07     -85.5119 
           0      40.6615 -7.76815e-06 -3.08945e-07     -85.5084 
           0      40.8573 -7.73739e-06 -3.16166e-07     -85.5048 
           0      41.0534 -7.66307e-06 -3.53889e-07     -85.5012 
           0      41.2501   -7.665e-06 -4.10889e-07     -85.4976 
           0      41.4473 -7.69632e-06 -4.62849e-07      -85.494 
           0      41.6448 -7.71436e-06 -5.11082e-07     -85.4904 
           0      41.8429 -7.72177e-06 -5.57918e-07     -85.4868 
           0      42.0414 -7.72105e-06 -6.05029e-07     -85.4831 
           0      42.2405 -7.71449e-06 -6.53784e-07     -85.4794 
           0      42.4399 -7.70421e-06 -7.04995e-07     -85.4757 
           0      42.6399 -7.69205e-06 -7.59277e-07      -85.472 
           0      42.8404 -7.67965e-06 -8.16814e-07     -85.4683 
           0      43.0412 -7.66837e-06  -8.7751e-07     -85.4645 
           0      43.2426 -7.65927e-06 -9.41192e-07     -85.4608 
           0      43.4444 -7.65314e-06  -1.0073e-06      -85.457 
           0      43.6467 -7.65049e-06 -1.07531e-06     -85.4532 
           0      43.8494  -7.6515e-06  -1.1444e-06     -85.4493 
           0      44.0527  -7.6561e-06 -1.21384e-06     -85.4455 
           0      44.2563 -7.66391e-06 -1.28263e-06     -85.4416 
           0      44.4606  -7.6743e-06 -1.34993e-06     -85.4377 
           0      44.6653 -7.68637e-06 -1.41473e-06     -85.4338 
           0      44.8704 -7.69898e-06   -1.476e-06     -85.4299 
           0       45.076 -7.71084e-06 -1.53286e-06      -85.426 
           0       45.282 -7.72043e-06 -1.58425e-06      -85.422 
           0      45.4886 -7.72613e-06 -1.62927e-06     -85.4181 
           0      45.6955 -7.72623e-06 -1.66689e-06     -85.4141 
           0       45.903 -7.71897e-06 -1.69619e-06     -85.4101 
           0      46.1111 -7.70264e-06 -1.71615e-06     -85.4061 
           0      46.3194 -7.67563e-06  -1.7257e-06      -85.402 
           0      46.5283 -7.63642e-06 -1.72377e-06      -85.398 
           0      46.7376 -7.58383e-06 -1.70915e-06     -85.3939 
           0      46.9475 -7.51688e-06 -1.68047e-06     -85.3898 
           0      47.1577 -7.43519e-06 -1.63624e-06     -85.3857 
           0      47.3685 -7.33866e-06 -1.57465e-06     -85.3815 
           0      47.5798 -7.22801e-06 -1.49365e-06     -85.3774 
           0      47.7914 -7.10478e-06 -1.39092e-06     -85.3732 
           0      48.0037 -6.97106e-06 -1.26345e-06     -85.3691 