Variables = x, y, u, v, p

Zone, I=800, F=POINT
         -25            0  8.11534e-20 -5.10584e-24     -38.4084 
         -25     0.000234  4.03213e-06 -2.50667e-10     -38.4084 
         -25     0.000939  1.53265e-05 -9.17109e-10     -38.4084 
         -25     0.002113  3.14964e-05 -1.75438e-09     -38.4084 
         -25     0.003759  4.92922e-05 -2.43121e-09     -38.4084 
         -25     0.005872  6.52497e-05 -2.61411e-09     -38.4084 
         -25     0.008457  7.67028e-05 -2.06846e-09     -38.4084 
         -25      0.01151  8.22787e-05 -7.31661e-10     -38.4084 
         -25     0.015036   8.2264e-05  1.25314e-09     -38.4084 
         -25     0.019031   7.8367e-05  3.54359e-09     -38.4084 
         -25     0.023493  7.30753e-05  5.66483e-09     -38.4084 
         -25     0.028429  6.86814e-05  7.10039e-09     -38.4084 
         -25     0.033831  6.63815e-05  7.36319e-09     -38.4084 
         -25     0.039706  6.57516e-05  6.03245e-09     -38.4084 
         -25     0.046047  6.50716e-05  2.69384e-09     -38.4084 
         -25     0.052863  6.25787e-05  -3.2191e-09     -38.4084 
         -25      0.06015  5.82989e-05 -1.25875e-08     -38.4084 
         -25       0.0679   5.5073e-05 -2.66076e-08     -38.4084 
         -25     0.076126   5.5817e-05 -4.63024e-08     -38.4084 
         -25     0.084816  5.37967e-05 -7.12521e-08     -38.4084 
         -25     0.093982  5.23381e-05 -1.04491e-07     -38.4084 
         -25     0.103611  5.11921e-05 -1.46169e-07     -38.4084 
         -25     0.113718  5.02954e-05 -1.97481e-07     -38.4084 
         -25     0.124286  4.96116e-05 -2.59463e-07     -38.4084 
         -25     0.135333  4.91261e-05 -3.33303e-07     -38.4084 
         -25      0.14685  4.88474e-05 -4.19966e-07     -38.4084 
         -25     0.158827  4.87957e-05 -5.20275e-07     -38.4084 
         -25     0.171284  4.89914e-05  -6.3518e-07     -38.4084 
         -25     0.184201  4.94409e-05 -7.65127e-07     -38.4084 
         -25     0.197599  5.01282e-05 -9.10801e-07     -38.4084 
         -25     0.211455  5.10118e-05 -1.07228e-06     -38.4084 
         -25     0.225792  5.20497e-05 -1.25006e-06     -38.4084 
         -25       0.2406  5.32502e-05 -1.44423e-06     -38.4084 
         -25     0.255865  5.46668e-05 -1.65496e-06     -38.4084 
         -25     0.271613    5.615e-05 -1.88184e-06     -38.4084 
         -25     0.287818  5.77397e-05 -2.12364e-06     -38.4084 
         -25     0.304506  5.94098e-05 -2.38046e-06     -38.4084 
         -25      0.32165  6.11303e-05 -2.65168e-06     -38.4084 
         -25     0.339278  6.28788e-05 -2.93766e-06     -38.4084 
         -25     0.357377  6.46309e-05 -3.23813e-06     -38.4084 
         -25      0.37593  6.63645e-05  -3.5528e-06     -38.4084 
         -25     0.394968  6.80648e-05 -3.88209e-06     -38.4084 
         -25     0.414461  6.97143e-05 -4.22528e-06     -38.4084 
         -25      0.43444  7.13031e-05 -4.58251e-06     -38.4084 
         -25     0.454872  7.28189e-05 -4.95249e-06     -38.4084 
         -25     0.475791  7.42565e-05 -5.33474e-06     -38.4084 
         -25     0.497163  7.56081e-05 -5.72713e-06     -38.4084 
         -25     0.519021  7.68723e-05 -6.12823e-06     -38.4084 
         -25      0.54135  7.80469e-05 -6.53526e-06     -38.4084 
         -25     0.564131  7.91325e-05 -6.94491e-06     -38.4084 
         -25       0.5874  8.01363e-05 -7.35452e-06     -38.4083 
         -25     0.611121  8.10669e-05 -7.75761e-06     -38.4083 
         -25      0.63533  8.19181e-05  -8.1357e-06     -38.4083 
         -25      0.65999  8.27063e-05 -8.51736e-06     -38.4083 
         -25     0.685139  8.34444e-05  -8.9023e-06     -38.4083 
         -25     0.710759  8.41418e-05 -9.28926e-06     -38.4083 
         -25     0.736828  8.48071e-05 -9.67689e-06     -38.4083 
         -25     0.763387  8.54489e-05 -1.00647e-05     -38.4083 
         -25     0.790396  8.60723e-05 -1.04509e-05     -38.4083 
         -25     0.817896  8.66831e-05  -1.0835e-05     -38.4083 
         -25     0.845843  8.72837e-05 -1.12151e-05     -38.4083 
         -25     0.874283  8.78774e-05 -1.15907e-05     -38.4082 
         -25      0.90317  8.84644e-05   -1.196e-05     -38.4082 
         -25     0.932551  8.90458e-05 -1.23224e-05     -38.4082 
         -25     0.962401  8.96207e-05 -1.26767e-05     -38.4082 
         -25     0.992697  9.01877e-05 -1.30215e-05     -38.4082 
         -25      1.02349  9.07464e-05 -1.33566e-05     -38.4082 
         -25      1.05472  9.12947e-05 -1.36807e-05     -38.4082 
         -25      1.08645  9.18322e-05 -1.39937e-05     -38.4081 
         -25      1.11863  9.23575e-05 -1.42948e-05     -38.4081 
         -25       1.1513  9.28711e-05  -1.4584e-05     -38.4081 
         -25      1.18444  9.33728e-05 -1.48611e-05     -38.4081 
         -25      1.21802  9.38631e-05 -1.51258e-05     -38.4081 
         -25      1.25211  9.43439e-05 -1.53788e-05      -38.408 
         -25      1.28663  9.48154e-05 -1.56198e-05      -38.408 
         -25      1.32165  9.52789e-05 -1.58495e-05      -38.408 
         -25      1.35712  9.57327e-05 -1.60678e-05      -38.408 
         -25      1.39308  9.61738e-05  -1.6275e-05      -38.408 
         -25      1.42951  9.65943e-05 -1.64707e-05     -38.4079 
         -25      1.46638  9.69799e-05 -1.66543e-05     -38.4079 
         -25      1.50375  9.73089e-05 -1.68248e-05     -38.4079 
         -25      1.54156  9.73491e-05 -1.70141e-05     -38.4078 
         -25      1.57987  9.74179e-05 -1.71553e-05     -38.4078 
         -25      1.61863  9.75018e-05 -1.72541e-05     -38.4078 
         -25      1.65788  9.75697e-05 -1.73201e-05     -38.4078 
         -25      1.69757  9.75944e-05 -1.73615e-05     -38.4077 
         -25      1.73776  9.75529e-05 -1.73856e-05     -38.4077 
         -25      1.77842   9.7426e-05 -1.73987e-05     -38.4077 
         -25      1.81952  9.71992e-05 -1.74058e-05     -38.4076 
         -25      1.86113  9.68615e-05 -1.74111e-05     -38.4076 
         -25      1.90316  9.64068e-05 -1.74175e-05     -38.4075 
         -25      1.94571  9.58321e-05 -1.74271e-05     -38.4075 
         -25      1.98869  9.51395e-05 -1.74405e-05     -38.4075 
         -25      2.03217   9.4333e-05 -1.74579e-05     -38.4074 
         -25      2.07612  9.34217e-05 -1.74781e-05     -38.4074 
         -25      2.12051  9.24182e-05 -1.74992e-05     -38.4073 
         -25       2.1654  9.13353e-05 -1.75184e-05     -38.4073 
         -25      2.21073  9.01919e-05 -1.75324e-05     -38.4072 
         -25      2.25656  8.90053e-05 -1.75371e-05     -38.4072 
         -25      2.30283  8.77981e-05 -1.75278e-05     -38.4071 
         -25       2.3496  8.65903e-05 -1.74997e-05     -38.4071 
         -25      2.39685  8.54053e-05 -1.74475e-05      -38.407 
         -25      2.44452  8.42668e-05 -1.73659e-05      -38.407 
         -25      2.49271  8.31952e-05 -1.72494e-05     -38.4069 
         -25      2.54132  8.22133e-05 -1.70928e-05     -38.4068 
         -25      2.59044  8.13393e-05  -1.6891e-05     -38.4068 
         -25         2.64  8.05919e-05 -1.66398e-05     -38.4067 
         -25      2.69006  7.99849e-05 -1.63346e-05     -38.4067 
         -25      2.74056  7.95309e-05 -1.59725e-05     -38.4066 
         -25      2.79156  7.92373e-05 -1.55504e-05     -38.4065 
         -25      2.84304  7.91085e-05 -1.50667e-05     -38.4065 
         -25      2.89494  7.91441e-05 -1.45211e-05     -38.4064 
         -25      2.94735  7.93394e-05 -1.39129e-05     -38.4063 
         -25       3.0002  7.96843e-05 -1.32443e-05     -38.4062 
         -25      3.05355  8.01651e-05 -1.25163e-05     -38.4061 
         -25      3.10733  8.07623e-05 -1.17333e-05     -38.4061 
         -25      3.16163  8.14537e-05  -1.0898e-05      -38.406 
         -25      3.21639  8.22123e-05 -1.00158e-05     -38.4059 
         -25      3.27158  8.30079e-05 -9.09255e-06     -38.4058 
         -25      3.32729  8.38106e-05 -8.13218e-06     -38.4057 
         -25      3.38342  8.45876e-05  -7.1414e-06     -38.4056 
         -25      3.44007  8.53098e-05 -6.12324e-06     -38.4055 
         -25      3.49714  8.59492e-05  -5.0827e-06     -38.4054 
         -25      3.55472  8.64861e-05 -4.01966e-06     -38.4053 
         -25      3.61273  8.69078e-05  -2.9347e-06     -38.4052 
         -25      3.67125  8.72153e-05 -1.82148e-06     -38.4051 
         -25      3.73025  8.74254e-05 -6.71503e-07      -38.405 
         -25      3.78967  8.76961e-05  1.85716e-07     -38.4049 
         -25      3.84961  8.79738e-05  1.00217e-06     -38.4048 
         -25      3.90996  8.82043e-05  1.90398e-06     -38.4047 
         -25      3.97084  8.83979e-05  2.84028e-06     -38.4046 
         -25      4.03214  8.85628e-05  3.77065e-06     -38.4045 
         -25      4.09395  8.87067e-05  4.66936e-06     -38.4043 
         -25      4.15624  8.88351e-05  5.51885e-06     -38.4042 
         -25      4.21895  8.89524e-05  6.31042e-06     -38.4041 
         -25      4.28217  8.90615e-05  7.04434e-06     -38.4039 
         -25      4.34582  8.91635e-05    7.724e-06     -38.4038 
         -25      4.40998  8.92586e-05  8.35891e-06     -38.4037 
         -25      4.47457  8.93451e-05  8.95883e-06     -38.4035 
         -25      4.53968  8.94207e-05  9.53633e-06     -38.4034 
         -25      4.60525  8.94822e-05   1.0102e-05     -38.4032 
         -25      4.67125  8.95259e-05  1.06644e-05     -38.4031 
         -25      4.73777  8.95482e-05  1.12308e-05     -38.4029 
         -25       4.8047  8.95462e-05  1.18026e-05     -38.4028 
         -25      4.87216  8.95182e-05  1.23783e-05     -38.4026 
         -25      4.94003  8.94648e-05  1.29498e-05     -38.4025 
         -25      5.00843  8.93895e-05  1.35058e-05     -38.4023 
         -25      5.07724  8.93001e-05  1.40283e-05     -38.4021 
         -25      5.14658  8.92098e-05  1.44975e-05      -38.402 
         -25      5.21639  8.91387e-05  1.48893e-05     -38.4018 
         -25      5.28661  8.91154e-05  1.51791e-05     -38.4016 
         -25      5.35736  8.91791e-05  1.53445e-05     -38.4014 
         -25      5.42852  8.91414e-05  1.56885e-05     -38.4012 
         -25      5.50021   8.8843e-05  1.63628e-05      -38.401 
         -25      5.57231   8.8455e-05  1.70684e-05     -38.4009 
         -25      5.64493  8.84167e-05  1.78148e-05     -38.4007 
         -25      5.71803  8.88299e-05  1.84997e-05     -38.4004 
         -25      5.79154  8.89652e-05  1.91784e-05     -38.4002 
         -25      5.86558  8.89077e-05  1.97967e-05        -38.4 
         -25      5.94003   8.8727e-05   2.0321e-05     -38.3998 
         -25      6.01501  8.84779e-05  2.07384e-05     -38.3996 
         -25       6.0904  8.82034e-05    2.105e-05     -38.3994 
         -25      6.16632  8.79337e-05    2.127e-05     -38.3992 
         -25      6.24271  8.76899e-05  2.14207e-05     -38.3989 
         -25       6.3195  8.75124e-05  2.14582e-05     -38.3987 
         -25      6.39683  8.73983e-05  2.14424e-05     -38.3985 
         -25      6.47457  8.73022e-05  2.14941e-05     -38.3982 
         -25      6.55284  8.72231e-05  2.15994e-05      -38.398 
         -25      6.63152  8.71583e-05  2.17407e-05     -38.3977 
         -25      6.71073  8.71033e-05  2.18989e-05     -38.3975 
         -25      6.79034  8.70528e-05  2.20541e-05     -38.3972 
         -25      6.87049  8.70002e-05  2.21881e-05     -38.3969 
         -25      6.95111  8.69388e-05  2.22851e-05     -38.3967 
         -25      7.03214  8.68622e-05  2.23338e-05     -38.3964 
         -25       7.1137  8.67646e-05  2.23288e-05     -38.3961 
         -25      7.19566  8.66421e-05  2.22721e-05     -38.3958 
         -25      7.27816   8.6493e-05  2.21746e-05     -38.3955 
         -25      7.36106  8.63191e-05  2.20573e-05     -38.3952 
         -25      7.44451  8.61264e-05  2.19528e-05     -38.3949 
         -25      7.52842  8.59265e-05  2.19065e-05     -38.3946 
         -25      7.61273  8.57381e-05  2.19775e-05     -38.3943 
         -25      7.69758  8.55875e-05  2.22398e-05      -38.394 
         -25      7.78283  8.55113e-05  2.27824e-05     -38.3937 
         -25      7.86862  8.51837e-05   2.3265e-05     -38.3934 
         -25      7.95481   8.4766e-05  2.31007e-05      -38.393 
         -25      8.04155  8.47953e-05  2.25956e-05     -38.3927 
         -25      8.12868  8.50604e-05   2.2188e-05     -38.3923 
         -25      8.21635  8.51486e-05  2.26039e-05      -38.392 
         -25      8.30449  8.51126e-05  2.30239e-05     -38.3917 
         -25      8.39303  8.49691e-05   2.3447e-05     -38.3913 
         -25      8.48211  8.47348e-05  2.38788e-05     -38.3909 
         -25      8.57159  8.44258e-05  2.43294e-05     -38.3906 
         -25      8.66161  8.40569e-05  2.48148e-05     -38.3902 
         -25      8.75203   8.3642e-05  2.53538e-05     -38.3898 
         -25      8.84299  8.35631e-05  2.53569e-05     -38.3894 
         -25      8.93443  8.36885e-05  2.51668e-05      -38.389 
         -25      9.02626  8.38377e-05  2.50734e-05     -38.3886 
         -25      9.11863  8.39973e-05  2.50662e-05     -38.3882 
         -25      9.21139  8.41546e-05  2.51352e-05     -38.3878 
         -25      9.30471  8.42988e-05  2.52709e-05     -38.3874 
         -25      9.39841  8.44204e-05  2.54633e-05      -38.387 
         -25      9.49267   8.4513e-05  2.57038e-05     -38.3865 
         -25      9.58739  8.45721e-05  2.59833e-05     -38.3861 
         -25      9.68251  8.45963e-05  2.62929e-05     -38.3857 
         -25      9.77817  8.45867e-05  2.66251e-05     -38.3852 
         -25      9.87422  8.45471e-05  2.69717e-05     -38.3848 
         -25      9.97083   8.4483e-05  2.73259e-05     -38.3843 
         -25      10.0678  8.44018e-05  2.76805e-05     -38.3838 
         -25      10.1654   8.4311e-05    2.803e-05     -38.3834 
         -25      10.2633  8.42181e-05  2.83685e-05     -38.3829 
         -25      10.3618  8.41283e-05  2.86918e-05     -38.3824 
         -25      10.4607  8.40436e-05  2.89959e-05     -38.3819 
         -25      10.5601  8.39605e-05  2.92777e-05     -38.3814 
         -25        10.66  8.38676e-05  2.95359e-05     -38.3809 
         -25      10.7603  8.37432e-05  2.97695e-05     -38.3804 
         -25      10.8611  8.35519e-05  2.99796e-05     -38.3798 
         -25      10.9623  8.32416e-05  3.01682e-05     -38.3793 
         -25      11.0641  8.27386e-05  3.03394e-05     -38.3788 
         -25      11.1663  8.23639e-05  3.05104e-05     -38.3782 
         -25       11.269  8.24992e-05  3.06869e-05     -38.3777 
         -25      11.3721  8.25237e-05  3.08289e-05     -38.3771 
         -25      11.4757  8.24879e-05   3.0921e-05     -38.3765 
         -25      11.5798  8.24272e-05  3.09554e-05      -38.376 
         -25      11.6844  8.23653e-05  3.09311e-05     -38.3754 
         -25      11.7894  8.23161e-05  3.08544e-05     -38.3748 
         -25       11.895  8.22873e-05  3.07385e-05     -38.3742 
         -25      12.0009  8.22822e-05  3.06035e-05     -38.3736 
         -25      12.1073  8.23028e-05  3.04758e-05      -38.373 
         -25      12.2142  8.23514e-05  3.03885e-05     -38.3724 
         -25      12.3216  8.24339e-05  3.03805e-05     -38.3717 
         -25      12.4294  8.25604e-05  3.04964e-05     -38.3711 
         -25      12.5378  8.27482e-05  3.07865e-05     -38.3704 
         -25      12.6465  8.30221e-05  3.13052e-05     -38.3698 
         -25      12.7558   8.3177e-05   3.1652e-05     -38.3691 
         -25      12.8656  8.29313e-05    3.132e-05     -38.3685 
         -25      12.9757  8.27156e-05  3.11483e-05     -38.3678 
         -25      13.0864  8.25203e-05  3.11118e-05     -38.3671 
         -25      13.1975  8.23361e-05  3.11843e-05     -38.3664 
         -25      13.3092  8.21535e-05  3.13394e-05     -38.3657 
         -25      13.4212  8.19647e-05    3.155e-05      -38.365 
         -25      13.5338  8.17637e-05  3.17903e-05     -38.3643 
         -25      13.6468  8.15483e-05  3.20355e-05     -38.3635 
         -25      13.7603  8.13208e-05  3.22633e-05     -38.3628 
         -25      13.8743  8.10891e-05  3.24561e-05      -38.362 
         -25      13.9886  8.08692e-05  3.26011e-05     -38.3613 
         -25      14.1036  8.06859e-05   3.2693e-05     -38.3605 
         -25      14.2189  8.05752e-05  3.27359e-05     -38.3597 
         -25      14.3348  8.05857e-05  3.27456e-05      -38.359 
         -25       14.451  8.07815e-05  3.27522e-05     -38.3582 
         -25      14.5678  8.12441e-05   3.2803e-05     -38.3574 
         -25      14.6851  8.12277e-05  3.25188e-05     -38.3566 
         -25      14.8028  8.09373e-05  3.22533e-05     -38.3557 
         -25       14.921  8.06577e-05  3.21263e-05     -38.3549 
         -25      15.0396  8.04043e-05  3.20855e-05     -38.3541 
         -25      15.1588  8.01865e-05    3.209e-05     -38.3532 
         -25      15.2783  8.00096e-05   3.2109e-05     -38.3524 
         -25      15.3984  7.98745e-05   3.2121e-05     -38.3515 
         -25       15.519  7.97797e-05  3.21121e-05     -38.3506 
         -25        15.64  7.97211e-05  3.20753e-05     -38.3497 
         -25      15.7615  7.96928e-05  3.20091e-05     -38.3488 
         -25      15.8834  7.96882e-05  3.19165e-05     -38.3479 
         -25      16.0058  7.97002e-05  3.18035e-05      -38.347 
         -25      16.1286  7.97216e-05  3.16789e-05     -38.3461 
         -25       16.252  7.97457e-05  3.15522e-05     -38.3451 
         -25      16.3759  7.97664e-05  3.14338e-05     -38.3442 
         -25      16.5002  7.97786e-05  3.13333e-05     -38.3432 
         -25       16.625  7.97781e-05  3.12591e-05     -38.3423 
         -25      16.7501  7.97617e-05  3.12176e-05     -38.3413 
         -25      16.8759  7.97268e-05  3.12126e-05     -38.3403 
         -25       17.002  7.96715e-05  3.12449e-05     -38.3393 
         -25      17.1287  7.95937e-05  3.13116e-05     -38.3383 
         -25      17.2557  7.94909e-05  3.14062e-05     -38.3373 
         -25      17.3834  7.93588e-05  3.15184e-05     -38.3362 
         -25      17.5115  7.91912e-05  3.16338e-05     -38.3352 
         -25      17.6399  7.89783e-05  3.17343e-05     -38.3341 
         -25       17.769   7.8705e-05  3.17987e-05     -38.3331 
         -25      17.8984  7.88451e-05  3.16671e-05      -38.332 
         -25      18.0284  7.93132e-05  3.12777e-05     -38.3309 
         -25      18.1587  7.95954e-05  3.07821e-05     -38.3298 
         -25      18.2896  7.96557e-05  3.02319e-05     -38.3287 
         -25       18.421  7.94507e-05  2.96861e-05     -38.3276 
         -25      18.5528  7.89297e-05   2.9209e-05     -38.3265 
         -25      18.6851  7.80305e-05  2.88684e-05     -38.3253 
         -25      18.8178  7.66809e-05   2.8737e-05     -38.3242 
         -25      18.9511  7.70858e-05  2.89677e-05      -38.323 
         -25      19.0847  7.76606e-05  2.91593e-05     -38.3219 
         -25      19.2189  7.76453e-05  2.92653e-05     -38.3207 
         -25      19.3535  7.71784e-05  2.93198e-05     -38.3195 
         -25      19.4886  7.63912e-05  2.93432e-05     -38.3183 
         -25      19.6242  7.60987e-05  2.93647e-05     -38.3171 
         -25      19.7602  7.68232e-05  2.94335e-05     -38.3158 
         -25      19.8968  7.73213e-05  2.94945e-05     -38.3146 
         -25      20.0337  7.76211e-05  2.95213e-05     -38.3133 
         -25      20.1712  7.77552e-05  2.95002e-05     -38.3121 
         -25      20.3091  7.77574e-05  2.94273e-05     -38.3108 
         -25      20.4475  7.76616e-05  2.93057e-05     -38.3095 
         -25      20.5864  7.75005e-05  2.91443e-05     -38.3082 
         -25      20.7257  7.73044e-05  2.89548e-05     -38.3069 
         -25      20.8655  7.70993e-05  2.87498e-05     -38.3056 
         -25      21.0058  7.69076e-05  2.85421e-05     -38.3042 
         -25      21.1465  7.67454e-05  2.83419e-05     -38.3029 
         -25      21.2877   7.6624e-05  2.81576e-05     -38.3015 
         -25      21.4294  7.65485e-05  2.79931e-05     -38.3001 
         -25      21.5716  7.65182e-05  2.78489e-05     -38.2988 
         -25      21.7142  7.65272e-05  2.77214e-05     -38.2974 
         -25      21.8573  7.65646e-05  2.76029e-05      -38.296 
         -25      22.0008   7.6616e-05  2.74835e-05     -38.2945 
         -25      22.1449  7.66644e-05  2.73507e-05     -38.2931 
         -25      22.2893  7.66923e-05  2.71926e-05     -38.2917 
         -25      22.4344  7.66833e-05  2.69988e-05     -38.2902 
         -25      22.5797  7.66253e-05  2.67643e-05     -38.2887 
         -25      22.7257  7.65126e-05  2.64911e-05     -38.2872 
         -25      22.8721    7.635e-05   2.6194e-05     -38.2857 
         -25      23.0189  7.61566e-05  2.59039e-05     -38.2842 
         -25      23.1663  7.59695e-05  2.56726e-05     -38.2827 
         -25       23.314  7.58498e-05  2.55797e-05     -38.2812 
         -25      23.4623  7.58871e-05  2.57384e-05     -38.2796 
         -25       23.611   7.6206e-05  2.63028e-05     -38.2781 
         -25      23.7602  7.61476e-05  2.64592e-05     -38.2765 
         -25        23.91  7.54537e-05   2.5855e-05     -38.2749 
         -25        24.06  7.49902e-05    2.553e-05     -38.2733 
         -25      24.2107  7.47066e-05  2.54081e-05     -38.2717 
         -25      24.3617  7.45603e-05  2.54257e-05     -38.2701 
         -25      24.5133  7.45139e-05  2.55301e-05     -38.2685 
         -25      24.6653   7.4536e-05  2.56785e-05     -38.2668 
         -25      24.8178  7.46003e-05  2.58376e-05     -38.2651 
         -25      24.9708  7.46851e-05   2.5982e-05     -38.2635 
         -25      25.1242  7.47728e-05  2.60936e-05     -38.2618 
         -25      25.2781    7.485e-05  2.61608e-05     -38.2601 
         -25      25.4324  7.49064e-05  2.61777e-05     -38.2584 
         -25      25.5873  7.49349e-05  2.61425e-05     -38.2566 
         -25      25.7426  7.49308e-05   2.6058e-05     -38.2549 
         -25      25.8984   7.4892e-05  2.59292e-05     -38.2531 
         -25      26.0546  7.48183e-05  2.57642e-05     -38.2514 
         -25      26.2114  7.47109e-05  2.55718e-05     -38.2496 
         -25      26.3686  7.45727e-05  2.53625e-05     -38.2478 
         -25      26.5262  7.44078e-05  2.51467e-05      -38.246 
         -25      26.6844  7.42208e-05  2.49342e-05     -38.2442 
         -25      26.8429  7.40177e-05  2.47345e-05     -38.2423 
         -25       27.002  7.38044e-05  2.45552e-05     -38.2405 
         -25      27.1615  7.35881e-05  2.44028e-05     -38.2386 
         -25      27.3216  7.33758e-05  2.42811e-05     -38.2367 
         -25      27.4821  7.31755e-05  2.41922e-05     -38.2349 
         -25       27.643  7.29957e-05  2.41354e-05      -38.233 
         -25      27.8044  7.28451e-05  2.41075e-05      -38.231 
         -25      27.9663  7.27339e-05  2.41029e-05     -38.2291 
         -25      28.1287  7.26725e-05  2.41133e-05     -38.2272 
         -25      28.2914  7.26733e-05  2.41284e-05     -38.2252 
         -25      28.4548  7.27499e-05  2.41357e-05     -38.2232 
         -25      28.6185  7.29183e-05  2.41216e-05     -38.2213 
         -25      28.7828   7.2857e-05  2.41136e-05     -38.2193 
         -25      28.9475  7.24812e-05  2.39656e-05     -38.2173 
         -25      29.1126  7.24731e-05  2.33939e-05     -38.2152 
         -25      29.2784  7.25511e-05  2.35526e-05     -38.2132 
         -25      29.4444  7.23449e-05  2.35584e-05     -38.2111 
         -25       29.611  7.20277e-05  2.35362e-05     -38.2091 
         -25       29.778  7.19506e-05  2.37257e-05      -38.207 
         -25      29.9456  7.20382e-05  2.40156e-05     -38.2049 
         -25      30.1137  7.21934e-05  2.43288e-05     -38.2028 
         -25      30.2821  7.23464e-05  2.46124e-05     -38.2007 
         -25      30.4511  7.24513e-05  2.48351e-05     -38.1985 
         -25      30.6204  7.24821e-05  2.49819e-05     -38.1964 
         -25      30.7903  7.24291e-05  2.50515e-05     -38.1942 
         -25      30.9606  7.22958e-05  2.50528e-05     -38.1921 
         -25      31.1315   7.2095e-05  2.50013e-05     -38.1899 
         -25      31.3028  7.18464e-05   2.4917e-05     -38.1877 
         -25      31.4745  7.15739e-05  2.48215e-05     -38.1854 
         -25      31.6468  7.13017e-05  2.47356e-05     -38.1832 
         -25      31.8194  7.10539e-05  2.46779e-05      -38.181 
         -25      31.9926  7.08504e-05  2.46624e-05     -38.1787 
         -25      32.1662  7.07069e-05  2.46981e-05     -38.1764 
         -25      32.3404  7.06319e-05  2.47877e-05     -38.1742 
         -25      32.5149  7.06267e-05  2.49274e-05     -38.1719 
         -25        32.69  7.06838e-05  2.51069e-05     -38.1696 
         -25      32.8655  7.07868e-05  2.53096e-05     -38.1672 
         -25      33.0414  7.09101e-05  2.55139e-05     -38.1649 
         -25       33.218  7.10196e-05  2.56951e-05     -38.1625 
         -25      33.3948  7.10731e-05  2.58263e-05     -38.1602 
         -25      33.5723  7.10218e-05  2.58821e-05     -38.1578 
         -25        33.75  7.08119e-05  2.58415e-05     -38.1554 
         -25      33.9284  7.03867e-05  2.56913e-05      -38.153 
         -25      34.1073  6.96896e-05  2.54314e-05     -38.1506 
         -25      34.2865  6.86681e-05  2.50796e-05     -38.1481 
         -25      34.4663  6.76618e-05  2.47747e-05     -38.1457 
         -25      34.6465  6.80638e-05  2.48789e-05     -38.1432 
         -25      34.8272  6.84127e-05  2.49724e-05     -38.1407 
         -25      35.0083  6.87111e-05  2.50309e-05     -38.1382 
         -25        35.19  6.89613e-05  2.50462e-05     -38.1357 
         -25      35.3721  6.91639e-05  2.50218e-05     -38.1332 
         -25      35.5546  6.93187e-05  2.49692e-05     -38.1307 
         -25      35.7377  6.94257e-05  2.49043e-05     -38.1282 
         -25      35.9211  6.94841e-05  2.48442e-05     -38.1256 
         -25      36.1052  6.94938e-05  2.48046e-05      -38.123 
         -25      36.2895  6.94548e-05  2.47978e-05     -38.1204 
         -25      36.4745  6.93686e-05  2.48307e-05     -38.1178 
         -25      36.6598  6.92379e-05   2.4904e-05     -38.1152 
         -25      36.8457  6.90673e-05  2.50113e-05     -38.1126 
         -25      37.0321   6.8864e-05  2.51392e-05       -38.11 
         -25      37.2188  6.86384e-05   2.5268e-05     -38.1073 
         -25      37.4062  6.84038e-05  2.53731e-05     -38.1047 
         -25      37.5938  6.81786e-05  2.54267e-05      -38.102 
         -25      37.7821  6.79853e-05  2.54005e-05     -38.0993 
         -25      37.9707  6.78527e-05  2.52698e-05     -38.0966 
         -25      38.1599  6.78152e-05  2.50166e-05     -38.0939 
         -25      38.3496   6.7915e-05  2.46357e-05     -38.0911 
         -25      38.5396   6.7867e-05   2.4572e-05     -38.0884 
         -25      38.7302  6.74867e-05  2.49158e-05     -38.0856 
         -25      38.9211  6.71731e-05   2.5098e-05     -38.0829 
         -25      39.1127  6.69082e-05  2.51698e-05     -38.0801 
         -25      39.3046  6.66788e-05  2.51736e-05     -38.0773 
         -25      39.4971  6.64759e-05  2.51428e-05     -38.0745 
         -25      39.6899  6.62963e-05  2.51012e-05     -38.0717 
         -25      39.8833   6.6142e-05  2.50614e-05     -38.0688 
         -25      40.0772  6.60216e-05  2.50245e-05      -38.066 
         -25      40.2714  6.59507e-05  2.49787e-05     -38.0631 
         -25      40.4663  6.59522e-05  2.48982e-05     -38.0602 
         -25      40.6615  6.60569e-05   2.4742e-05     -38.0574 
         -25      40.8573  6.63049e-05  2.44519e-05     -38.0545 
         -25      41.0534   6.6617e-05  2.47854e-05     -38.0516 
         -25      41.2501  6.67232e-05  2.58814e-05     -38.0486 
         -25      41.4473  6.67183e-05  2.66246e-05     -38.0457 
         -25      41.6448  6.66294e-05  2.70824e-05     -38.0427 
         -25      41.8429  6.64799e-05  2.73148e-05     -38.0398 
         -25      42.0414    6.629e-05   2.7373e-05     -38.0368 
         -25      42.2405  6.60765e-05  2.73012e-05     -38.0338 
         -25      42.4399  6.58537e-05  2.71372e-05     -38.0308 
         -25      42.6399  6.56325e-05  2.69124e-05     -38.0278 
         -25      42.8404  6.54217e-05  2.66527e-05     -38.0248 
         -25      43.0412   6.5228e-05  2.63795e-05     -38.0218 
         -25      43.2426  6.50554e-05  2.61085e-05     -38.0187 
         -25      43.4444  6.49064e-05  2.58526e-05     -38.0157 
         -25      43.6467  6.47816e-05  2.56201e-05     -38.0126 
         -25      43.8494  6.46803e-05  2.54172e-05     -38.0095 
         -25      44.0527  6.46002e-05  2.52465e-05     -38.0064 
         -25      44.2563  6.45383e-05  2.51092e-05     -38.0033 
         -25      44.4606  6.44903e-05  2.50042e-05     -38.0002 
         -25      44.6653  6.44516e-05  2.49293e-05     -37.9971 
         -25      44.8704  6.44169e-05  2.48812e-05     -37.9939 
         -25       45.076  6.43806e-05  2.48559e-05     -37.9908 
         -25       45.282  6.43371e-05  2.48492e-05     -37.9876 
         -25      45.4886   6.4281e-05  2.48566e-05     -37.9845 
         -25      45.6955  6.42069e-05  2.48739e-05     -37.9813 
         -25       45.903    6.411e-05  2.48975e-05     -37.9781 
         -25      46.1111  6.39862e-05  2.49244e-05     -37.9749 
         -25      46.3194  6.38324e-05  2.49521e-05     -37.9717 
         -25      46.5283   6.3646e-05  2.49796e-05     -37.9684 
         -25      46.7376  6.34261e-05  2.50065e-05     -37.9652 
         -25      46.9475  6.31726e-05  2.50336e-05     -37.9619 
         -25      47.1577  6.28876e-05  2.50629e-05     -37.9587 
         -25      47.3685  6.25737e-05  2.50974e-05     -37.9554 
         -25      47.5798  6.22362e-05  2.51411e-05     -37.9521 
         -25      47.7914  6.18824e-05  2.51988e-05     -37.9488 
         -25      48.0037  6.15343e-05  2.52612e-05     -37.9455 