Variables = x, y, u, v, p

Zone, I=800, F=POINT
         650            0            0            0      28.5137 
         650     0.000234  9.11825e-06 -2.26792e-12      28.5137 
         650     0.000939  3.49534e-05 -3.50197e-11      28.5137 
         650     0.002113   7.2957e-05 -1.68041e-10      28.5137 
         650     0.003759  0.000117096 -4.92252e-10      28.5137 
         650     0.005872   0.00016113 -1.07931e-09      28.5137 
         650     0.008457  0.000200719  -1.9337e-09      28.5137 
         650      0.01151  0.000234202 -2.92433e-09      28.5137 
         650     0.015036   0.00026321 -3.71603e-09      28.5137 
         650     0.019031  0.000291741 -3.68323e-09      28.5137 
         650     0.023493  0.000324605 -1.83087e-09      28.5137 
         650     0.028429  0.000365338  3.30182e-09      28.5137 
         650     0.033831  0.000414216  1.37082e-08      28.5137 
         650     0.039706  0.000467975  3.20296e-08      28.5137 
         650     0.046047  0.000521105  6.15686e-08      28.5137 
         650     0.052863  0.000569766   1.0646e-07      28.5137 
         650      0.06015  0.000615861  1.71595e-07      28.5137 
         650       0.0679  0.000667904  2.62616e-07      28.5137 
         650     0.076126  0.000729956  3.86257e-07      28.5137 
         650     0.084816  0.000773988  5.49755e-07      28.5137 
         650     0.093982   0.00082888  7.61597e-07      28.5137 
         650     0.103611    0.0008801  1.03047e-06      28.5137 
         650     0.113718  0.000928519  1.36647e-06      28.5137 
         650     0.124286  0.000974514  1.77928e-06      28.5137 
         650     0.135333   0.00101826  2.28036e-06      28.5137 
         650      0.14685   0.00105949  2.88049e-06      28.5137 
         650     0.158827   0.00109771  3.59034e-06      28.5137 
         650     0.171284   0.00113246  4.42242e-06      28.5137 
         650     0.184201   0.00116327   5.3866e-06      28.5137 
         650     0.197599   0.00119003  6.49535e-06      28.5137 
         650     0.211455   0.00121285  7.75719e-06      28.5137 
         650     0.225792   0.00123203  9.18407e-06      28.5137 
         650       0.2406    0.0012473  1.07843e-05      28.5137 
         650     0.255865   0.00125777  1.25645e-05      28.5137 
         650     0.271613   0.00126485  1.45345e-05      28.5137 
         650     0.287818   0.00126805  1.66974e-05      28.5137 
         650     0.304506    0.0012676  1.90615e-05      28.5137 
         650      0.32165   0.00126374  2.16267e-05      28.5137 
         650     0.339278   0.00125672  2.43996e-05      28.5137 
         650     0.357377   0.00124684  2.73795e-05      28.5137 
         650      0.37593    0.0012344  3.05632e-05      28.5137 
         650     0.394968   0.00121972  3.39546e-05      28.5137 
         650     0.414461   0.00120312  3.75457e-05      28.5137 
         650      0.43444    0.0011849  4.13388e-05      28.5137 
         650     0.454872   0.00116542  4.53229e-05      28.5137 
         650     0.475791   0.00114496  4.94993e-05      28.5137 
         650     0.497163   0.00112384   5.3855e-05      28.5137 
         650     0.519021   0.00110234  5.83898e-05      28.5137 
         650      0.54135   0.00108073  6.30934e-05      28.5137 
         650     0.564131   0.00105925  6.79532e-05      28.5137 
         650       0.5874   0.00103808  7.29676e-05      28.5137 
         650     0.611121    0.0010174  7.81183e-05      28.5137 
         650      0.63533  0.000997339  8.34069e-05      28.5137 
         650      0.65999   0.00097811  8.88179e-05      28.5137 
         650     0.685139  0.000959737  9.43493e-05      28.5137 
         650     0.710759  0.000942272  9.99871e-05      28.5137 
         650     0.736828  0.000925747  0.000105716      28.5137 
         650     0.763387  0.000910134  0.000111536      28.5137 
         650     0.790396  0.000895433  0.000117429      28.5137 
         650     0.817896  0.000881579  0.000123393      28.5137 
         650     0.845843  0.000868535  0.000129411      28.5137 
         650     0.874283  0.000856203  0.000135484      28.5137 
         650      0.90317  0.000844513  0.000141594      28.5137 
         650     0.932551  0.000833345  0.000147742      28.5137 
         650     0.962401  0.000822601  0.000153916      28.5137 
         650     0.992697  0.000812173  0.000160103      28.5137 
         650      1.02349  0.000801932  0.000166308      28.5137 
         650      1.05472  0.000791782  0.000172512      28.5137 
         650      1.08645  0.000781601   0.00017872      28.5137 
         650      1.11863  0.000771311  0.000184916      28.5137 
         650       1.1513  0.000760816  0.000191103      28.5137 
         650      1.18444  0.000750057  0.000197272      28.5137 
         650      1.21802  0.000738999  0.000203412      28.5137 
         650      1.25211  0.000727597  0.000209529      28.5137 
         650      1.28663   0.00071586  0.000215609      28.5137 
         650      1.32165   0.00070378  0.000221658      28.5137 
         650      1.35712  0.000691395  0.000227664      28.5137 
         650      1.39308  0.000678713  0.000233637      28.5137 
         650      1.42951  0.000665762  0.000239573      28.5137 
         650      1.46638  0.000652554  0.000245472      28.5137 
         650      1.50375   0.00063903  0.000251349      28.5137 
         650      1.54156  0.000625236  0.000257137      28.5137 
         650      1.57987  0.000611335  0.000262886      28.5137 
         650      1.61863  0.000597347  0.000268585      28.5137 
         650      1.65788  0.000583246  0.000274237      28.5137 
         650      1.69757   0.00056905  0.000279826      28.5137 
         650      1.73776  0.000554733  0.000285354      28.5137 
         650      1.77842  0.000540301  0.000290811      28.5137 
         650      1.81952  0.000525764  0.000296187      28.5137 
         650      1.86113  0.000511095  0.000301483      28.5137 
         650      1.90316  0.000496316  0.000306686      28.5137 
         650      1.94571  0.000481402  0.000311798      28.5137 
         650      1.98869  0.000466376  0.000316805      28.5137 
         650      2.03217  0.000451214  0.000321709      28.5137 
         650      2.07612  0.000435929    0.0003265      28.5137 
         650      2.12051  0.000420537   0.00033117      28.5137 
         650       2.1654  0.000405016  0.000335721      28.5137 
         650      2.21073  0.000389397  0.000340138      28.5137 
         650      2.25656   0.00037366  0.000344426      28.5137 
         650      2.30283   0.00035784   0.00034857      28.5136 
         650       2.3496  0.000341921  0.000352574      28.5136 
         650      2.39685  0.000325925  0.000356427      28.5136 
         650      2.44452  0.000309881  0.000360123      28.5136 
         650      2.49271  0.000293777  0.000363661      28.5136 
         650      2.54132  0.000277655  0.000367031      28.5136 
         650      2.59044  0.000261509  0.000370235      28.5136 
         650         2.64  0.000245385  0.000373261      28.5136 
         650      2.69006   0.00022928   0.00037611      28.5136 
         650      2.74056  0.000213244  0.000378773      28.5136 
         650      2.79156  0.000197278  0.000381249      28.5136 
         650      2.84304  0.000181421  0.000383532      28.5136 
         650      2.89494  0.000165717  0.000385618      28.5136 
         650      2.94735  0.000150169  0.000387505      28.5136 
         650       3.0002  0.000134834  0.000389187      28.5136 
         650      3.05355  0.000119721  0.000390666      28.5136 
         650      3.10733  0.000104886  0.000391936      28.5136 
         650      3.16163  9.03378e-05  0.000392998      28.5136 
         650      3.21639  7.61204e-05  0.000393853      28.5136 
         650      3.27158  6.22759e-05  0.000394499      28.5136 
         650      3.32729  4.88115e-05  0.000394942      28.5136 
         650      3.38342  3.57752e-05  0.000395184      28.5136 
         650      3.44007  2.31703e-05  0.000395232      28.5136 
         650      3.49714  1.10359e-05  0.000395094      28.5136 
         650      3.55472 -6.33023e-07   0.00039478      28.5136 
         650      3.61273 -1.18106e-05  0.000394306      28.5136 
         650      3.67125 -2.25142e-05  0.000393687      28.5136 
         650      3.73025 -3.27444e-05  0.000392945      28.5136 
         650      3.78967  -4.2402e-05  0.000391897      28.5136 
         650      3.84961 -5.14073e-05  0.000390608      28.5136 
         650      3.90996 -5.97747e-05  0.000389178      28.5136 
         650      3.97084 -6.75256e-05  0.000387606      28.5136 
         650      4.03214 -7.46568e-05  0.000385899      28.5136 
         650      4.09395 -8.11907e-05  0.000384059      28.5136 
         650      4.15624 -8.71336e-05   0.00038209      28.5136 
         650      4.21895 -9.24954e-05  0.000379998      28.5136 
         650      4.28217 -9.72998e-05  0.000377786      28.5136 
         650      4.34582 -0.000101556  0.000375461      28.5136 
         650      4.40998 -0.000105287  0.000373024      28.5136 
         650      4.47457 -0.000108507  0.000370485      28.5136 
         650      4.53968  -0.00011124  0.000367845      28.5136 
         650      4.60525 -0.000113505  0.000365112      28.5136 
         650      4.67125  -0.00011532  0.000362292      28.5136 
         650      4.73777 -0.000116712  0.000359388      28.5136 
         650       4.8047   -0.0001177   0.00035641      28.5136 
         650      4.87216  -0.00011831  0.000353358      28.5136 
         650      4.94003 -0.000118563  0.000350243      28.5136 
         650      5.00843 -0.000118483  0.000347066      28.5136 
         650      5.07724 -0.000118095  0.000343836      28.5136 
         650      5.14658  -0.00011742  0.000340555      28.5136 
         650      5.21639 -0.000116483   0.00033723      28.5136 
         650      5.28661 -0.000115307  0.000333868      28.5136 
         650      5.35736 -0.000113912   0.00033047      28.5136 
         650      5.42852 -0.000112324  0.000327044      28.5135 
         650      5.50021  -0.00011056   0.00032359      28.5135 
         650      5.57231 -0.000108643  0.000320118      28.5135 
         650      5.64493  -0.00010659  0.000316624      28.5135 
         650      5.71803 -0.000104421  0.000313117      28.5135 
         650      5.79154 -0.000102153  0.000309601      28.5135 
         650      5.86558 -9.98007e-05  0.000306073      28.5135 
         650      5.94003 -9.73808e-05  0.000302541      28.5135 
         650      6.01501 -9.49032e-05  0.000299002      28.5135 
         650       6.0904 -9.24303e-05   0.00029548      28.5135 
         650      6.16632 -8.99525e-05  0.000291976      28.5135 
         650      6.24271 -8.74374e-05  0.000288485      28.5135 
         650       6.3195 -8.48925e-05  0.000285012      28.5135 
         650      6.39683 -8.23181e-05  0.000281554      28.5135 
         650      6.47457 -7.97215e-05   0.00027812      28.5135 
         650      6.55284 -7.71014e-05  0.000274706      28.5135 
         650      6.63152  -7.4464e-05  0.000271317      28.5135 
         650      6.71073 -7.18075e-05   0.00026795      28.5135 
         650      6.79034 -6.91389e-05  0.000264608      28.5135 
         650      6.87049 -6.64577e-05  0.000261285      28.5135 
         650      6.95111 -6.37715e-05  0.000257982      28.5135 
         650      7.03214 -6.10902e-05  0.000254697      28.5135 
         650       7.1137 -5.84203e-05  0.000251422      28.5135 
         650      7.19566 -5.57809e-05  0.000248156      28.5135 
         650      7.27816 -5.31877e-05  0.000244886      28.5135 
         650      7.36106 -5.06705e-05  0.000241611      28.5135 
         650      7.44451 -4.82585e-05  0.000238313      28.5135 
         650      7.52842 -4.55474e-05  0.000235178      28.5135 
         650      7.61273 -4.28135e-05  0.000232098      28.5135 
         650      7.69758 -4.01623e-05  0.000229026      28.5135 
         650      7.78283 -3.75937e-05  0.000225975      28.5135 
         650      7.86862 -3.50987e-05  0.000222944      28.5135 
         650      7.95481 -3.26768e-05  0.000219942      28.5135 
         650      8.04155 -3.03197e-05  0.000216968      28.5135 
         650      8.12868 -2.80269e-05  0.000214027      28.5135 
         650      8.21635 -2.57905e-05  0.000211117      28.5135 
         650      8.30449 -2.36089e-05  0.000208237      28.5135 
         650      8.39303 -2.14803e-05  0.000205388      28.5135 
         650      8.48211 -1.92032e-05  0.000202441      28.5135 
         650      8.57159 -1.69146e-05  0.000199511      28.5135 
         650      8.66161 -1.46611e-05  0.000196627      28.5135 
         650      8.75203 -1.24458e-05  0.000193791      28.5135 
         650      8.84299 -1.02642e-05  0.000190997      28.5135 
         650      8.93443  -8.1174e-06  0.000188244      28.5135 
         650      9.02626 -6.00633e-06  0.000185533      28.5135 
         650      9.11863 -3.92683e-06  0.000182856      28.5135 
         650      9.21139 -1.88143e-06  0.000180215      28.5135 
         650      9.30471  1.33953e-07  0.000177605      28.5135 
         650      9.39841  2.11691e-06  0.000175026      28.5135 
         650      9.49267  4.07143e-06  0.000172474      28.5135 
         650      9.58739  5.99679e-06  0.000169947      28.5135 
         650      9.68251  7.89231e-06  0.000167448      28.5135 
         650      9.77817  9.76184e-06   0.00016497      28.5135 
         650      9.87422  1.16033e-05  0.000162515      28.5135 
         650      9.97083  1.34204e-05   0.00016008      28.5135 
         650      10.0678  1.52111e-05  0.000157667      28.5135 
         650      10.1654  1.69792e-05  0.000155272      28.5135 
         650      10.2633  1.87224e-05  0.000152898      28.5135 
         650      10.3618  2.04445e-05  0.000150541      28.5135 
         650      10.4607  2.21446e-05  0.000148204      28.5135 
         650      10.5601  2.38222e-05  0.000145889      28.5135 
         650        10.66  2.54804e-05  0.000143593      28.5135 
         650      10.7603  2.71172e-05   0.00014132      28.5135 
         650      10.8611  2.87354e-05  0.000139068      28.5135 
         650      10.9623  3.03328e-05  0.000136842      28.5134 
         650      11.0641  3.19121e-05  0.000134639      28.5134 
         650      11.1663  3.34719e-05  0.000132462      28.5134 
         650       11.269  3.50108e-05  0.000130315      28.5134 
         650      11.3721  3.65308e-05  0.000128195      28.5134 
         650      11.4757  3.80287e-05  0.000126107      28.5134 
         650      11.5798   3.9506e-05  0.000124049      28.5134 
         650      11.6844   4.0959e-05  0.000122023      28.5134 
         650      11.7894  4.23884e-05  0.000120029      28.5134 
         650       11.895   4.3791e-05  0.000118066      28.5134 
         650      12.0009  4.51632e-05  0.000116136      28.5134 
         650      12.1073  4.63987e-05  0.000114166      28.5134 
         650      12.2142    4.758e-05  0.000112192      28.5134 
         650      12.3216   4.8788e-05  0.000110258      28.5134 
         650      12.4294  5.00104e-05  0.000108363      28.5134 
         650      12.5378  5.12403e-05    0.0001065      28.5134 
         650      12.6465  5.24683e-05  0.000104671      28.5134 
         650      12.7558  5.36902e-05   0.00010287      28.5134 
         650      12.8656  5.49002e-05  0.000101096      28.5134 
         650      12.9757  5.60933e-05  9.93478e-05      28.5134 
         650      13.0864  5.72685e-05  9.76219e-05      28.5134 
         650      13.1975  5.84218e-05  9.59193e-05      28.5134 
         650      13.3092  5.95539e-05  9.42361e-05      28.5134 
         650      13.4212   6.0662e-05  9.25741e-05      28.5134 
         650      13.5338  6.17478e-05  9.09299e-05      28.5134 
         650      13.6468  6.28107e-05  8.93044e-05      28.5134 
         650      13.7603  6.38503e-05  8.76985e-05      28.5134 
         650      13.8743  6.48691e-05  8.61097e-05      28.5134 
         650      13.9886  6.58664e-05  8.45404e-05      28.5134 
         650      14.1036  6.68449e-05  8.29884e-05      28.5134 
         650      14.2189  6.78039e-05  8.14566e-05      28.5134 
         650      14.3348   6.8746e-05  7.99428e-05      28.5134 
         650       14.451  6.96703e-05    7.845e-05      28.5134 
         650      14.5678  7.05791e-05  7.69764e-05      28.5134 
         650      14.6851  7.14719e-05  7.55237e-05      28.5134 
         650      14.8028  7.23484e-05  7.40937e-05      28.5134 
         650       14.921  7.32097e-05  7.26846e-05      28.5134 
         650      15.0396  7.40544e-05  7.12992e-05      28.5134 
         650      15.1588  7.48832e-05  6.99355e-05      28.5134 
         650      15.2783  7.56941e-05  6.85961e-05      28.5134 
         650      15.3984  7.64878e-05  6.72789e-05      28.5134 
         650       15.519  7.72627e-05  6.59847e-05      28.5134 
         650        15.64  7.80175e-05  6.47141e-05      28.5134 
         650      15.7615   7.8753e-05  6.34644e-05      28.5134 
         650      15.8834  7.94677e-05  6.22366e-05      28.5134 
         650      16.0058  8.01632e-05  6.10272e-05      28.5134 
         650      16.1286  8.08393e-05  5.98363e-05      28.5134 
         650       16.252  8.14993e-05  5.86594e-05      28.5134 
         650      16.3759  8.21456e-05  5.74947e-05      28.5134 
         650      16.5002  8.27827e-05  5.63395e-05      28.5134 
         650       16.625   8.3418e-05  5.51877e-05      28.5134 
         650      16.7501  8.40594e-05  5.40361e-05      28.5134 
         650      16.8759  8.47192e-05  5.28772e-05      28.5134 
         650       17.002  8.54093e-05  5.17486e-05      28.5134 
         650      17.1287  8.60648e-05  5.05999e-05      28.5134 
         650      17.2557  8.66592e-05   4.9401e-05      28.5134 
         650      17.3834  8.72242e-05   4.8229e-05      28.5134 
         650      17.5115  8.78315e-05  4.72117e-05      28.5134 
         650      17.6399  8.84174e-05  4.62096e-05      28.5134 
         650       17.769  8.89361e-05  4.52731e-05      28.5134 
         650      17.8984  8.93927e-05  4.44048e-05      28.5134 
         650      18.0284  8.98751e-05  4.35157e-05      28.5134 
         650      18.1587  9.03715e-05  4.26153e-05      28.5134 
         650      18.2896  9.08739e-05  4.17091e-05      28.5134 
         650       18.421  9.13745e-05  4.08036e-05      28.5134 
         650      18.5528  9.18671e-05  3.99044e-05      28.5134 
         650      18.6851  9.23482e-05  3.90142e-05      28.5134 
         650      18.8178  9.28138e-05  3.81374e-05      28.5134 
         650      18.9511  9.32626e-05   3.7275e-05      28.5134 
         650      19.0847  9.36929e-05  3.64304e-05      28.5134 
         650      19.2189  9.41051e-05  3.56032e-05      28.5134 
         650      19.3535   9.4499e-05  3.47957e-05      28.5134 
         650      19.4886  9.48762e-05  3.40067e-05      28.5134 
         650      19.6242   9.5238e-05   3.3237e-05      28.5134 
         650      19.7602  9.55859e-05  3.24867e-05      28.5134 
         650      19.8968  9.59225e-05  3.17541e-05      28.5134 
         650      20.0337  9.62493e-05  3.10396e-05      28.5134 
         650      20.1712   9.6569e-05  3.03414e-05      28.5134 
         650      20.3091  9.68832e-05  2.96597e-05      28.5134 
         650      20.4475  9.71942e-05  2.89925e-05      28.5134 
         650      20.5864  9.75035e-05  2.83396e-05      28.5134 
         650      20.7257  9.78121e-05  2.77007e-05      28.5134 
         650      20.8655  9.81214e-05  2.70742e-05      28.5134 
         650      21.0058  9.84315e-05  2.64605e-05      28.5134 
         650      21.1465  9.87432e-05  2.58582e-05      28.5134 
         650      21.2877  9.90556e-05   2.5268e-05      28.5134 
         650      21.4294  9.93684e-05  2.46889e-05      28.5134 
         650      21.5716  9.96804e-05  2.41213e-05      28.5134 
         650      21.7142  9.99897e-05  2.35656e-05      28.5134 
         650      21.8573  0.000100295  2.30211e-05      28.5134 
         650      22.0008  0.000100594  2.24887e-05      28.5134 
         650      22.1449  0.000100885  2.19676e-05      28.5134 
         650      22.2893  0.000101165  2.14584e-05      28.5134 
         650      22.4344  0.000101432    2.096e-05      28.5134 
         650      22.5797  0.000101685  2.04724e-05      28.5134 
         650      22.7257  0.000101922  1.99937e-05      28.5134 
         650      22.8721  0.000102143  1.95224e-05      28.5134 
         650      23.0189  0.000102349  1.90563e-05      28.5134 
         650      23.1663   0.00010254  1.85912e-05      28.5134 
         650       23.314  0.000102721  1.81231e-05      28.5134 
         650      23.4623  0.000102896  1.76452e-05      28.5134 
         650       23.611  0.000103074  1.71507e-05      28.5134 
         650      23.7602  0.000103265  1.66293e-05      28.5134 
         650        23.91  0.000103482  1.60697e-05      28.5134 
         650        24.06  0.000103715  1.55333e-05      28.5134 
         650      24.2107  0.000103874  1.52582e-05      28.5134 
         650      24.3617  0.000104045  1.49543e-05      28.5134 
         650      24.5133  0.000104223  1.46258e-05      28.5134 
         650      24.6653  0.000104401   1.4278e-05      28.5134 
         650      24.8178  0.000104576  1.39146e-05      28.5134 
         650      24.9708  0.000104744  1.35402e-05      28.5134 
         650      25.1242  0.000104904  1.31594e-05      28.5134 
         650      25.2781  0.000105055  1.27752e-05      28.5134 
         650      25.4324  0.000105196  1.23918e-05      28.5134 
         650      25.5873  0.000105327  1.20118e-05      28.5134 
         650      25.7426   0.00010545  1.16386e-05      28.5134 
         650      25.8984  0.000105565  1.12741e-05      28.5134 
         650      26.0546  0.000105673   1.0921e-05      28.5134 
         650      26.2114  0.000105777  1.05803e-05      28.5134 
         650      26.3686  0.000105877  1.02535e-05      28.5134 
         650      26.5262  0.000105976  9.94158e-06      28.5134 
         650      26.6844  0.000106073  9.64437e-06      28.5134 
         650      26.8429  0.000106172  9.36219e-06      28.5134 
         650       27.002  0.000106271  9.09401e-06      28.5134 
         650      27.1615  0.000106372  8.83928e-06      28.5134 
         650      27.3216  0.000106476  8.59618e-06      28.5134 
         650      27.4821  0.000106581  8.36314e-06      28.5134 
         650       27.643  0.000106687  8.13823e-06      28.5134 
         650      27.8044  0.000106794  7.91869e-06      28.5134 
         650      27.9663  0.000106901  7.70222e-06      28.5134 
         650      28.1287  0.000107007  7.48563e-06      28.5134 
         650      28.2914  0.000107109  7.26634e-06      28.5134 
         650      28.4548  0.000107207    7.041e-06      28.5134 
         650      28.6185    0.0001073  6.80705e-06      28.5134 
         650      28.7828  0.000107387  6.56131e-06      28.5134 
         650      28.9475  0.000107467  6.30146e-06      28.5134 
         650      29.1126   0.00010754  6.02555e-06      28.5134 
         650      29.2784  0.000107611  5.77712e-06      28.5134 
         650      29.4444  0.000107684  5.64526e-06      28.5134 
         650       29.611  0.000107751  5.50965e-06      28.5134 
         650       29.778  0.000107815  5.37095e-06      28.5134 
         650      29.9456  0.000107878  5.22957e-06      28.5134 
         650      30.1137  0.000107943  5.08647e-06      28.5134 
         650      30.2821  0.000108011  4.94292e-06      28.5134 
         650      30.4511  0.000108082  4.80013e-06      28.5134 
         650      30.6204  0.000108155  4.66012e-06      28.5134 
         650      30.7903  0.000108229  4.52485e-06      28.5134 
         650      30.9606    0.0001083  4.39717e-06      28.5134 
         650      31.1315  0.000108363  4.27995e-06      28.5134 
         650      31.3028  0.000108412  4.17695e-06      28.5134 
         650      31.4745  0.000108436  4.09246e-06      28.5134 
         650      31.6468  0.000108426  4.03119e-06      28.5134 
         650      31.8194  0.000108516  3.89209e-06      28.5134 
         650      31.9926  0.000108586  3.76201e-06      28.5134 
         650      32.1662  0.000108634  3.64372e-06      28.5134 
         650      32.3404  0.000108667  3.53514e-06      28.5134 
         650      32.5149  0.000108687  3.43485e-06      28.5134 
         650        32.69  0.000108699  3.34143e-06      28.5134 
         650      32.8655  0.000108706  3.25394e-06      28.5134 
         650      33.0414  0.000108711  3.17168e-06      28.5134 
         650       33.218  0.000108717  3.09397e-06      28.5134 
         650      33.3948  0.000108726  3.02057e-06      28.5134 
         650      33.5723   0.00010874  2.95116e-06      28.5134 
         650        33.75  0.000108759   2.8858e-06      28.5134 
         650      33.9284  0.000108784   2.8244e-06      28.5134 
         650      34.1073  0.000108817  2.76715e-06      28.5134 
         650      34.2865  0.000108857  2.71424e-06      28.5134 
         650      34.4663  0.000108904  2.66578e-06      28.5134 
         650      34.6465  0.000108958  2.62202e-06      28.5134 
         650      34.8272  0.000109018  2.58306e-06      28.5134 
         650      35.0083  0.000109082  2.54902e-06      28.5134 
         650        35.19   0.00010915  2.51987e-06      28.5134 
         650      35.3721  0.000109207  2.48388e-06      28.5135 
         650      35.5546  0.000109217  2.40227e-06      28.5135 
         650      35.7377  0.000109238  2.31968e-06      28.5135 
         650      35.9211  0.000109267  2.23725e-06      28.5135 
         650      36.1052  0.000109302  2.15577e-06      28.5135 
         650      36.2895  0.000109343  2.07621e-06      28.5135 
         650      36.4745  0.000109388  1.99919e-06      28.5135 
         650      36.6598  0.000109436  1.92549e-06      28.5135 
         650      36.8457  0.000109485  1.85552e-06      28.5135 
         650      37.0321  0.000109534  1.78977e-06      28.5135 
         650      37.2188  0.000109582  1.72856e-06      28.5135 
         650      37.4062  0.000109629  1.67197e-06      28.5135 
         650      37.5938  0.000109672  1.62013e-06      28.5135 
         650      37.7821  0.000109711  1.57285e-06      28.5135 
         650      37.9707  0.000109746  1.53001e-06      28.5135 
         650      38.1599  0.000109776  1.49119e-06      28.5135 
         650      38.3496  0.000109799    1.456e-06      28.5135 
         650      38.5396  0.000109815  1.42393e-06      28.5135 
         650      38.7302  0.000109825   1.3943e-06      28.5135 
         650      38.9211  0.000109827   1.3665e-06      28.5135 
         650      39.1127  0.000109821  1.33976e-06      28.5135 
         650      39.3046  0.000109808  1.31339e-06      28.5135 
         650      39.4971  0.000109788  1.28661e-06      28.5135 
         650      39.6899  0.000109762  1.25881e-06      28.5135 
         650      39.8833  0.000109731  1.22934e-06      28.5135 
         650      40.0772  0.000109695  1.19773e-06      28.5135 
         650      40.2714  0.000109658   1.1637e-06      28.5135 
         650      40.4663   0.00010962  1.12709e-06      28.5135 
         650      40.6615  0.000109586  1.08813e-06      28.5135 
         650      40.8573  0.000109559  1.04723e-06      28.5135 
         650      41.0534  0.000109542  1.00533e-06      28.5135 
         650      41.2501  0.000109542  9.63672e-07      28.5135 
         650      41.4473  0.000109563  9.24143e-07      28.5135 
         650      41.6448  0.000109613  8.89214e-07      28.5135 
         650      41.8429    0.0001097   8.6196e-07      28.5135 
         650      42.0414  0.000109833  8.46328e-07      28.5135 
         650      42.2405  0.000110022   8.4707e-07      28.5135 
         650      42.4399  0.000109961  7.83068e-07      28.5135 
         650      42.6399  0.000109916  7.36145e-07      28.5135 
         650      42.8404  0.000109885  7.02025e-07      28.5135 
         650      43.0412  0.000109862  6.76537e-07      28.5135 
         650      43.2426  0.000109845  6.56265e-07      28.5135 
         650      43.4444   0.00010983  6.38611e-07      28.5135 
         650      43.6467  0.000109816  6.21581e-07      28.5135 
         650      43.8494    0.0001098  6.03835e-07      28.5135 
         650      44.0527  0.000109782  5.84501e-07      28.5135 
         650      44.2563  0.000109761  5.63224e-07      28.5135 
         650      44.4606  0.000109736  5.39971e-07      28.5135 
         650      44.6653  0.000109709  5.15082e-07      28.5135 
         650      44.8704   0.00010968  4.89156e-07      28.5135 
         650       45.076   0.00010965  4.62922e-07      28.5135 
         650       45.282  0.000109621   4.3732e-07      28.5135 
         650      45.4886  0.000109593   4.1328e-07      28.5135 
         650      45.6955  0.000109569  3.91818e-07      28.5135 
         650       45.903  0.000109551  3.73837e-07      28.5135 
         650      46.1111   0.00010954  3.60196e-07      28.5135 
         650      46.3194  0.000109539   3.5159e-07      28.5135 
         650      46.5283  0.000109551  3.48502e-07      28.5135 
         650      46.7376  0.000109576  3.51191e-07      28.5135 
         650      46.9475  0.000109619  3.59636e-07      28.5135 
         650      47.1577   0.00010968  3.73477e-07      28.5135 
         650      47.3685  0.000109762  3.92034e-07      28.5135 
         650      47.5798  0.000109868  4.14214e-07      28.5135 
         650      47.7914  0.000109998  4.38497e-07      28.5135 
         650      48.0037  0.000110156  4.62991e-07      28.5135 