Variables = x, y, u, v, p

Zone, I=800, F=POINT
         600            0           -0           -0     -34.8494 
         600     0.000234 -5.10402e-07  2.34848e-12     -34.8494 
         600     0.000939  -1.6856e-06  2.71878e-11     -34.8494 
         600     0.002113 -2.54401e-06  1.30095e-10     -34.8494 
         600     0.003759 -1.79101e-06  4.12005e-10     -34.8494 
         600     0.005872  1.77297e-06  1.02845e-09     -34.8494 
         600     0.008457  8.86767e-06  2.20821e-09     -34.8494 
         600      0.01151  1.94412e-05  4.26552e-09     -34.8494 
         600     0.015036  3.26829e-05  7.62903e-09     -34.8494 
         600     0.019031  4.72077e-05  1.28504e-08     -34.8494 
         600     0.023493  6.15754e-05  2.06297e-08     -34.8494 
         600     0.028429  7.48806e-05  3.18561e-08     -34.8494 
         600     0.033831  8.71216e-05  4.75759e-08     -34.8494 
         600     0.039706  9.93342e-05  6.90779e-08     -34.8494 
         600     0.046047  0.000112982  9.78202e-08     -34.8494 
         600     0.052863  0.000128911  1.35553e-07     -34.8494 
         600      0.06015  0.000146085  1.84195e-07     -34.8494 
         600       0.0679  0.000161564   2.4583e-07     -34.8494 
         600     0.076126  0.000174194   3.2291e-07     -34.8494 
         600     0.084816  0.000192609  4.17846e-07     -34.8494 
         600     0.093982  0.000206459  5.33501e-07     -34.8494 
         600     0.103611  0.000220771  6.72537e-07     -34.8494 
         600     0.113718  0.000234977  8.38082e-07     -34.8494 
         600     0.124286  0.000248613  1.03283e-06     -34.8494 
         600     0.135333  0.000261419  1.26012e-06     -34.8494 
         600      0.14685  0.000273255  1.52278e-06     -34.8494 
         600     0.158827  0.000284099  1.82345e-06     -34.8494 
         600     0.171284  0.000294015  2.16542e-06     -34.8494 
         600     0.184201  0.000303019  2.55075e-06     -34.8494 
         600     0.197599   0.00031109  2.98245e-06     -34.8494 
         600     0.211455  0.000318096  3.46193e-06     -34.8494 
         600     0.225792  0.000323927   3.9919e-06     -34.8494 
         600       0.2406  0.000328692  4.57375e-06     -34.8494 
         600     0.255865  0.000332775  5.20836e-06     -34.8494 
         600     0.271613  0.000335715  5.89732e-06     -34.8494 
         600     0.287818  0.000337803  6.64028e-06     -34.8494 
         600     0.304506  0.000339092    7.439e-06     -34.8494 
         600      0.32165  0.000339644  8.29238e-06     -34.8494 
         600     0.339278  0.000339528  9.20162e-06     -34.8494 
         600     0.357377  0.000338822  1.01656e-05     -34.8494 
         600      0.37593  0.000337606  1.11825e-05     -34.8494 
         600     0.394968  0.000335963   1.2253e-05     -34.8494 
         600     0.414461  0.000333981  1.33742e-05     -34.8494 
         600      0.43444  0.000331737  1.45467e-05     -34.8494 
         600     0.454872  0.000329315   1.5767e-05     -34.8494 
         600     0.475791  0.000326784  1.70359e-05     -34.8494 
         600     0.497163  0.000324215    1.835e-05     -34.8494 
         600     0.519021  0.000321666  1.97097e-05     -34.8494 
         600      0.54135  0.000319191  2.11126e-05     -34.8494 
         600     0.564131  0.000316842  2.25554e-05     -34.8494 
         600       0.5874  0.000314664  2.40377e-05     -34.8494 
         600     0.611121   0.00031271  2.55538e-05     -34.8494 
         600      0.63533  0.000310986  2.71097e-05     -34.8494 
         600      0.65999  0.000309514  2.86992e-05     -34.8494 
         600     0.685139  0.000308311  3.03225e-05     -34.8494 
         600     0.710759  0.000307386  3.19762e-05     -34.8494 
         600     0.736828  0.000306741  3.36562e-05     -34.8494 
         600     0.763387  0.000306366   3.5363e-05     -34.8494 
         600     0.790396  0.000306245  3.70913e-05     -34.8494 
         600     0.817896  0.000306351  3.88412e-05     -34.8494 
         600     0.845843  0.000306648  4.06072e-05     -34.8494 
         600     0.874283  0.000307096  4.23894e-05     -34.8494 
         600      0.90317  0.000307643  4.41818e-05     -34.8494 
         600     0.932551  0.000308233  4.59843e-05     -34.8494 
         600     0.962401  0.000308804  4.77919e-05     -34.8494 
         600     0.992697   0.00030929  4.95998e-05     -34.8494 
         600      1.02349  0.000309623  5.14071e-05     -34.8494 
         600      1.05472  0.000309734  5.32069e-05     -34.8494 
         600      1.08645  0.000309554  5.49982e-05     -34.8494 
         600      1.11863  0.000309018  5.67737e-05     -34.8494 
         600       1.1513  0.000308065   5.8532e-05     -34.8494 
         600      1.18444  0.000306642  6.02673e-05     -34.8494 
         600      1.21802  0.000304704  6.19742e-05     -34.8494 
         600      1.25211  0.000302214  6.36516e-05     -34.8494 
         600      1.28663  0.000299154  6.52933e-05     -34.8494 
         600      1.32165  0.000295509  6.68995e-05     -34.8494 
         600      1.35712  0.000291291  6.84661e-05     -34.8494 
         600      1.39308  0.000286513  6.99958e-05     -34.8494 
         600      1.42951  0.000281212  7.14895e-05     -34.8494 
         600      1.46638  0.000275443  7.29506e-05     -34.8494 
         600      1.50375  0.000269256  7.43897e-05     -34.8494 
         600      1.54156  0.000262507  7.57464e-05     -34.8494 
         600      1.57987  0.000255612  7.70679e-05     -34.8494 
         600      1.61863  0.000248621  7.83564e-05     -34.8494 
         600      1.65788  0.000241538  7.96138e-05     -34.8494 
         600      1.69757  0.000234389   8.0838e-05     -34.8494 
         600      1.73776  0.000227174  8.20304e-05     -34.8494 
         600      1.77842  0.000219908  8.31897e-05     -34.8494 
         600      1.81952  0.000212607  8.43144e-05     -34.8494 
         600      1.86113  0.000205265  8.54057e-05     -34.8494 
         600      1.90316  0.000197901  8.64609e-05     -34.8494 
         600      1.94571  0.000190506   8.7481e-05     -34.8494 
         600      1.98869  0.000183097  8.84633e-05     -34.8494 
         600      2.03217  0.000175662  8.94084e-05     -34.8494 
         600      2.07612  0.000168209  9.03144e-05     -34.8494 
         600      2.12051  0.000160745  9.11794e-05     -34.8494 
         600       2.1654  0.000153257  9.20034e-05     -34.8494 
         600      2.21073  0.000145756  9.27841e-05     -34.8494 
         600      2.25656   0.00013823  9.35213e-05     -34.8494 
         600      2.30283   0.00013069  9.42126e-05     -34.8494 
         600       2.3496  0.000123124  9.48578e-05     -34.8494 
         600      2.39685  0.000115538   9.5455e-05     -34.8494 
         600      2.44452  0.000107939  9.60028e-05     -34.8494 
         600      2.49271  0.000100317  9.65007e-05     -34.8494 
         600      2.54132  9.26867e-05  9.69471e-05     -34.8494 
         600      2.59044  8.50416e-05  9.73416e-05     -34.8494 
         600         2.64  7.73998e-05  9.76829e-05     -34.8494 
         600      2.69006  6.97573e-05  9.79707e-05     -34.8494 
         600      2.74056   6.2136e-05   9.8204e-05     -34.8494 
         600      2.79156  5.45356e-05   9.8383e-05     -34.8494 
         600      2.84304   4.6976e-05  9.85071e-05     -34.8494 
         600      2.89494  3.94784e-05  9.85764e-05     -34.8494 
         600      2.94735  3.20479e-05   9.8591e-05     -34.8494 
         600       3.0002  2.47149e-05  9.85513e-05     -34.8494 
         600      3.05355   1.7487e-05  9.84577e-05     -34.8494 
         600      3.10733  1.03954e-05   9.8311e-05     -34.8494 
         600      3.16163  3.44826e-06  9.81117e-05     -34.8494 
         600      3.21639 -3.33012e-06  9.78608e-05     -34.8494 
         600      3.27158 -9.91823e-06  9.75595e-05     -34.8494 
         600      3.32729 -1.63135e-05  9.72081e-05     -34.8494 
         600      3.38342 -2.24976e-05  9.68082e-05     -34.8494 
         600      3.44007 -2.84782e-05  9.63598e-05     -34.8494 
         600      3.49714 -3.42526e-05  9.58641e-05     -34.8494 
         600      3.55472 -3.98471e-05  9.53205e-05     -34.8494 
         600      3.61273 -4.52835e-05  9.47294e-05     -34.8494 
         600      3.67125 -5.06172e-05   9.4089e-05     -34.8494 
         600      3.73025 -5.59107e-05   9.3398e-05     -34.8494 
         600      3.78967 -6.06589e-05  9.26864e-05     -34.8494 
         600      3.84961  -6.5127e-05  9.19287e-05     -34.8494 
         600      3.90996 -6.95481e-05  9.11166e-05     -34.8494 
         600      3.97084 -7.38901e-05  9.02566e-05     -34.8494 
         600      4.03214 -7.81105e-05  8.93574e-05     -34.8494 
         600      4.09395 -8.21838e-05  8.84244e-05     -34.8494 
         600      4.15624 -8.60783e-05  8.74645e-05     -34.8494 
         600      4.21895 -8.97667e-05  8.64839e-05     -34.8494 
         600      4.28217 -9.32335e-05  8.54862e-05     -34.8494 
         600      4.34582 -9.64558e-05  8.44773e-05     -34.8494 
         600      4.40998 -9.94246e-05  8.34598e-05     -34.8494 
         600      4.47457 -0.000102124  8.24386e-05     -34.8494 
         600      4.53968 -0.000104551  8.14153e-05     -34.8494 
         600      4.60525 -0.000106699  8.03932e-05     -34.8494 
         600      4.67125 -0.000108565  7.93754e-05     -34.8494 
         600      4.73777 -0.000110153  7.83623e-05     -34.8494 
         600       4.8047 -0.000111464  7.73571e-05     -34.8494 
         600      4.87216 -0.000112506  7.63594e-05     -34.8494 
         600      4.94003 -0.000113286   7.5372e-05     -34.8494 
         600      5.00843 -0.000113818  7.43978e-05     -34.8494 
         600      5.07724 -0.000114161  7.35358e-05     -34.8494 
         600      5.14658 -0.000114276  7.26923e-05     -34.8494 
         600      5.21639 -0.000114171  7.18704e-05     -34.8494 
         600      5.28661 -0.000113858   7.1072e-05     -34.8494 
         600      5.35736 -0.000113349  7.02971e-05     -34.8494 
         600      5.42852 -0.000112658  6.95471e-05     -34.8494 
         600      5.50021   -0.0001118  6.88209e-05     -34.8494 
         600      5.57231 -0.000110793  6.81189e-05     -34.8494 
         600      5.64493 -0.000109651   6.7439e-05     -34.8494 
         600      5.71803 -0.000108395  6.67801e-05     -34.8494 
         600      5.79154 -0.000107042  6.61409e-05     -34.8494 
         600      5.86558 -0.000105611  6.55181e-05     -34.8494 
         600      5.94003 -0.000104122  6.49103e-05     -34.8494 
         600      6.01501 -0.000102591   6.4314e-05     -34.8494 
         600       6.0904 -0.000101039  6.37273e-05     -34.8494 
         600      6.16632   -9.948e-05  6.31469e-05     -34.8494 
         600      6.24271 -9.79302e-05  6.25707e-05     -34.8494 
         600       6.3195 -9.64043e-05  6.19971e-05     -34.8494 
         600      6.39683 -9.49108e-05  6.14235e-05     -34.8494 
         600      6.47457 -9.34599e-05  6.08498e-05     -34.8494 
         600      6.55284 -9.20532e-05  6.02748e-05     -34.8494 
         600      6.63152 -9.06927e-05  5.97003e-05     -34.8494 
         600      6.71073 -8.93708e-05  5.91273e-05     -34.8494 
         600      6.79034 -8.80782e-05  5.85602e-05     -34.8494 
         600      6.87049 -8.67947e-05  5.80032e-05     -34.8494 
         600      6.95111 -8.54955e-05  5.74639e-05     -34.8494 
         600      7.03214 -8.41999e-05  5.69143e-05     -34.8494 
         600       7.1137 -8.30151e-05  5.62836e-05     -34.8495 
         600      7.19566 -8.18319e-05   5.5663e-05     -34.8495 
         600      7.27816 -8.06508e-05  5.50497e-05     -34.8495 
         600      7.36106 -7.94759e-05   5.4443e-05     -34.8495 
         600      7.44451 -7.83076e-05   5.3841e-05     -34.8495 
         600      7.52842 -7.71488e-05  5.32434e-05     -34.8495 
         600      7.61273 -7.60021e-05  5.26502e-05     -34.8495 
         600      7.69758 -7.48673e-05  5.20604e-05     -34.8495 
         600      7.78283 -7.37476e-05  5.14747e-05     -34.8495 
         600      7.86862 -7.26422e-05  5.08925e-05     -34.8495 
         600      7.95481 -7.15539e-05  5.03145e-05     -34.8495 
         600      8.04155 -7.04815e-05  4.97401e-05     -34.8495 
         600      8.12868  -6.9427e-05  4.91699e-05     -34.8495 
         600      8.21635 -6.83891e-05  4.86028e-05     -34.8495 
         600      8.30449 -6.73683e-05  4.80388e-05     -34.8495 
         600      8.39303 -6.63653e-05  4.74772e-05     -34.8495 
         600      8.48211 -6.53779e-05  4.69159e-05     -34.8495 
         600      8.57159 -6.44069e-05   4.6354e-05     -34.8495 
         600      8.66161   -6.345e-05  4.57881e-05     -34.8495 
         600      8.75203 -6.25077e-05  4.52162e-05     -34.8495 
         600      8.84299 -6.15773e-05  4.46334e-05     -34.8495 
         600      8.93443 -6.06333e-05  4.40539e-05     -34.8495 
         600      9.02626 -5.96978e-05   4.3467e-05     -34.8495 
         600      9.11863 -5.87786e-05  4.28727e-05     -34.8495 
         600      9.21139 -5.78767e-05  4.22776e-05     -34.8495 
         600      9.30471 -5.69899e-05  4.16857e-05     -34.8495 
         600      9.39841 -5.61185e-05  4.11017e-05     -34.8495 
         600      9.49267   -5.526e-05  4.05275e-05     -34.8495 
         600      9.58739 -5.44137e-05  3.99652e-05     -34.8495 
         600      9.68251 -5.35788e-05  3.94161e-05     -34.8495 
         600      9.77817 -5.27526e-05  3.88793e-05     -34.8495 
         600      9.87422 -5.19352e-05  3.83549e-05     -34.8495 
         600      9.97083 -5.11243e-05  3.78408e-05     -34.8495 
         600      10.0678 -5.03206e-05  3.73358e-05     -34.8495 
         600      10.1654  -4.9523e-05  3.68369e-05     -34.8495 
         600      10.2633 -4.87334e-05  3.63426e-05     -34.8495 
         600      10.3618 -4.79525e-05  3.58496e-05     -34.8495 
         600      10.4607 -4.71839e-05  3.53563e-05     -34.8495 
         600      10.5601 -4.64328e-05  3.48614e-05     -34.8495 
         600        10.66 -4.57045e-05  3.43634e-05     -34.8495 
         600      10.7603 -4.50084e-05  3.38634e-05     -34.8495 
         600      10.8611 -4.43547e-05   3.3362e-05     -34.8495 
         600      10.9623 -4.37581e-05  3.28637e-05     -34.8495 
         600      11.0641 -4.30322e-05  3.24544e-05     -34.8495 
         600      11.1663 -4.22969e-05  3.20425e-05     -34.8495 
         600       11.269 -4.15911e-05  3.16162e-05     -34.8495 
         600      11.3721 -4.09106e-05  3.11828e-05     -34.8495 
         600      11.4757 -4.02539e-05  3.07489e-05     -34.8495 
         600      11.5798  -3.9617e-05  3.03181e-05     -34.8495 
         600      11.6844 -3.89982e-05  2.98936e-05     -34.8495 
         600      11.7894  -3.8394e-05  2.94765e-05     -34.8495 
         600       11.895 -3.78024e-05  2.90674e-05     -34.8495 
         600      12.0009 -3.72216e-05  2.86662e-05     -34.8495 
         600      12.1073  -3.6649e-05  2.82714e-05     -34.8495 
         600      12.2142 -3.60837e-05  2.78822e-05     -34.8495 
         600      12.3216 -3.55236e-05  2.74964e-05     -34.8495 
         600      12.4294 -3.49686e-05   2.7113e-05     -34.8495 
         600      12.5378 -3.44174e-05    2.673e-05     -34.8495 
         600      12.6465 -3.38706e-05  2.63469e-05     -34.8495 
         600      12.7558 -3.33274e-05  2.59626e-05     -34.8496 
         600      12.8656 -3.27887e-05  2.55772e-05     -34.8496 
         600      12.9757 -3.22556e-05  2.51921e-05     -34.8496 
         600      13.0864 -3.17281e-05   2.4808e-05     -34.8496 
         600      13.1975 -3.12083e-05  2.44281e-05     -34.8496 
         600      13.3092 -3.06965e-05  2.40551e-05     -34.8496 
         600      13.4212 -3.01944e-05  2.36941e-05     -34.8496 
         600      13.5338 -2.97024e-05  2.33497e-05     -34.8496 
         600      13.6468 -2.92216e-05  2.30284e-05     -34.8496 
         600      13.7603 -2.87524e-05  2.27374e-05     -34.8496 
         600      13.8743 -2.82938e-05  2.24836e-05     -34.8496 
         600      13.9886 -2.78548e-05  2.21718e-05     -34.8496 
         600      14.1036 -2.74273e-05  2.17627e-05     -34.8496 
         600      14.2189     -2.7e-05  2.13845e-05     -34.8496 
         600      14.3348 -2.65758e-05  2.10381e-05     -34.8496 
         600       14.451 -2.61593e-05  2.07194e-05     -34.8496 
         600      14.5678 -2.57531e-05  2.04157e-05     -34.8496 
         600      14.6851 -2.53602e-05  2.01061e-05     -34.8496 
         600      14.8028 -2.49828e-05  1.97593e-05     -34.8496 
         600       14.921 -2.46209e-05  1.93312e-05     -34.8496 
         600      15.0396 -2.43516e-05  1.92294e-05     -34.8496 
         600      15.1588 -2.40257e-05  1.90942e-05     -34.8496 
         600      15.2783 -2.36565e-05  1.88995e-05     -34.8496 
         600      15.3984  -2.3264e-05  1.86627e-05     -34.8496 
         600       15.519  -2.2864e-05  1.83984e-05     -34.8496 
         600        15.64 -2.24681e-05   1.8118e-05     -34.8496 
         600      15.7615 -2.20829e-05  1.78298e-05     -34.8496 
         600      15.8834 -2.17134e-05  1.75406e-05     -34.8496 
         600      16.0058 -2.13608e-05  1.72543e-05     -34.8496 
         600      16.1286 -2.10254e-05  1.69742e-05     -34.8496 
         600       16.252 -2.07051e-05  1.67017e-05     -34.8496 
         600      16.3759 -2.03977e-05  1.64375e-05     -34.8496 
         600      16.5002 -2.01005e-05   1.6182e-05     -34.8496 
         600       16.625 -1.98099e-05  1.59345e-05     -34.8496 
         600      16.7501 -1.95236e-05  1.56948e-05     -34.8496 
         600      16.8759 -1.92391e-05  1.54621e-05     -34.8496 
         600       17.002 -1.89555e-05  1.52365e-05     -34.8496 
         600      17.1287  -1.8672e-05  1.50176e-05     -34.8496 
         600      17.2557 -1.83895e-05  1.48061e-05     -34.8496 
         600      17.3834 -1.81094e-05  1.46024e-05     -34.8496 
         600      17.5115 -1.78343e-05  1.44079e-05     -34.8497 
         600      17.6399 -1.75678e-05  1.42239e-05     -34.8497 
         600       17.769  -1.7313e-05  1.40516e-05     -34.8497 
         600      17.8984 -1.70739e-05  1.38927e-05     -34.8497 
         600      18.0284 -1.68533e-05  1.37478e-05     -34.8497 
         600      18.1587 -1.66532e-05  1.36174e-05     -34.8497 
         600      18.2896 -1.64729e-05  1.35002e-05     -34.8497 
         600       18.421 -1.63093e-05  1.33938e-05     -34.8497 
         600      18.5528 -1.61549e-05  1.32931e-05     -34.8497 
         600      18.6851 -1.59966e-05  1.31899e-05     -34.8497 
         600      18.8178 -1.58148e-05  1.30726e-05     -34.8497 
         600      18.9511 -1.55808e-05  1.29242e-05     -34.8497 
         600      19.0847 -1.52561e-05  1.27228e-05     -34.8497 
         600      19.2189 -1.50815e-05  1.26394e-05     -34.8497 
         600      19.3535 -1.49132e-05    1.251e-05     -34.8497 
         600      19.4886 -1.47435e-05  1.23461e-05     -34.8497 
         600      19.6242 -1.45722e-05  1.21662e-05     -34.8497 
         600      19.7602 -1.43992e-05  1.19882e-05     -34.8497 
         600      19.8968 -1.42243e-05  1.18281e-05     -34.8497 
         600      20.0337 -1.40487e-05  1.17006e-05     -34.8497 
         600      20.1712 -1.38741e-05  1.16172e-05     -34.8497 
         600      20.3091 -1.37042e-05   1.1586e-05     -34.8497 
         600      20.4475 -1.35411e-05  1.16004e-05     -34.8497 
         600      20.5864 -1.32837e-05  1.12978e-05     -34.8497 
         600      20.7257 -1.30485e-05  1.10452e-05     -34.8497 
         600      20.8655 -1.28336e-05  1.08327e-05     -34.8497 
         600      21.0058 -1.26375e-05  1.06522e-05     -34.8497 
         600      21.1465  -1.2458e-05  1.04963e-05     -34.8497 
         600      21.2877 -1.22936e-05  1.03592e-05     -34.8497 
         600      21.4294 -1.21423e-05  1.02355e-05     -34.8498 
         600      21.5716 -1.20025e-05  1.01211e-05     -34.8498 
         600      21.7142 -1.18726e-05  1.00126e-05     -34.8498 
         600      21.8573 -1.17508e-05  9.90725e-06     -34.8498 
         600      22.0008 -1.16356e-05   9.8031e-06     -34.8498 
         600      22.1449 -1.15254e-05  9.69859e-06     -34.8498 
         600      22.2893 -1.14191e-05  9.59299e-06     -34.8498 
         600      22.4344 -1.13153e-05  9.48565e-06     -34.8498 
         600      22.5797  -1.1213e-05  9.37665e-06     -34.8498 
         600      22.7257 -1.11111e-05  9.26603e-06     -34.8498 
         600      22.8721  -1.1009e-05  9.15435e-06     -34.8498 
         600      23.0189 -1.09059e-05  9.04234e-06     -34.8498 
         600      23.1663 -1.08013e-05  8.93064e-06     -34.8498 
         600       23.314 -1.06951e-05  8.82031e-06     -34.8498 
         600      23.4623 -1.05868e-05   8.7121e-06     -34.8498 
         600       23.611 -1.04767e-05  8.60714e-06     -34.8498 
         600      23.7602 -1.03648e-05   8.5062e-06     -34.8498 
         600        23.91 -1.02515e-05  8.41024e-06     -34.8498 
         600        24.06 -1.01373e-05  8.32015e-06     -34.8498 
         600      24.2107 -1.00228e-05  8.23656e-06     -34.8498 
         600      24.3617 -9.90884e-06  8.16026e-06     -34.8498 
         600      24.5133 -9.80151e-06  8.08951e-06     -34.8498 
         600      24.6653 -9.75711e-06  8.00095e-06     -34.8498 
         600      24.8178 -9.71561e-06  7.91789e-06     -34.8499 
         600      24.9708 -9.67542e-06  7.83936e-06     -34.8499 
         600      25.1242 -9.63509e-06  7.76453e-06     -34.8499 
         600      25.2781 -9.59322e-06  7.69259e-06     -34.8499 
         600      25.4324 -9.54874e-06  7.62318e-06     -34.8499 
         600      25.5873 -9.50066e-06  7.55586e-06     -34.8499 
         600      25.7426 -9.44837e-06  7.49063e-06     -34.8499 
         600      25.8984 -9.39133e-06  7.42739e-06     -34.8499 
         600      26.0546 -9.32949e-06  7.36638e-06     -34.8499 
         600      26.2114 -9.26288e-06  7.30772e-06     -34.8499 
         600      26.3686 -9.19199e-06  7.25168e-06     -34.8499 
         600      26.5262 -9.11765e-06  7.19852e-06     -34.8499 
         600      26.6844 -9.04086e-06   7.1482e-06     -34.8499 
         600      26.8429 -8.96319e-06  7.10069e-06     -34.8499 
         600       27.002 -8.88635e-06  7.05547e-06     -34.8499 
         600      27.1615 -8.81263e-06  7.01174e-06     -34.8499 
         600      27.3216 -8.74445e-06  6.96804e-06     -34.8499 
         600      27.4821  -8.6848e-06  6.92228e-06     -34.8499 
         600       27.643   -8.637e-06  6.87154e-06     -34.8499 
         600      27.8044 -8.60459e-06  6.81176e-06       -34.85 
         600      27.9663 -8.59162e-06  6.73781e-06       -34.85 
         600      28.1287 -8.57599e-06   6.6828e-06       -34.85 
         600      28.2914 -8.52971e-06  6.63112e-06       -34.85 
         600      28.4548 -8.47187e-06   6.5464e-06       -34.85 
         600      28.6185 -8.40663e-06  6.43666e-06       -34.85 
         600      28.7828 -8.33821e-06  6.30939e-06       -34.85 
         600      28.9475 -8.27134e-06  6.17211e-06       -34.85 
         600      29.1126 -8.21124e-06    6.032e-06       -34.85 
         600      29.2784 -8.16362e-06  5.89542e-06       -34.85 
         600      29.4444 -8.13508e-06   5.7686e-06       -34.85 
         600       29.611 -8.07726e-06  5.92745e-06       -34.85 
         600       29.778 -8.03618e-06  6.04604e-06       -34.85 
         600      29.9456 -8.01028e-06   6.1108e-06       -34.85 
         600      30.1137 -7.99429e-06   6.1334e-06       -34.85 
         600      30.2821  -7.9837e-06  6.12421e-06       -34.85 
         600      30.4511 -7.97477e-06  6.09213e-06     -34.8501 
         600      30.6204 -7.96454e-06  6.04478e-06     -34.8501 
         600      30.7903 -7.95074e-06  5.98838e-06     -34.8501 
         600      30.9606 -7.93182e-06  5.92808e-06     -34.8501 
         600      31.1315  -7.9068e-06  5.86773e-06     -34.8501 
         600      31.3028 -7.87535e-06  5.81024e-06     -34.8501 
         600      31.4745 -7.83769e-06  5.75757e-06     -34.8501 
         600      31.6468 -7.79441e-06  5.71066e-06     -34.8501 
         600      31.8194 -7.74666e-06  5.66985e-06     -34.8501 
         600      31.9926 -7.69576e-06  5.63465e-06     -34.8501 
         600      32.1662 -7.64348e-06  5.60417e-06     -34.8501 
         600      32.3404 -7.59157e-06  5.57695e-06     -34.8501 
         600      32.5149 -7.54208e-06  5.55135e-06     -34.8501 
         600        32.69 -7.49686e-06  5.52545e-06     -34.8501 
         600      32.8655 -7.45779e-06  5.49741e-06     -34.8501 
         600      33.0414 -7.42649e-06  5.46549e-06     -34.8502 
         600       33.218 -7.40419e-06  5.42818e-06     -34.8502 
         600      33.3948 -7.39174e-06  5.38454e-06     -34.8502 
         600      33.5723 -7.38932e-06  5.33416e-06     -34.8502 
         600        33.75 -7.39641e-06  5.27758e-06     -34.8502 
         600      33.9284 -7.41161e-06  5.21621e-06     -34.8502 
         600      34.1073 -7.43243e-06  5.15282e-06     -34.8502 
         600      34.2865 -7.45515e-06  5.09163e-06     -34.8502 
         600      34.4663 -7.47472e-06  5.03839e-06     -34.8502 
         600      34.6465 -7.48443e-06  5.00094e-06     -34.8502 
         600      34.8272 -7.47582e-06  4.98912e-06     -34.8502 
         600      35.0083 -7.43846e-06  5.01525e-06     -34.8502 
         600        35.19 -7.35959e-06   5.0944e-06     -34.8502 
         600      35.3721 -7.22409e-06  5.24452e-06     -34.8503 
         600      35.5546 -7.17918e-06  5.17353e-06     -34.8503 
         600      35.7377 -7.15945e-06  5.10922e-06     -34.8503 
         600      35.9211 -7.15584e-06  5.05477e-06     -34.8503 
         600      36.1052 -7.16486e-06  5.00287e-06     -34.8503 
         600      36.2895  -7.1832e-06  4.94879e-06     -34.8503 
         600      36.4745 -7.20775e-06  4.88981e-06     -34.8503 
         600      36.6598 -7.23546e-06  4.82521e-06     -34.8503 
         600      36.8457 -7.26343e-06  4.75566e-06     -34.8503 
         600      37.0321 -7.28878e-06  4.68325e-06     -34.8503 
         600      37.2188 -7.30868e-06  4.61102e-06     -34.8503 
         600      37.4062 -7.32032e-06   4.5425e-06     -34.8504 
         600      37.5938 -7.32083e-06  4.48177e-06     -34.8504 
         600      37.7821 -7.30728e-06  4.43269e-06     -34.8504 
         600      37.9707 -7.27666e-06  4.39902e-06     -34.8504 
         600      38.1599  -7.2258e-06  4.38371e-06     -34.8504 
         600      38.3496 -7.16192e-06  4.37193e-06     -34.8504 
         600      38.5396 -7.12841e-06  4.35014e-06     -34.8504 
         600      38.7302 -7.12008e-06  4.33246e-06     -34.8504 
         600      38.9211 -7.12787e-06  4.31739e-06     -34.8504 
         600      39.1127 -7.14435e-06  4.30414e-06     -34.8504 
         600      39.3046 -7.16359e-06   4.2924e-06     -34.8504 
         600      39.4971 -7.18118e-06  4.28203e-06     -34.8505 
         600      39.6899 -7.19396e-06   4.2729e-06     -34.8505 
         600      39.8833 -7.20005e-06  4.26464e-06     -34.8505 
         600      40.0772 -7.19861e-06  4.25662e-06     -34.8505 
         600      40.2714 -7.18977e-06  4.24779e-06     -34.8505 
         600      40.4663 -7.17446e-06  4.23674e-06     -34.8505 
         600      40.6615 -7.15429e-06  4.22173e-06     -34.8505 
         600      40.8573 -7.13133e-06  4.20078e-06     -34.8505 
         600      41.0534 -7.10802e-06  4.17195e-06     -34.8505 
         600      41.2501 -7.08688e-06  4.13341e-06     -34.8505 
         600      41.4473 -7.07046e-06  4.08398e-06     -34.8506 
         600      41.6448 -7.06103e-06  4.02343e-06     -34.8506 
         600      41.8429 -7.06041e-06  3.95282e-06     -34.8506 
         600      42.0414 -7.06974e-06  3.87543e-06     -34.8506 
         600      42.2405 -7.08929e-06  3.79693e-06     -34.8506 
         600      42.4399 -7.11812e-06  3.72661e-06     -34.8506 
         600      42.6399   -7.154e-06  3.67775e-06     -34.8506 
         600      42.8404 -7.19293e-06  3.66899e-06     -34.8506 
         600      43.0412 -7.22898e-06  3.72499e-06     -34.8506 
         600      43.2426 -7.25408e-06  3.87792e-06     -34.8506 
         600      43.4444 -7.25641e-06  4.15931e-06     -34.8507 
         600      43.6467 -7.18125e-06  3.91925e-06     -34.8507 
         600      43.8494 -7.13718e-06  3.74464e-06     -34.8507 
         600      44.0527 -7.11665e-06  3.62222e-06     -34.8507 
         600      44.2563 -7.11328e-06  3.54084e-06     -34.8507 
         600      44.4606 -7.12162e-06  3.49059e-06     -34.8507 
         600      44.6653  -7.1371e-06  3.46317e-06     -34.8507 
         600      44.8704   -7.156e-06  3.45152e-06     -34.8507 
         600       45.076 -7.17535e-06  3.44979e-06     -34.8507 
         600       45.282 -7.19285e-06  3.45328e-06     -34.8508 
         600      45.4886 -7.20687e-06  3.45828e-06     -34.8508 
         600      45.6955 -7.21626e-06  3.46196e-06     -34.8508 
         600       45.903  -7.2204e-06  3.46234e-06     -34.8508 
         600      46.1111 -7.21907e-06  3.45812e-06     -34.8508 
         600      46.3194 -7.21242e-06  3.44865e-06     -34.8508 
         600      46.5283 -7.20086e-06  3.43377e-06     -34.8508 
         600      46.7376 -7.18506e-06  3.41382e-06     -34.8508 
         600      46.9475 -7.16581e-06  3.38943e-06     -34.8509 
         600      47.1577 -7.14407e-06   3.3616e-06     -34.8509 
         600      47.3685 -7.12079e-06  3.33146e-06     -34.8509 
         600      47.5798 -7.09695e-06  3.30032e-06     -34.8509 
         600      47.7914 -7.07351e-06  3.26962e-06     -34.8509 
         600      48.0037 -7.05123e-06  3.24071e-06     -34.8509 