Variables = x, y, u, v, p

Zone, I=800, F=POINT
         800            0           -0           -0      6.76349 
         800     0.000234   3.6927e-06 -4.59093e-11      6.76349 
         800     0.000939  1.32701e-05 -7.38606e-10      6.76349 
         800     0.002113  2.44858e-05 -3.74175e-09      6.76349 
         800     0.003759  3.16353e-05  -1.1852e-08      6.76349 
         800     0.005872  2.90889e-05 -2.89536e-08      6.76349 
         800     0.008457  1.29641e-05 -6.01356e-08      6.76349 
         800      0.01151 -1.77078e-05 -1.11553e-07      6.76349 
         800     0.015036 -6.07561e-05 -1.90662e-07      6.76349 
         800     0.019031  -0.00011141  -3.0592e-07      6.76349 
         800     0.023493 -0.000164052 -4.66909e-07      6.76349 
         800     0.028429 -0.000214396 -6.84716e-07      6.76349 
         800     0.033831 -0.000261004 -9.70912e-07      6.76349 
         800     0.039706 -0.000306139 -1.33884e-06      6.76349 
         800     0.046047 -0.000354032 -1.80201e-06      6.76349 
         800     0.052863 -0.000407566 -2.37597e-06      6.76349 
         800      0.06015 -0.000463828 -3.07615e-06      6.76349 
         800       0.0679  -0.00051331 -3.91798e-06      6.76349 
         800     0.076126 -0.000550761 -4.91965e-06      6.76349 
         800     0.084816 -0.000601563 -6.09683e-06      6.76349 
         800     0.093982 -0.000638746 -7.46841e-06      6.76349 
         800     0.103611 -0.000673951 -9.04962e-06      6.76349 
         800     0.113718 -0.000705783 -1.08598e-05      6.76349 
         800     0.124286 -0.000733097 -1.29123e-05      6.76349 
         800     0.135333 -0.000755242 -1.52262e-05      6.76349 
         800      0.14685 -0.000771873 -1.78145e-05      6.76349 
         800     0.158827 -0.000782965 -2.06883e-05      6.76349 
         800     0.171284 -0.000788695 -2.38645e-05      6.76349 
         800     0.184201 -0.000789242 -2.73487e-05      6.76349 
         800     0.197599 -0.000784699 -3.11556e-05      6.76349 
         800     0.211455 -0.000775034 -3.52857e-05      6.76349 
         800     0.225792 -0.000760218 -3.97513e-05      6.76349 
         800       0.2406 -0.000740764 -4.45529e-05      6.76349 
         800     0.255865 -0.000717807 -4.96874e-05      6.76349 
         800     0.271613  -0.00069068 -5.51629e-05      6.76349 
         800     0.287818 -0.000660367 -6.09684e-05      6.76349 
         800     0.304506 -0.000627279 -6.71093e-05      6.76349 
         800      0.32165 -0.000591952 -7.35701e-05      6.76349 
         800     0.339278 -0.000554827 -8.03547e-05      6.76349 
         800     0.357377 -0.000516433 -8.74499e-05      6.76349 
         800      0.37593 -0.000477303 -9.48397e-05      6.76349 
         800     0.394968 -0.000437859 -0.000102526      6.76349 
         800     0.414461 -0.000398625 -0.000110487      6.76349 
         800      0.43444 -0.000359975 -0.000118722      6.76349 
         800     0.454872 -0.000322373 -0.000127208      6.76349 
         800     0.475791 -0.000286117 -0.000135946      6.76349 
         800     0.497163 -0.000251587 -0.000144912      6.76349 
         800     0.519021 -0.000219007 -0.000154108      6.76349 
         800      0.54135 -0.000188637 -0.000163516      6.76349 
         800     0.564131 -0.000160702 -0.000173119      6.76349 
         800       0.5874 -0.000135328 -0.000182922      6.76349 
         800     0.611121 -0.000112702 -0.000192898      6.76349 
         800      0.63533 -9.28453e-05 -0.000203062      6.76349 
         800      0.65999  -7.5852e-05 -0.000213378      6.76349 
         800     0.685139 -6.17155e-05 -0.000223857      6.76349 
         800     0.710759 -5.04448e-05 -0.000234487      6.76349 
         800     0.736828 -4.20167e-05 -0.000245252      6.76349 
         800     0.763387 -3.63627e-05 -0.000256163      6.76349 
         800     0.790396 -3.34105e-05 -0.000267197      6.76349 
         800     0.817896 -3.30482e-05 -0.000278364      6.76349 
         800     0.845843 -3.51429e-05 -0.000289637      6.76349 
         800     0.874283 -3.95382e-05 -0.000301027      6.76349 
         800      0.90317 -4.60429e-05 -0.000312506      6.76349 
         800     0.932551 -5.44589e-05 -0.000324083      6.76349 
         800     0.962401 -6.45501e-05 -0.000335738      6.76349 
         800     0.992697 -7.60557e-05  -0.00034745      6.76349 
         800      1.02349 -8.87253e-05 -0.000359226      6.76349 
         800      1.05472 -0.000102254 -0.000371035      6.76349 
         800      1.08645  -0.00011637 -0.000382882      6.76349 
         800      1.11863 -0.000130747 -0.000394735      6.76349 
         800       1.1513 -0.000145104 -0.000406599      6.76349 
         800      1.18444 -0.000159128 -0.000418448      6.76349 
         800      1.21802 -0.000172513 -0.000430258      6.76349 
         800      1.25211 -0.000185004 -0.000442033      6.76349 
         800      1.28663 -0.000196323 -0.000453737      6.76349 
         800      1.32165 -0.000206262 -0.000465373      6.76349 
         800      1.35712 -0.000214615 -0.000476906      6.76349 
         800      1.39308 -0.000221253  -0.00048834      6.76349 
         800      1.42951 -0.000226081 -0.000499648      6.76349 
         800      1.46638 -0.000229074 -0.000510809      6.76349 
         800      1.50375 -0.000230291 -0.000521825      6.76349 
         800      1.54156 -0.000229908 -0.000532711      6.76349 
         800      1.57987 -0.000227742 -0.000543445      6.76349 
         800      1.61863 -0.000224029 -0.000554006      6.76349 
         800      1.65788 -0.000218998 -0.000564407      6.76349 
         800      1.69757 -0.000212874  -0.00057463      6.76349 
         800      1.73776 -0.000205851 -0.000584687      6.76349 
         800      1.77842 -0.000198117 -0.000594567      6.76349 
         800      1.81952 -0.000189845 -0.000604259      6.76349 
         800      1.86113  -0.00018117 -0.000613774      6.76349 
         800      1.90316 -0.000172235 -0.000623092      6.76349 
         800      1.94571 -0.000163136 -0.000632222      6.76349 
         800      1.98869  -0.00015398 -0.000641145      6.76349 
         800      2.03217 -0.000144827  -0.00064987      6.76349 
         800      2.07612 -0.000135744 -0.000658381      6.76349 
         800      2.12051 -0.000126778 -0.000666667       6.7635 
         800       2.1654 -0.000117942 -0.000674733       6.7635 
         800      2.21073 -0.000109265 -0.000682559       6.7635 
         800      2.25656 -0.000100732 -0.000690148       6.7635 
         800      2.30283 -9.23489e-05 -0.000697482       6.7635 
         800       2.3496 -8.40839e-05 -0.000704563       6.7635 
         800      2.39685 -7.59186e-05 -0.000711376       6.7635 
         800      2.44452 -6.78302e-05 -0.000717908       6.7635 
         800      2.49271 -5.97736e-05 -0.000724159       6.7635 
         800      2.54132 -5.17285e-05 -0.000730111       6.7635 
         800      2.59044  -4.3651e-05 -0.000735764       6.7635 
         800         2.64 -3.55261e-05   -0.0007411       6.7635 
         800      2.69006 -2.73186e-05 -0.000746119       6.7635 
         800      2.74056 -1.90264e-05 -0.000750804       6.7635 
         800      2.79156 -1.06297e-05 -0.000755154       6.7635 
         800      2.84304 -2.13844e-06 -0.000759159       6.7635 
         800      2.89494  6.42687e-06 -0.000762807       6.7635 
         800      2.94735  1.50552e-05 -0.000766098       6.7635 
         800       3.0002  2.36975e-05 -0.000769022       6.7635 
         800      3.05355  3.23226e-05 -0.000771577       6.7635 
         800      3.10733  4.08647e-05 -0.000773757       6.7635 
         800      3.16163  4.92797e-05 -0.000775561       6.7635 
         800      3.21639  5.75023e-05 -0.000776987      6.76351 
         800      3.27158  6.54713e-05 -0.000778033      6.76351 
         800      3.32729  7.31552e-05 -0.000778703      6.76351 
         800      3.38342  8.05158e-05 -0.000778998      6.76351 
         800      3.44007  8.75666e-05 -0.000778923      6.76351 
         800      3.49714  9.43382e-05 -0.000778484      6.76351 
         800      3.55472  0.000100936 -0.000777689      6.76351 
         800      3.61273  0.000107515 -0.000776549      6.76351 
         800      3.67125  0.000114338 -0.000775075      6.76351 
         800      3.73025  0.000121764 -0.000773279      6.76351 
         800      3.78967  0.000128658 -0.000771063      6.76351 
         800      3.84961  0.000134723 -0.000768458      6.76351 
         800      3.90996  0.000140483 -0.000765529      6.76351 
         800      3.97084  0.000145948 -0.000762284      6.76352 
         800      4.03214   0.00015111 -0.000758739      6.76352 
         800      4.09395  0.000155979   -0.0007549      6.76352 
         800      4.15624  0.000160554  -0.00075078      6.76352 
         800      4.21895  0.000164835 -0.000746394      6.76352 
         800      4.28217  0.000168833 -0.000741748      6.76352 
         800      4.34582  0.000172547 -0.000736861      6.76352 
         800      4.40998  0.000175987 -0.000731735      6.76352 
         800      4.47457  0.000179156 -0.000726391      6.76352 
         800      4.53968  0.000182064 -0.000720832      6.76352 
         800      4.60525  0.000184718 -0.000715074      6.76352 
         800      4.67125  0.000187123 -0.000709133      6.76353 
         800      4.73777  0.000189292  -0.00070301      6.76353 
         800       4.8047  0.000191231 -0.000696728      6.76353 
         800      4.87216  0.000192953 -0.000690287      6.76353 
         800      4.94003  0.000194464 -0.000683709      6.76353 
         800      5.00843  0.000195778 -0.000676993      6.76353 
         800      5.07724  0.000196904 -0.000670163      6.76353 
         800      5.14658  0.000197853 -0.000663216      6.76353 
         800      5.21639  0.000198637  -0.00065617      6.76353 
         800      5.28661  0.000199265 -0.000649041      6.76353 
         800      5.35736  0.000199751 -0.000641827      6.76353 
         800      5.42852  0.000200103 -0.000634549      6.76354 
         800      5.50021  0.000200335 -0.000627206      6.76354 
         800      5.57231  0.000200456 -0.000619818      6.76354 
         800      5.64493  0.000200477 -0.000612383      6.76354 
         800      5.71803  0.000200368 -0.000604859      6.76354 
         800      5.79154  0.000200171 -0.000597314      6.76354 
         800      5.86558  0.000199895 -0.000589744      6.76354 
         800      5.94003  0.000199551  -0.00058217      6.76354 
         800      6.01501  0.000199145  -0.00057459      6.76354 
         800       6.0904  0.000198686 -0.000567021      6.76354 
         800      6.16632  0.000198179 -0.000559459      6.76355 
         800      6.24271  0.000197633 -0.000551917      6.76355 
         800       6.3195  0.000197053 -0.000544406      6.76355 
         800      6.39683  0.000196443 -0.000536921      6.76355 
         800      6.47457  0.000195808 -0.000529478      6.76355 
         800      6.55284  0.000195151 -0.000522071      6.76355 
         800      6.63152  0.000194476 -0.000514714      6.76355 
         800      6.71073  0.000193784   -0.0005074      6.76355 
         800      6.79034  0.000193077 -0.000500143      6.76355 
         800      6.87049  0.000192354 -0.000492935      6.76355 
         800      6.95111  0.000191617 -0.000485783      6.76355 
         800      7.03214  0.000190864 -0.000478695      6.76356 
         800       7.1137  0.000190094  -0.00047166      6.76356 
         800      7.19566  0.000189305 -0.000464691      6.76356 
         800      7.27816  0.000188496 -0.000457776      6.76356 
         800      7.36106  0.000187666 -0.000450928      6.76356 
         800      7.44451   0.00018681 -0.000444135      6.76356 
         800      7.52842  0.000185928 -0.000437402      6.76356 
         800      7.61273  0.000185021 -0.000430735      6.76356 
         800      7.69758  0.000184086 -0.000424122      6.76356 
         800      7.78283  0.000183126 -0.000417575      6.76356 
         800      7.86862  0.000182141 -0.000411082      6.76356 
         800      7.95481  0.000181138 -0.000404654      6.76356 
         800      8.04155  0.000180122 -0.000398282      6.76357 
         800      8.12868  0.000179104 -0.000391978      6.76357 
         800      8.21635  0.000178096 -0.000385734      6.76357 
         800      8.30449  0.000177115 -0.000379558      6.76357 
         800      8.39303  0.000176183  -0.00037346      6.76357 
         800      8.48211  0.000175327 -0.000367435      6.76357 
         800      8.57159  0.000174581 -0.000361501      6.76357 
         800      8.66161  0.000173983 -0.000355657      6.76357 
         800      8.75203  0.000173549  -0.00034992      6.76357 
         800      8.84299   0.00017247 -0.000344169      6.76357 
         800      8.93443  0.000171438 -0.000338471      6.76357 
         800      9.02626  0.000170449 -0.000332835      6.76357 
         800      9.11863  0.000169498 -0.000327254      6.76357 
         800      9.21139  0.000168582 -0.000321739      6.76358 
         800      9.30471  0.000167695 -0.000316283      6.76358 
         800      9.39841  0.000166836 -0.000310896      6.76358 
         800      9.49267  0.000165999  -0.00030557      6.76358 
         800      9.58739  0.000165182 -0.000300311      6.76358 
         800      9.68251  0.000164382 -0.000295123      6.76358 
         800      9.77817  0.000163594 -0.000289998      6.76358 
         800      9.87422  0.000162817 -0.000284946      6.76358 
         800      9.97083  0.000162046 -0.000279957      6.76358 
         800      10.0678  0.000161279  -0.00027504      6.76358 
         800      10.1654  0.000160512 -0.000270187      6.76358 
         800      10.2633  0.000159744 -0.000265405      6.76358 
         800      10.3618  0.000158969 -0.000260687      6.76358 
         800      10.4607  0.000158186 -0.000256036      6.76358 
         800      10.5601  0.000157393 -0.000251456      6.76359 
         800        10.66  0.000156585 -0.000246938      6.76359 
         800      10.7603   0.00015576  -0.00024249      6.76359 
         800      10.8611  0.000155083 -0.000238026      6.76359 
         800      10.9623  0.000154398 -0.000233639      6.76359 
         800      11.0641  0.000153701  -0.00022932      6.76359 
         800      11.1663  0.000152997 -0.000225069      6.76359 
         800       11.269  0.000152288 -0.000220887      6.76359 
         800      11.3721  0.000151577 -0.000216765      6.76359 
         800      11.4757  0.000150868 -0.000212706      6.76359 
         800      11.5798  0.000150161 -0.000208703      6.76359 
         800      11.6844  0.000149459 -0.000204758      6.76359 
         800      11.7894  0.000148763 -0.000200864      6.76359 
         800       11.895  0.000148076 -0.000197023      6.76359 
         800      12.0009  0.000147397 -0.000193235      6.76359 
         800      12.1073  0.000146728 -0.000189495      6.76359 
         800      12.2142   0.00014607 -0.000185806       6.7636 
         800      12.3216  0.000145421 -0.000182164       6.7636 
         800      12.4294  0.000144783 -0.000178573       6.7636 
         800      12.5378  0.000144155 -0.000175027       6.7636 
         800      12.6465  0.000143536 -0.000171533       6.7636 
         800      12.7558  0.000142925 -0.000168086       6.7636 
         800      12.8656  0.000142323 -0.000164688       6.7636 
         800      12.9757  0.000141727 -0.000161344       6.7636 
         800      13.0864  0.000141136 -0.000158049       6.7636 
         800      13.1975   0.00014055  -0.00015481       6.7636 
         800      13.3092  0.000139968 -0.000151621       6.7636 
         800      13.4212  0.000139388 -0.000148489       6.7636 
         800      13.5338   0.00013881  -0.00014541       6.7636 
         800      13.6468  0.000138234 -0.000142385       6.7636 
         800      13.7603  0.000137661 -0.000139419       6.7636 
         800      13.8743   0.00013709 -0.000136504       6.7636 
         800      13.9886  0.000136523 -0.000133644       6.7636 
         800      14.1036  0.000135963 -0.000130834      6.76361 
         800      14.2189  0.000135414 -0.000128073      6.76361 
         800      14.3348   0.00013488 -0.000125354      6.76361 
         800       14.451  0.000134343 -0.000122673      6.76361 
         800      14.5678  0.000133809 -0.000120031      6.76361 
         800      14.6851  0.000133303 -0.000117437      6.76361 
         800      14.8028  0.000132818 -0.000114892      6.76361 
         800       14.921   0.00013235 -0.000112389      6.76361 
         800      15.0396  0.000131895 -0.000109934      6.76361 
         800      15.1588  0.000131449  -0.00010752      6.76361 
         800      15.2783  0.000131011 -0.000105152      6.76361 
         800      15.3984  0.000130577 -0.000102824      6.76361 
         800       15.519  0.000130146 -0.000100537      6.76361 
         800        15.64  0.000129718 -9.82919e-05      6.76361 
         800      15.7615   0.00012929 -9.60849e-05      6.76361 
         800      15.8834  0.000128863 -9.39183e-05      6.76361 
         800      16.0058  0.000128437 -9.17879e-05      6.76361 
         800      16.1286  0.000128012 -8.96961e-05      6.76361 
         800       16.252  0.000127588  -8.7639e-05      6.76361 
         800      16.3759  0.000127166 -8.56174e-05      6.76361 
         800      16.5002  0.000126746 -8.36322e-05      6.76362 
         800       16.625  0.000126331 -8.16796e-05      6.76362 
         800      16.7501   0.00012592  -7.9762e-05      6.76362 
         800      16.8759  0.000125514 -7.78759e-05      6.76362 
         800       17.002  0.000125115 -7.60237e-05      6.76362 
         800      17.1287  0.000124723  -7.4202e-05      6.76362 
         800      17.2557   0.00012434 -7.24133e-05      6.76362 
         800      17.3834  0.000123966 -7.06544e-05      6.76362 
         800      17.5115  0.000123602 -6.89266e-05      6.76362 
         800      17.6399  0.000123247 -6.72307e-05      6.76362 
         800       17.769  0.000122903 -6.55642e-05      6.76362 
         800      17.8984   0.00012257 -6.39293e-05      6.76362 
         800      18.0284  0.000122247 -6.23236e-05      6.76362 
         800      18.1587  0.000121934 -6.07495e-05      6.76362 
         800      18.2896   0.00012163 -5.92047e-05      6.76362 
         800       18.421  0.000121335 -5.76903e-05      6.76362 
         800      18.5528  0.000121048 -5.62078e-05      6.76362 
         800      18.6851  0.000120766  -5.4755e-05      6.76362 
         800      18.8178   0.00012049 -5.33342e-05      6.76362 
         800      18.9511  0.000120217 -5.19434e-05      6.76362 
         800      19.0847  0.000119946 -5.05851e-05      6.76362 
         800      19.2189  0.000119674 -4.92571e-05      6.76363 
         800      19.3535  0.000119401 -4.79618e-05      6.76363 
         800      19.4886  0.000119124 -4.66971e-05      6.76363 
         800      19.6242  0.000118842 -4.54642e-05      6.76363 
         800      19.7602  0.000118552 -4.42639e-05      6.76363 
         800      19.8968  0.000118255 -4.30941e-05      6.76363 
         800      20.0337  0.000117949 -4.19564e-05      6.76363 
         800      20.1712  0.000117633 -4.08485e-05      6.76363 
         800      20.3091  0.000117308 -3.97716e-05      6.76363 
         800      20.4475  0.000116975 -3.87231e-05      6.76363 
         800      20.5864  0.000116635 -3.77029e-05      6.76363 
         800      20.7257  0.000116292 -3.67103e-05      6.76363 
         800      20.8655  0.000115949 -3.57421e-05      6.76363 
         800      21.0058  0.000115612 -3.47979e-05      6.76363 
         800      21.1465  0.000115369 -3.38818e-05      6.76363 
         800      21.2877   0.00011521 -3.29609e-05      6.76363 
         800      21.4294  0.000115144 -3.20133e-05      6.76363 
         800      21.5716  0.000115197 -3.10204e-05      6.76363 
         800      21.7142    0.0001154 -2.99601e-05      6.76363 
         800      21.8573  0.000115194 -2.92383e-05      6.76363 
         800      22.0008  0.000114865 -2.85652e-05      6.76363 
         800      22.1449  0.000114545 -2.78448e-05      6.76363 
         800      22.2893  0.000114274 -2.70415e-05      6.76363 
         800      22.4344  0.000114049  -2.6185e-05      6.76364 
         800      22.5797   0.00011382 -2.53557e-05      6.76364 
         800      22.7257  0.000113595 -2.45515e-05      6.76364 
         800      22.8721  0.000113378 -2.37722e-05      6.76364 
         800      23.0189  0.000113172 -2.30176e-05      6.76364 
         800      23.1663  0.000112979 -2.22857e-05      6.76364 
         800       23.314  0.000112802 -2.15768e-05      6.76364 
         800      23.4623  0.000112639 -2.08891e-05      6.76364 
         800       23.611  0.000112491 -2.02228e-05      6.76364 
         800      23.7602  0.000112356 -1.95763e-05      6.76364 
         800        23.91  0.000112234 -1.89492e-05      6.76364 
         800        24.06  0.000112122 -1.83414e-05      6.76364 
         800      24.2107  0.000112018 -1.77512e-05      6.76364 
         800      24.3617  0.000111919 -1.71789e-05      6.76364 
         800      24.5133  0.000111824 -1.66228e-05      6.76364 
         800      24.6653  0.000111729 -1.60833e-05      6.76364 
         800      24.8178  0.000111632 -1.55588e-05      6.76364 
         800      24.9708  0.000111532 -1.50492e-05      6.76364 
         800      25.1242  0.000111426 -1.45543e-05      6.76364 
         800      25.2781  0.000111312 -1.40728e-05      6.76364 
         800      25.4324  0.000111191 -1.36049e-05      6.76364 
         800      25.5873   0.00011106 -1.31494e-05      6.76364 
         800      25.7426   0.00011092 -1.27065e-05      6.76365 
         800      25.8984  0.000110772 -1.22751e-05      6.76365 
         800      26.0546  0.000110615 -1.18555e-05      6.76365 
         800      26.2114  0.000110451 -1.14465e-05      6.76365 
         800      26.3686  0.000110281 -1.10482e-05      6.76365 
         800      26.5262  0.000110109 -1.06606e-05      6.76365 
         800      26.6844  0.000109936 -1.02826e-05      6.76365 
         800      26.8429  0.000109766 -9.91473e-06      6.76365 
         800       27.002  0.000109601 -9.55605e-06      6.76365 
         800      27.1615  0.000109444 -9.20695e-06      6.76365 
         800      27.3216    0.0001093 -8.86668e-06      6.76365 
         800      27.4821   0.00010917 -8.53539e-06      6.76365 
         800       27.643  0.000109058 -8.21321e-06      6.76365 
         800      27.8044  0.000108966 -7.89953e-06      6.76365 
         800      27.9663  0.000108896 -7.59481e-06      6.76365 
         800      28.1287  0.000108847 -7.29852e-06      6.76365 
         800      28.2914   0.00010882 -7.01116e-06      6.76365 
         800      28.4548  0.000108812 -6.73231e-06      6.76365 
         800      28.6185  0.000108819 -6.46247e-06      6.76365 
         800      28.7828  0.000108835 -6.20131e-06      6.76365 
         800      28.9475  0.000108851  -5.9492e-06      6.76366 
         800      29.1126  0.000108855 -5.70647e-06      6.76366 
         800      29.2784  0.000108831 -5.47293e-06      6.76366 
         800      29.4444  0.000108759 -5.24917e-06      6.76366 
         800       29.611  0.000108617 -5.03508e-06      6.76366 
         800       29.778  0.000108375 -4.83127e-06      6.76366 
         800      29.9456  0.000108267 -4.58885e-06      6.76366 
         800      30.1137   0.00010818  -4.3488e-06      6.76366 
         800      30.2821  0.000108104 -4.11418e-06      6.76366 
         800      30.4511  0.000108037 -3.88544e-06      6.76366 
         800      30.6204  0.000107978 -3.66362e-06      6.76366 
         800      30.7903  0.000107924 -3.44893e-06      6.76366 
         800      30.9606  0.000107875 -3.24213e-06      6.76366 
         800      31.1315   0.00010783 -3.04318e-06      6.76366 
         800      31.3028  0.000107787 -2.85244e-06      6.76366 
         800      31.4745  0.000107745 -2.67014e-06      6.76366 
         800      31.6468  0.000107705 -2.49599e-06      6.76366 
         800      31.8194  0.000107665 -2.33016e-06      6.76366 
         800      31.9926  0.000107624 -2.17224e-06      6.76367 
         800      32.1662  0.000107583 -2.02225e-06      6.76367 
         800      32.3404  0.000107541 -1.87966e-06      6.76367 
         800      32.5149  0.000107498 -1.74437e-06      6.76367 
         800        32.69  0.000107454 -1.61578e-06      6.76367 
         800      32.8655  0.000107408 -1.49362e-06      6.76367 
         800      33.0414  0.000107362 -1.37753e-06      6.76367 
         800       33.218  0.000107314 -1.26691e-06      6.76367 
         800      33.3948  0.000107266 -1.16146e-06      6.76367 
         800      33.5723  0.000107217 -1.06059e-06      6.76367 
         800        33.75  0.000107167 -9.64007e-07      6.76367 
         800      33.9284  0.000107118 -8.71134e-07      6.76367 
         800      34.1073  0.000107069 -7.81643e-07      6.76367 
         800      34.2865   0.00010702 -6.95223e-07      6.76367 
         800      34.4663  0.000106973 -6.11387e-07      6.76367 
         800      34.6465  0.000106926 -5.29959e-07      6.76367 
         800      34.8272  0.000106881 -4.50538e-07      6.76368 
         800      35.0083  0.000106838 -3.73027e-07      6.76368 
         800        35.19  0.000106797 -2.97127e-07      6.76368 
         800      35.3721  0.000106758 -2.22775e-07      6.76368 
         800      35.5546  0.000106722 -1.49959e-07      6.76368 
         800      35.7377  0.000106688 -7.85485e-08      6.76368 
         800      35.9211  0.000106656 -8.69808e-09      6.76368 
         800      36.1052  0.000106627  5.96055e-08      6.76368 
         800      36.2895  0.000106601    1.261e-07      6.76368 
         800      36.4745  0.000106577  1.90685e-07      6.76368 
         800      36.6598  0.000106555  2.52999e-07      6.76368 
         800      36.8457  0.000106535  3.12834e-07      6.76368 
         800      37.0321  0.000106516  3.69788e-07      6.76368 
         800      37.2188  0.000106498   4.2343e-07      6.76368 
         800      37.4062  0.000106479  4.73424e-07      6.76369 
         800      37.5938   0.00010646  5.19246e-07      6.76369 
         800      37.7821  0.000106439  5.60505e-07      6.76369 
         800      37.9707  0.000106416  5.96669e-07      6.76369 
         800      38.1599  0.000106389  6.27333e-07      6.76369 
         800      38.3496  0.000106356  6.52019e-07      6.76369 
         800      38.5396  0.000106317  6.70301e-07      6.76369 
         800      38.7302  0.000106269  6.81842e-07      6.76369 
         800      38.9211  0.000106212  6.86319e-07      6.76369 
         800      39.1127  0.000106142  6.83516e-07      6.76369 
         800      39.3046  0.000106059  6.73318e-07      6.76369 
         800      39.4971   0.00010618  7.25046e-07      6.76369 
         800      39.6899  0.000106335  8.38715e-07      6.76369 
         800      39.8833  0.000106504   1.0324e-06      6.76369 
         800      40.0772  0.000106669  1.32251e-06       6.7637 
         800      40.2714  0.000106365  1.30708e-06       6.7637 
         800      40.4663  0.000106172  1.33156e-06       6.7637 
         800      40.6615  0.000106078  1.38614e-06       6.7637 
         800      40.8573  0.000106057  1.44974e-06       6.7637 
         800      41.0534   0.00010601  1.45756e-06       6.7637 
         800      41.2501  0.000105988  1.46683e-06       6.7637 
         800      41.4473  0.000105983  1.47726e-06       6.7637 
         800      41.6448  0.000105988  1.48858e-06       6.7637 
         800      41.8429  0.000105998  1.50054e-06       6.7637 
         800      42.0414   0.00010601  1.51289e-06       6.7637 
         800      42.2405  0.000106019  1.52546e-06       6.7637 
         800      42.4399  0.000106025  1.53803e-06      6.76371 
         800      42.6399  0.000106025  1.55046e-06      6.76371 
         800      42.8404   0.00010602  1.56259e-06      6.76371 
         800      43.0412  0.000106009  1.57431e-06      6.76371 
         800      43.2426  0.000105992  1.58553e-06      6.76371 
         800      43.4444  0.000105971  1.59617e-06      6.76371 
         800      43.6467  0.000105947   1.6062e-06      6.76371 
         800      43.8494  0.000105921  1.61557e-06      6.76371 
         800      44.0527  0.000105894  1.62429e-06      6.76371 
         800      44.2563  0.000105868  1.63237e-06      6.76371 
         800      44.4606  0.000105844  1.63986e-06      6.76371 
         800      44.6653  0.000105824  1.64681e-06      6.76372 
         800      44.8704  0.000105808  1.65328e-06      6.76372 
         800       45.076  0.000105798  1.65937e-06      6.76372 
         800       45.282  0.000105794  1.66516e-06      6.76372 
         800      45.4886  0.000105796  1.67078e-06      6.76372 
         800      45.6955  0.000105805  1.67633e-06      6.76372 
         800       45.903  0.000105819  1.68194e-06      6.76372 
         800      46.1111   0.00010584  1.68773e-06      6.76372 
         800      46.3194  0.000105864  1.69381e-06      6.76372 
         800      46.5283  0.000105892   1.7003e-06      6.76372 
         800      46.7376  0.000105921  1.70729e-06      6.76372 
         800      46.9475   0.00010595  1.71488e-06      6.76373 
         800      47.1577  0.000105977  1.72312e-06      6.76373 
         800      47.3685     0.000106  1.73207e-06      6.76373 
         800      47.5798  0.000106017  1.74171e-06      6.76373 
         800      47.7914  0.000106025  1.75202e-06      6.76373 
         800      48.0037  0.000106024  1.76292e-06      6.76373 