Variables = x, y, u, v, p

Zone, I=800, F=POINT
          -5            0            0            0      134.084 
          -5     0.000234  1.05418e-05 -1.11921e-09      134.084 
          -5     0.000939  3.96873e-05  -4.2991e-09      134.084 
          -5     0.002113  8.02204e-05 -8.98261e-09      134.084 
          -5     0.003759  0.000122531 -1.43553e-08      134.084 
          -5     0.005872  0.000156938 -1.94143e-08      134.084 
          -5     0.008457  0.000176805 -2.31484e-08      134.084 
          -5      0.01151  0.000180126 -2.46017e-08      134.084 
          -5     0.015036  0.000170186 -2.29709e-08      134.084 
          -5     0.019031  0.000154289 -1.76129e-08      134.084 
          -5     0.023493  0.000140975 -8.01265e-09      134.084 
          -5     0.028429  0.000136455   6.3379e-09      134.084 
          -5     0.033831   0.00014168  2.59804e-08      134.084 
          -5     0.039706  0.000151472   5.1654e-08      134.084 
          -5     0.046047  0.000157108  8.41993e-08      134.084 
          -5     0.052863  0.000152478  1.24603e-07      134.084 
          -5      0.06015  0.000141317  1.73687e-07      134.084 
          -5       0.0679  0.000138695     2.32e-07      134.084 
          -5     0.076126   0.00015271  3.00167e-07      134.084 
          -5     0.084816  0.000138887  3.78526e-07      134.084 
          -5     0.093982  0.000142248  4.68833e-07      134.084 
          -5     0.103611  0.000142198  5.73375e-07      134.084 
          -5     0.113718  0.000140429  6.87759e-07      134.084 
          -5     0.124286  0.000138161  8.10088e-07      134.084 
          -5     0.135333  0.000136078  9.41329e-07      134.084 
          -5      0.14685   0.00013438  1.08365e-06      134.084 
          -5     0.158827  0.000132897  1.23929e-06      134.084 
          -5     0.171284  0.000131296  1.40935e-06      134.084 
          -5     0.184201  0.000129332  1.59167e-06      134.084 
          -5     0.197599  0.000127043  1.78172e-06      134.084 
          -5     0.211455  0.000124822   1.9736e-06      134.084 
          -5     0.225792  0.000123145  2.16746e-06      134.084 
          -5       0.2406  0.000121775   2.3807e-06      134.084 
          -5     0.255865  0.000119432  2.63594e-06      134.084 
          -5     0.271613  0.000117703  2.87742e-06      134.084 
          -5     0.287818  0.000116058  3.11322e-06      134.084 
          -5     0.304506  0.000114491   3.3479e-06      134.084 
          -5      0.32165  0.000113006   3.5852e-06      134.084 
          -5     0.339278  0.000111609  3.82589e-06      134.084 
          -5     0.357377  0.000110307  4.07018e-06      134.084 
          -5      0.37593   0.00010911  4.31825e-06      134.084 
          -5     0.394968  0.000108023   4.5709e-06      134.085 
          -5     0.414461  0.000107053   4.8281e-06      134.085 
          -5      0.43444  0.000106205  5.09059e-06      134.085 
          -5     0.454872  0.000105486  5.35822e-06      134.085 
          -5     0.475791  0.000104899  5.63168e-06      134.085 
          -5     0.497163  0.000104449  5.91068e-06      134.085 
          -5     0.519021  0.000104139  6.19575e-06      134.085 
          -5      0.54135  0.000103969  6.48669e-06      134.085 
          -5     0.564131  0.000103941  6.78317e-06      134.085 
          -5       0.5874  0.000104054  7.08547e-06      134.085 
          -5     0.611121  0.000104306  7.39283e-06      134.085 
          -5      0.63533  0.000104695  7.70531e-06      134.085 
          -5      0.65999  0.000105214  8.02195e-06      134.085 
          -5     0.685139  0.000105858  8.34262e-06      134.085 
          -5     0.710759   0.00010662  8.66638e-06      134.085 
          -5     0.736828  0.000107488  8.99214e-06      134.085 
          -5     0.763387  0.000108455  9.31953e-06      134.085 
          -5     0.790396  0.000109505  9.64707e-06      134.085 
          -5     0.817896  0.000110627  9.97422e-06      134.085 
          -5     0.845843  0.000111804  1.02994e-05      134.085 
          -5     0.874283  0.000113025  1.06219e-05      134.085 
          -5      0.90317   0.00011427  1.09401e-05      134.085 
          -5     0.932551  0.000115527  1.12534e-05      134.085 
          -5     0.962401  0.000116781  1.15603e-05      134.085 
          -5     0.992697  0.000118016  1.18593e-05      134.085 
          -5      1.02349  0.000119225  1.21499e-05      134.085 
          -5      1.05472  0.000120399  1.24303e-05      134.085 
          -5      1.08645  0.000121537  1.27001e-05      134.085 
          -5      1.11863  0.000122643  1.29576e-05      134.086 
          -5       1.1513  0.000123739   1.3204e-05      134.086 
          -5      1.18444  0.000124801  1.34428e-05      134.086 
          -5      1.21802  0.000125779  1.36645e-05      134.086 
          -5      1.25211  0.000126714  1.38704e-05      134.086 
          -5      1.28663  0.000127629  1.40613e-05      134.086 
          -5      1.32165  0.000128544  1.42384e-05      134.086 
          -5      1.35712  0.000129463  1.44019e-05      134.086 
          -5      1.39308  0.000130386  1.45526e-05      134.086 
          -5      1.42951  0.000131306  1.46905e-05      134.086 
          -5      1.46638  0.000132209   1.4815e-05      134.086 
          -5      1.50375  0.000133081  1.49259e-05      134.086 
          -5      1.54156  0.000133904  1.50216e-05      134.087 
          -5      1.57987  0.000134665  1.51006e-05      134.087 
          -5      1.61863  0.000135347  1.51606e-05      134.087 
          -5      1.65788  0.000135944  1.51987e-05      134.087 
          -5      1.69757  0.000136449  1.52111e-05      134.087 
          -5      1.73776  0.000136863  1.51935e-05      134.087 
          -5      1.77842  0.000137194  1.51405e-05      134.087 
          -5      1.81952  0.000137486  1.51018e-05      134.087 
          -5      1.86113  0.000137737  1.50346e-05      134.087 
          -5      1.90316  0.000137961  1.49392e-05      134.088 
          -5      1.94571  0.000138179  1.48216e-05      134.088 
          -5      1.98869  0.000138409   1.4686e-05      134.088 
          -5      2.03217  0.000138661  1.45323e-05      134.088 
          -5      2.07612  0.000138932   1.4355e-05      134.088 
          -5      2.12051  0.000139244  1.41732e-05      134.088 
          -5       2.1654  0.000139582  1.39786e-05      134.088 
          -5      2.21073  0.000139909  1.37578e-05      134.089 
          -5      2.25656  0.000140224  1.35211e-05      134.089 
          -5      2.30283  0.000140523  1.32717e-05      134.089 
          -5       2.3496  0.000140796  1.30042e-05      134.089 
          -5      2.39685  0.000141066  1.27061e-05      134.089 
          -5      2.44452  0.000141328  1.23873e-05      134.089 
          -5      2.49271  0.000141542  1.20506e-05      134.089 
          -5      2.54132  0.000141693   1.1694e-05       134.09 
          -5      2.59044  0.000141772  1.13145e-05       134.09 
          -5         2.64  0.000141769  1.09112e-05       134.09 
          -5      2.69006  0.000141681  1.04829e-05       134.09 
          -5      2.74056  0.000141508  1.00307e-05       134.09 
          -5      2.79156  0.000141254  9.55601e-06      134.091 
          -5      2.84304   0.00014093  9.06245e-06      134.091 
          -5      2.89494  0.000140548  8.55527e-06      134.091 
          -5      2.94735  0.000140126  8.03967e-06      134.091 
          -5       3.0002  0.000139687  7.52339e-06      134.091 
          -5      3.05355  0.000139253  7.01295e-06      134.091 
          -5      3.10733  0.000138847  6.51611e-06      134.092 
          -5      3.16163  0.000138489   6.0378e-06      134.092 
          -5      3.21639  0.000138196  5.58163e-06      134.092 
          -5      3.27158  0.000137972  5.14707e-06      134.092 
          -5      3.32729  0.000137811  4.72668e-06      134.092 
          -5      3.38342  0.000137788  4.33449e-06      134.093 
          -5      3.44007  0.000137942  3.98926e-06      134.093 
          -5      3.49714  0.000138165  3.68255e-06      134.093 
          -5      3.55472  0.000138478  3.42614e-06      134.093 
          -5      3.61273  0.000138864  3.21699e-06      134.094 
          -5      3.67125   0.00013928  3.04488e-06      134.094 
          -5      3.73025  0.000139673  2.90141e-06      134.094 
          -5      3.78967  0.000139999  2.78531e-06      134.094 
          -5      3.84961  0.000140243  2.70576e-06      134.094 
          -5      3.90996  0.000140436  2.68373e-06      134.095 
          -5      3.97084  0.000140738  2.55269e-06      134.095 
          -5      4.03214  0.000141031  2.47187e-06      134.095 
          -5      4.09395  0.000141317  2.43161e-06      134.095 
          -5      4.15624  0.000141595   2.4199e-06      134.095 
          -5      4.21895  0.000141866  2.42565e-06      134.096 
          -5      4.28217  0.000142131  2.43931e-06      134.096 
          -5      4.34582  0.000142387  2.45316e-06      134.096 
          -5      4.40998  0.000142635  2.46164e-06      134.096 
          -5      4.47457   0.00014287  2.46148e-06      134.097 
          -5      4.53968  0.000143091  2.45167e-06      134.097 
          -5      4.60525  0.000143294  2.43338e-06      134.097 
          -5      4.67125  0.000143476  2.40955e-06      134.097 
          -5      4.73777  0.000143636  2.38434e-06      134.097 
          -5       4.8047  0.000143771  2.36237e-06      134.098 
          -5      4.87216   0.00014388  2.34759e-06      134.098 
          -5      4.94003  0.000143967  2.34197e-06      134.098 
          -5      5.00843  0.000144036  2.34374e-06      134.098 
          -5      5.07724  0.000144096  2.34533e-06      134.098 
          -5      5.14658  0.000144162  2.33088e-06      134.099 
          -5      5.21639  0.000144256  2.27485e-06      134.099 
          -5      5.28661  0.000144355   2.1565e-06      134.099 
          -5      5.35736  0.000144477  2.12432e-06      134.099 
          -5      5.42852  0.000144508  2.11057e-06      134.099 
          -5      5.50021  0.000144507  2.11881e-06      134.099 
          -5      5.57231  0.000144518  2.09361e-06        134.1 
          -5      5.64493  0.000144537  2.05503e-06        134.1 
          -5      5.71803  0.000144558  2.01645e-06        134.1 
          -5      5.79154  0.000144582  1.98594e-06        134.1 
          -5      5.86558  0.000144606   1.9674e-06        134.1 
          -5      5.94003  0.000144631   1.9619e-06        134.1 
          -5      6.01501  0.000144657  1.96866e-06        134.1 
          -5       6.0904  0.000144686  1.98596e-06      134.101 
          -5      6.16632  0.000144719  2.01192e-06      134.101 
          -5      6.24271  0.000144757  2.04499e-06      134.101 
          -5       6.3195    0.0001448   2.0842e-06      134.101 
          -5      6.39683  0.000144848   2.1293e-06      134.101 
          -5      6.47457  0.000144902  2.18023e-06      134.101 
          -5      6.55284  0.000144959  2.23673e-06      134.101 
          -5      6.63152  0.000145019  2.29695e-06      134.101 
          -5      6.71073  0.000145079  2.35626e-06      134.101 
          -5      6.79034  0.000145137  2.40494e-06      134.101 
          -5      6.87049  0.000145191  2.42587e-06      134.101 
          -5      6.95111  0.000145239  2.39118e-06      134.101 
          -5      7.03214  0.000145279   2.2741e-06      134.101 
          -5       7.1137  0.000145294  2.46746e-06      134.101 
          -5      7.19566  0.000145303  2.61727e-06      134.101 
          -5      7.27816  0.000145319  2.73841e-06      134.101 
          -5      7.36106  0.000145344  2.84241e-06      134.101 
          -5      7.44451  0.000145377  2.93868e-06      134.101 
          -5      7.52842   0.00014541  3.03414e-06      134.101 
          -5      7.61273  0.000145437  3.13373e-06      134.101 
          -5      7.69758  0.000145448  3.24087e-06      134.101 
          -5      7.78283  0.000145438  3.35697e-06      134.101 
          -5      7.86862  0.000145402   3.4822e-06      134.101 
          -5      7.95481  0.000145341  3.61471e-06      134.101 
          -5      8.04155   0.00014526  3.75127e-06      134.101 
          -5      8.12868  0.000145166  3.88622e-06      134.101 
          -5      8.21635  0.000145073  4.01196e-06      134.101 
          -5      8.30449  0.000144996  4.11764e-06      134.101 
          -5      8.39303  0.000144951  4.18901e-06        134.1 
          -5      8.48211  0.000144953  4.20763e-06        134.1 
          -5      8.57159  0.000144871    4.277e-06        134.1 
          -5      8.66161  0.000144679   4.4489e-06        134.1 
          -5      8.75203  0.000144498  4.59169e-06        134.1 
          -5      8.84299  0.000144327  4.65101e-06        134.1 
          -5      8.93443  0.000144173  4.55829e-06      134.099 
          -5      9.02626  0.000144042  4.22674e-06      134.099 
          -5      9.11863  0.000144034  4.22445e-06      134.099 
          -5      9.21139  0.000144061  4.36566e-06      134.099 
          -5      9.30471  0.000144072   4.3892e-06      134.098 
          -5      9.39841  0.000144072  4.35832e-06      134.098 
          -5      9.49267  0.000144074  4.32531e-06      134.098 
          -5      9.58739  0.000144086  4.33366e-06      134.097 
          -5      9.68251   0.00014411  4.39694e-06      134.097 
          -5      9.77817   0.00014409  4.41058e-06      134.097 
          -5      9.87422  0.000144053  4.48865e-06      134.096 
          -5      9.97083  0.000144011  4.60631e-06      134.096 
          -5      10.0678  0.000143971  4.73984e-06      134.096 
          -5      10.1654  0.000143937  4.87061e-06      134.095 
          -5      10.2633  0.000143909  4.98659e-06      134.095 
          -5      10.3618  0.000143886  5.08417e-06      134.094 
          -5      10.4607  0.000143863  5.16724e-06      134.094 
          -5      10.5601  0.000143837  5.24572e-06      134.093 
          -5        10.66  0.000143804  5.33232e-06      134.093 
          -5      10.7603   0.00014376  5.43691e-06      134.092 
          -5      10.8611  0.000143708  5.55998e-06      134.092 
          -5      10.9623   0.00014365  5.68277e-06      134.091 
          -5      11.0641  0.000143598  5.75646e-06      134.091 
          -5      11.1663  0.000143569  5.68748e-06       134.09 
          -5       11.269  0.000143492  5.57521e-06      134.089 
          -5      11.3721  0.000143314  5.78935e-06      134.089 
          -5      11.4757  0.000143236  5.88307e-06      134.088 
          -5      11.5798  0.000143209  5.89431e-06      134.088 
          -5      11.6844  0.000143198  5.85311e-06      134.087 
          -5      11.7894  0.000143178  5.78352e-06      134.086 
          -5       11.895  0.000143136  5.70524e-06      134.085 
          -5      12.0009  0.000143062  5.63488e-06      134.085 
          -5      12.1073  0.000142956  5.58698e-06      134.084 
          -5      12.2142  0.000142819  5.57521e-06      134.083 
          -5      12.3216  0.000142657  5.61283e-06      134.082 
          -5      12.4294  0.000142477  5.71315e-06      134.082 
          -5      12.5378  0.000142283  5.88983e-06      134.081 
          -5      12.6465  0.000142082  6.15603e-06       134.08 
          -5      12.7558  0.000141876  6.52492e-06      134.079 
          -5      12.8656  0.000142054  6.46066e-06      134.078 
          -5      12.9757  0.000142176  6.39325e-06      134.077 
          -5      13.0864  0.000142209  6.39106e-06      134.076 
          -5      13.1975  0.000142171  6.45935e-06      134.075 
          -5      13.3092  0.000142089  6.59355e-06      134.074 
          -5      13.4212  0.000141988  6.77987e-06      134.073 
          -5      13.5338  0.000141893   6.9981e-06      134.072 
          -5      13.6468  0.000141823  7.22343e-06      134.071 
          -5      13.7603  0.000141783  7.43082e-06       134.07 
          -5      13.8743  0.000141757  7.60043e-06      134.069 
          -5      13.9886  0.000141702  7.72265e-06      134.068 
          -5      14.1036   0.00014154  7.80648e-06      134.067 
          -5      14.2189  0.000141428  7.95025e-06      134.066 
          -5      14.3348  0.000141535  8.19088e-06      134.065 
          -5       14.451  0.000141539  8.41265e-06      134.063 
          -5      14.5678  0.000141479  8.60684e-06      134.062 
          -5      14.6851  0.000141385  8.77201e-06      134.061 
          -5      14.8028   0.00014128  8.91254e-06       134.06 
          -5       14.921   0.00014118  9.03701e-06      134.058 
          -5      15.0396  0.000141096  9.15561e-06      134.057 
          -5      15.1588  0.000141035   9.2792e-06      134.056 
          -5      15.2783  0.000140999  9.41693e-06      134.054 
          -5      15.3984  0.000140987  9.57554e-06      134.053 
          -5       15.519  0.000140998  9.75733e-06      134.052 
          -5        15.64  0.000141026  9.95915e-06       134.05 
          -5      15.7615  0.000141068   1.0172e-05      134.049 
          -5      15.8834   0.00014112  1.03791e-05      134.047 
          -5      16.0058  0.000141178  1.05566e-05      134.046 
          -5      16.1286  0.000140977  1.08767e-05      134.044 
          -5       16.252  0.000140615   1.1256e-05      134.043 
          -5      16.3759  0.000140272  1.15765e-05      134.041 
          -5      16.5002  0.000139966   1.1845e-05       134.04 
          -5       16.625  0.000139712  1.20706e-05      134.038 
          -5      16.7501  0.000139518  1.22625e-05      134.036 
          -5      16.8759   0.00013939  1.24311e-05      134.035 
          -5       17.002  0.000139325  1.25844e-05      134.033 
          -5      17.1287  0.000139317   1.2728e-05      134.031 
          -5      17.2557  0.000139353  1.28612e-05       134.03 
          -5      17.3834  0.000139414  1.29756e-05      134.028 
          -5      17.5115  0.000139476    1.305e-05      134.026 
          -5      17.6399  0.000139512  1.30476e-05      134.024 
          -5       17.769   0.00013949  1.29106e-05      134.022 
          -5      17.8984  0.000139709  1.32312e-05      134.021 
          -5      18.0284  0.000139795  1.34801e-05      134.019 
          -5      18.1587  0.000139754  1.36455e-05      134.017 
          -5      18.2896  0.000139627  1.37696e-05      134.015 
          -5       18.421  0.000139457  1.38783e-05      134.013 
          -5      18.5528  0.000139279  1.39847e-05      134.011 
          -5      18.6851  0.000139122  1.40912e-05      134.009 
          -5      18.8178  0.000139009  1.41919e-05      134.007 
          -5      18.9511  0.000138958  1.42746e-05      134.005 
          -5      19.0847  0.000138976  1.43226e-05      134.003 
          -5      19.2189  0.000139022  1.44405e-05          134 
          -5      19.3535  0.000139013  1.47309e-05      133.998 
          -5      19.4886  0.000138979  1.49908e-05      133.996 
          -5      19.6242  0.000138911  1.52276e-05      133.994 
          -5      19.7602  0.000138805  1.54494e-05      133.992 
          -5      19.8968  0.000138666  1.56644e-05      133.989 
          -5      20.0337  0.000138502  1.58787e-05      133.987 
          -5      20.1712  0.000138326   1.6097e-05      133.985 
          -5      20.3091  0.000138151   1.6321e-05      133.982 
          -5      20.4475  0.000137991  1.65501e-05       133.98 
          -5      20.5864  0.000137857  1.67811e-05      133.978 
          -5      20.7257  0.000137757  1.70084e-05      133.975 
          -5      20.8655  0.000137694  1.72256e-05      133.973 
          -5      21.0058  0.000137663  1.74255e-05       133.97 
          -5      21.1465   0.00013765  1.76028e-05      133.968 
          -5      21.2877  0.000137635  1.77545e-05      133.965 
          -5      21.4294  0.000137581  1.78839e-05      133.963 
          -5      21.5716  0.000137443  1.80018e-05       133.96 
          -5      21.7142  0.000137268  1.81914e-05      133.957 
          -5      21.8573  0.000137318  1.82655e-05      133.955 
          -5      22.0008  0.000137476  1.82689e-05      133.952 
          -5      22.1449  0.000137639  1.82529e-05      133.949 
          -5      22.2893  0.000137745  1.82434e-05      133.947 
          -5      22.4344  0.000137761  1.82494e-05      133.944 
          -5      22.5797   0.00013768  1.82706e-05      133.941 
          -5      22.7257  0.000137515  1.83047e-05      133.938 
          -5      22.8721  0.000137292  1.83536e-05      133.935 
          -5      23.0189  0.000137043  1.84291e-05      133.932 
          -5      23.1663  0.000136797  1.85583e-05       133.93 
          -5       23.314  0.000136578  1.87873e-05      133.927 
          -5      23.4623  0.000136396  1.90506e-05      133.924 
          -5       23.611  0.000136251  1.89043e-05      133.921 
          -5      23.7602  0.000136111  1.88856e-05      133.918 
          -5        23.91  0.000135971  1.89632e-05      133.915 
          -5        24.06  0.000135829  1.91052e-05      133.911 
          -5      24.2107  0.000135683  1.92805e-05      133.908 
          -5      24.3617  0.000135534  1.94595e-05      133.905 
          -5      24.5133  0.000135385  1.96166e-05      133.902 
          -5      24.6653  0.000135239  1.97305e-05      133.899 
          -5      24.8178  0.000135102  1.97878e-05      133.895 
          -5      24.9708  0.000134981  1.97849e-05      133.892 
          -5      25.1242  0.000134884  1.97309e-05      133.889 
          -5      25.2781  0.000134816  1.96509e-05      133.886 
          -5      25.4324  0.000134784  1.95899e-05      133.882 
          -5      25.5873   0.00013479  1.96169e-05      133.879 
          -5      25.7426  0.000134834  1.98293e-05      133.875 
          -5      25.8984  0.000134908  2.03587e-05      133.872 
          -5      26.0546  0.000134998  2.13746e-05      133.868 
          -5      26.2114  0.000134754  2.15357e-05      133.865 
          -5      26.3686  0.000134395  2.11095e-05      133.861 
          -5      26.5262  0.000134148  2.09417e-05      133.858 
          -5      26.6844  0.000133989  2.09515e-05      133.854 
          -5      26.8429  0.000133899  2.10738e-05       133.85 
          -5       27.002  0.000133859  2.12575e-05      133.847 
          -5      27.1615  0.000133852  2.14636e-05      133.843 
          -5      27.3216  0.000133861  2.16646e-05      133.839 
          -5      27.4821  0.000133873  2.18427e-05      133.836 
          -5       27.643  0.000133876  2.19881e-05      133.832 
          -5      27.8044  0.000133861  2.20985e-05      133.828 
          -5      27.9663  0.000133819   2.2177e-05      133.824 
          -5      28.1287  0.000133748  2.22307e-05       133.82 
          -5      28.2914  0.000133645  2.22697e-05      133.816 
          -5      28.4548  0.000133509  2.23053e-05      133.812 
          -5      28.6185  0.000133345  2.23487e-05      133.808 
          -5      28.7828  0.000133157    2.241e-05      133.804 
          -5      28.9475  0.000132954  2.24961e-05        133.8 
          -5      29.1126  0.000132745  2.26098e-05      133.796 
          -5      29.2784  0.000132542  2.27488e-05      133.792 
          -5      29.4444  0.000132359  2.29033e-05      133.788 
          -5       29.611  0.000132211  2.30562e-05      133.784 
          -5       29.778  0.000132113  2.31801e-05      133.779 
          -5      29.9456  0.000132083  2.32376e-05      133.775 
          -5      30.1137  0.000132137  2.31793e-05      133.771 
          -5      30.2821  0.000132292  2.29428e-05      133.767 
          -5      30.4511  0.000132534  2.24864e-05      133.762 
          -5      30.6204  0.000132208  2.26556e-05      133.758 
          -5      30.7903  0.000131876  2.28541e-05      133.753 
          -5      30.9606  0.000131558  2.30561e-05      133.749 
          -5      31.1315  0.000131269  2.32422e-05      133.744 
          -5      31.3028  0.000131021  2.33989e-05       133.74 
          -5      31.4745  0.000130823  2.35186e-05      133.735 
          -5      31.6468   0.00013068  2.35997e-05      133.731 
          -5      31.8194  0.000130594  2.36457e-05      133.726 
          -5      31.9926  0.000130562  2.36655e-05      133.722 
          -5      32.1662  0.000130577  2.36728e-05      133.717 
          -5      32.3404  0.000130627   2.3686e-05      133.712 
          -5      32.5149  0.000130695  2.37277e-05      133.707 
          -5        32.69  0.000130761  2.38244e-05      133.703 
          -5      32.8655  0.000130595  2.38212e-05      133.698 
          -5      33.0414  0.000130302  2.37845e-05      133.693 
          -5       33.218   0.00013006  2.38427e-05      133.688 
          -5      33.3948  0.000129861  2.39691e-05      133.683 
          -5      33.5723  0.000129697  2.41412e-05      133.678 
          -5        33.75  0.000129558    2.434e-05      133.673 
          -5      33.9284  0.000129439  2.45509e-05      133.668 
          -5      34.1073  0.000129334  2.47619e-05      133.663 
          -5      34.2865  0.000129237  2.49641e-05      133.658 
          -5      34.4663  0.000129143  2.51516e-05      133.653 
          -5      34.6465   0.00012905  2.53205e-05      133.648 
          -5      34.8272  0.000128955  2.54694e-05      133.643 
          -5      35.0083  0.000128855  2.55981e-05      133.638 
          -5        35.19  0.000128748  2.57084e-05      133.632 
          -5      35.3721  0.000128635  2.58031e-05      133.627 
          -5      35.5546  0.000128514   2.5886e-05      133.622 
          -5      35.7377  0.000128387  2.59615e-05      133.617 
          -5      35.9211  0.000128254  2.60345e-05      133.611 
          -5      36.1052  0.000128117  2.61101e-05      133.606 
          -5      36.2895  0.000127978  2.61932e-05        133.6 
          -5      36.4745  0.000127838  2.62885e-05      133.595 
          -5      36.6598    0.0001277  2.64002e-05      133.589 
          -5      36.8457  0.000127568  2.65319e-05      133.584 
          -5      37.0321  0.000127443  2.66862e-05      133.578 
          -5      37.2188  0.000127328  2.68645e-05      133.573 
          -5      37.4062  0.000127227  2.70676e-05      133.567 
          -5      37.5938  0.000127142  2.72942e-05      133.561 
          -5      37.7821  0.000127075  2.75423e-05      133.556 
          -5      37.9707  0.000127029  2.78077e-05       133.55 
          -5      38.1599  0.000126854  2.79958e-05      133.544 
          -5      38.3496  0.000126688   2.8109e-05      133.538 
          -5      38.5396  0.000126528  2.81678e-05      133.533 
          -5      38.7302  0.000126375  2.81902e-05      133.527 
          -5      38.9211  0.000126225  2.81916e-05      133.521 
          -5      39.1127  0.000126079  2.81847e-05      133.515 
          -5      39.3046  0.000125937  2.81797e-05      133.509 
          -5      39.4971  0.000125799   2.8184e-05      133.503 
          -5      39.6899  0.000125669   2.8202e-05      133.497 
          -5      39.8833  0.000125551  2.82358e-05      133.491 
          -5      40.0772  0.000125449  2.82844e-05      133.485 
          -5      40.2714  0.000125371  2.83444e-05      133.479 
          -5      40.4663  0.000125326  2.84099e-05      133.473 
          -5      40.6615  0.000125326  2.84724e-05      133.466 
          -5      40.8573  0.000125387  2.85216e-05       133.46 
          -5      41.0534  0.000125295  2.85464e-05      133.454 
          -5      41.2501  0.000125081  2.85471e-05      133.448 
          -5      41.4473  0.000124831  2.85682e-05      133.441 
          -5      41.6448  0.000124576  2.86455e-05      133.435 
          -5      41.8429  0.000124347  2.88006e-05      133.429 
          -5      42.0414  0.000124178  2.90395e-05      133.422 
          -5      42.2405  0.000124101  2.93519e-05      133.416 
          -5      42.4399  0.000124133  2.95983e-05      133.409 
          -5      42.6399  0.000124132  2.94682e-05      133.403 
          -5      42.8404  0.000124075  2.93778e-05      133.396 
          -5      43.0412  0.000123975  2.93188e-05       133.39 
          -5      43.2426  0.000123846  2.92838e-05      133.383 
          -5      43.4444  0.000123696   2.9267e-05      133.377 
          -5      43.6467  0.000123535  2.92636e-05       133.37 
          -5      43.8494   0.00012337  2.92695e-05      133.363 
          -5      44.0527  0.000123204  2.92815e-05      133.357 
          -5      44.2563  0.000123042  2.92972e-05       133.35 
          -5      44.4606  0.000122886  2.93149e-05      133.343 
          -5      44.6653  0.000122737  2.93332e-05      133.336 
          -5      44.8704  0.000122596  2.93513e-05      133.329 
          -5       45.076  0.000122462  2.93687e-05      133.323 
          -5       45.282  0.000122335  2.93851e-05      133.316 
          -5      45.4886  0.000122212  2.94008e-05      133.309 
          -5      45.6955  0.000122091  2.94157e-05      133.302 
          -5       45.903  0.000121971  2.94302e-05      133.295 
          -5      46.1111  0.000121849  2.94446e-05      133.288 
          -5      46.3194  0.000121723  2.94591e-05      133.281 
          -5      46.5283  0.000121591  2.94742e-05      133.274 
          -5      46.7376   0.00012145    2.949e-05      133.267 
          -5      46.9475  0.000121299  2.95067e-05      133.259 
          -5      47.1577  0.000121137  2.95243e-05      133.252 
          -5      47.3685  0.000120962   2.9543e-05      133.245 
          -5      47.5798  0.000120776  2.95627e-05      133.238 
          -5      47.7914  0.000120579  2.95832e-05      133.231 
          -5      48.0037  0.000120371  2.96047e-05      133.223 