Variables = x, y, u, v, p

Zone, I=800, F=POINT
         -25            0 -2.43465e-19 -1.28727e-23     -63.3048 
         -25     0.000234 -1.20673e-05 -6.44465e-10     -63.3048 
         -25     0.000939 -4.55305e-05  -2.5082e-09     -63.3048 
         -25     0.002113 -9.23928e-05  -5.3736e-09     -63.3048 
         -25     0.003759 -0.000141984 -8.95946e-09     -63.3048 
         -25     0.005872 -0.000183474 -1.29719e-08     -63.3048 
         -25     0.008457 -0.000209336 -1.72217e-08     -63.3048 
         -25      0.01151 -0.000217051 -2.16418e-08     -63.3048 
         -25     0.015036 -0.000209904 -2.63268e-08     -63.3048 
         -25     0.019031 -0.000195606 -3.14625e-08     -63.3048 
         -25     0.023493 -0.000183319 -3.72499e-08     -63.3048 
         -25     0.028429 -0.000179801 -4.38009e-08     -63.3048 
         -25     0.033831 -0.000186226 -5.10146e-08     -63.3048 
         -25     0.039706 -0.000197235 -5.85971e-08     -63.3048 
         -25     0.046047 -0.000203704 -6.61181e-08     -63.3048 
         -25     0.052863 -0.000199367 -7.32641e-08     -63.3048 
         -25      0.06015 -0.000188528 -8.00701e-08     -63.3048 
         -25       0.0679 -0.000187468 -8.70398e-08     -63.3048 
         -25     0.076126 -0.000204207 -9.46844e-08     -63.3048 
         -25     0.084816 -0.000189327 -1.01955e-07     -63.3048 
         -25     0.093982 -0.000195449 -1.08912e-07     -63.3048 
         -25     0.103611 -0.000197431 -1.15437e-07     -63.3048 
         -25     0.113718 -0.000197434 -1.21671e-07     -63.3048 
         -25     0.124286 -0.000196992  -1.2765e-07     -63.3048 
         -25     0.135333 -0.000196953 -1.33353e-07     -63.3048 
         -25      0.14685 -0.000197527 -1.38695e-07     -63.3048 
         -25     0.158827 -0.000198453 -1.43588e-07     -63.3048 
         -25     0.171284 -0.000199279 -1.48006e-07     -63.3048 
         -25     0.184201 -0.000199666 -1.52003e-07     -63.3048 
         -25     0.197599 -0.000199661 -1.55765e-07     -63.3048 
         -25     0.211455  -0.00019976  -1.5955e-07     -63.3048 
         -25     0.225792 -0.000200545 -1.63566e-07     -63.3048 
         -25       0.2406 -0.000201584 -1.67644e-07     -63.3048 
         -25     0.255865 -0.000201268 -1.70697e-07     -63.3048 
         -25     0.271613 -0.000201903 -1.75047e-07     -63.3048 
         -25     0.287818 -0.000202414  -1.8249e-07     -63.3048 
         -25     0.304506 -0.000202855 -1.93202e-07     -63.3048 
         -25      0.32165 -0.000203266 -2.07102e-07     -63.3048 
         -25     0.339278 -0.000203677 -2.23922e-07     -63.3047 
         -25     0.357377 -0.000204104 -2.43151e-07     -63.3047 
         -25      0.37593 -0.000204553 -2.64095e-07     -63.3047 
         -25     0.394968 -0.000205024 -2.85988e-07     -63.3047 
         -25     0.414461 -0.000205508 -3.07932e-07     -63.3047 
         -25      0.43444 -0.000205999 -3.29119e-07     -63.3047 
         -25     0.454872  -0.00020649 -3.48785e-07     -63.3047 
         -25     0.475791 -0.000206979 -3.66448e-07     -63.3047 
         -25     0.497163 -0.000207469 -3.81895e-07     -63.3047 
         -25     0.519021  -0.00020797 -3.95404e-07     -63.3047 
         -25      0.54135  -0.00020849 -4.07765e-07     -63.3047 
         -25     0.564131  -0.00020903 -4.20401e-07     -63.3047 
         -25       0.5874 -0.000209569 -4.35462e-07     -63.3047 
         -25     0.611121 -0.000210047 -4.59046e-07     -63.3046 
         -25      0.63533 -0.000210542 -5.20633e-07     -63.3046 
         -25      0.65999 -0.000211021 -5.81735e-07     -63.3046 
         -25     0.685139 -0.000211477 -6.39204e-07     -63.3046 
         -25     0.710759 -0.000211903 -6.90625e-07     -63.3046 
         -25     0.736828 -0.000212293 -7.34472e-07     -63.3046 
         -25     0.763387 -0.000212643 -7.70162e-07     -63.3046 
         -25     0.790396 -0.000212947 -7.97776e-07     -63.3045 
         -25     0.817896 -0.000213203 -8.18187e-07     -63.3045 
         -25     0.845843 -0.000213406 -8.32786e-07     -63.3045 
         -25     0.874283 -0.000213555 -8.43482e-07     -63.3045 
         -25      0.90317 -0.000213647 -8.52446e-07     -63.3045 
         -25     0.932551 -0.000213683  -8.6202e-07     -63.3045 
         -25     0.962401 -0.000213661 -8.74481e-07     -63.3044 
         -25     0.992697 -0.000213583 -8.91867e-07     -63.3044 
         -25      1.02349 -0.000213448 -9.15851e-07     -63.3044 
         -25      1.05472 -0.000213259 -9.47452e-07     -63.3044 
         -25      1.08645 -0.000213017 -9.87062e-07     -63.3043 
         -25      1.11863 -0.000212724 -1.03413e-06     -63.3043 
         -25       1.1513 -0.000212383 -1.08738e-06     -63.3043 
         -25      1.18444 -0.000211997 -1.14458e-06     -63.3042 
         -25      1.21802 -0.000211569 -1.20276e-06     -63.3042 
         -25      1.25211   -0.0002111 -1.25866e-06     -63.3042 
         -25      1.28663 -0.000210596 -1.30876e-06     -63.3041 
         -25      1.32165 -0.000210057 -1.35027e-06     -63.3041 
         -25      1.35712 -0.000209489 -1.38157e-06     -63.3041 
         -25      1.39308 -0.000208894 -1.40359e-06      -63.304 
         -25      1.42951 -0.000208277   -1.421e-06      -63.304 
         -25      1.46638 -0.000207644 -1.44397e-06     -63.3039 
         -25      1.50375    -0.000207 -1.49044e-06     -63.3039 
         -25      1.54156 -0.000206599 -1.57801e-06     -63.3039 
         -25      1.57987 -0.000206015 -1.64424e-06     -63.3038 
         -25      1.61863 -0.000205248 -1.69193e-06     -63.3038 
         -25      1.65788 -0.000204321 -1.72599e-06     -63.3037 
         -25      1.69757 -0.000203262 -1.75068e-06     -63.3037 
         -25      1.73776 -0.000202091 -1.76986e-06     -63.3036 
         -25      1.77842 -0.000200832 -1.78678e-06     -63.3035 
         -25      1.81952 -0.000199509 -1.80418e-06     -63.3035 
         -25      1.86113 -0.000198137 -1.82433e-06     -63.3034 
         -25      1.90316 -0.000196739 -1.84891e-06     -63.3034 
         -25      1.94571  -0.00019533 -1.87918e-06     -63.3033 
         -25      1.98869 -0.000193926 -1.91586e-06     -63.3032 
         -25      2.03217 -0.000192542 -1.95932e-06     -63.3032 
         -25      2.07612 -0.000191189 -2.00946e-06     -63.3031 
         -25      2.12051 -0.000189881  -2.0658e-06      -63.303 
         -25       2.1654 -0.000188625 -2.12767e-06     -63.3029 
         -25      2.21073 -0.000187432 -2.19397e-06     -63.3029 
         -25      2.25656 -0.000186307 -2.26359e-06     -63.3028 
         -25      2.30283 -0.000185256 -2.33507e-06     -63.3027 
         -25       2.3496 -0.000184282  -2.4071e-06     -63.3026 
         -25      2.39685 -0.000183388 -2.47817e-06     -63.3025 
         -25      2.44452 -0.000182578 -2.54683e-06     -63.3024 
         -25      2.49271  -0.00018185 -2.61192e-06     -63.3023 
         -25      2.54132 -0.000181205 -2.67223e-06     -63.3022 
         -25      2.59044  -0.00018064   -2.727e-06     -63.3021 
         -25         2.64 -0.000180155 -2.77556e-06      -63.302 
         -25      2.69006 -0.000179746 -2.81775e-06     -63.3019 
         -25      2.74056  -0.00017941 -2.85364e-06     -63.3018 
         -25      2.79156 -0.000179144 -2.88379e-06     -63.3017 
         -25      2.84304 -0.000178944 -2.90911e-06     -63.3016 
         -25      2.89494 -0.000178806 -2.93089e-06     -63.3015 
         -25      2.94735 -0.000178727 -2.95082e-06     -63.3013 
         -25       3.0002 -0.000178701 -2.97082e-06     -63.3012 
         -25      3.05355 -0.000178726  -2.9931e-06     -63.3011 
         -25      3.10733 -0.000178798 -3.01987e-06      -63.301 
         -25      3.16163 -0.000178912 -3.05336e-06     -63.3008 
         -25      3.21639 -0.000179066 -3.09546e-06     -63.3007 
         -25      3.27158 -0.000179256  -3.1475e-06     -63.3005 
         -25      3.32729 -0.000179477 -3.21012e-06     -63.3004 
         -25      3.38342 -0.000179727 -3.28257e-06     -63.3002 
         -25      3.44007 -0.000179999 -3.36272e-06     -63.3001 
         -25      3.49714 -0.000180288 -3.44602e-06     -63.2999 
         -25      3.55472 -0.000180586  -3.5255e-06     -63.2998 
         -25      3.61273 -0.000180884 -3.59051e-06     -63.2996 
         -25      3.67125 -0.000181169 -3.62648e-06     -63.2994 
         -25      3.73025 -0.000181426 -3.61359e-06     -63.2993 
         -25      3.78967 -0.000181918  -3.6953e-06     -63.2991 
         -25      3.84961 -0.000182504 -3.90001e-06     -63.2989 
         -25      3.90996 -0.000183056 -4.15593e-06     -63.2987 
         -25      3.97084 -0.000183585 -4.45226e-06     -63.2985 
         -25      4.03214 -0.000184097 -4.77953e-06     -63.2983 
         -25      4.09395 -0.000184597 -5.13104e-06     -63.2981 
         -25      4.15624 -0.000185085 -5.50067e-06     -63.2979 
         -25      4.21895 -0.000185561 -5.88316e-06     -63.2977 
         -25      4.28217 -0.000186025 -6.27472e-06     -63.2975 
         -25      4.34582 -0.000186472 -6.67057e-06     -63.2973 
         -25      4.40998 -0.000186901 -7.06712e-06      -63.297 
         -25      4.47457 -0.000187307 -7.45932e-06     -63.2968 
         -25      4.53968 -0.000187689 -7.84304e-06     -63.2966 
         -25      4.60525 -0.000188042 -8.21288e-06     -63.2963 
         -25      4.67125 -0.000188367 -8.56331e-06     -63.2961 
         -25      4.73777 -0.000188663 -8.88973e-06     -63.2959 
         -25       4.8047 -0.000188931   -9.187e-06     -63.2956 
         -25      4.87216 -0.000189175  -9.4521e-06     -63.2953 
         -25      4.94003 -0.000189399 -9.68311e-06     -63.2951 
         -25      5.00843  -0.00018961 -9.88196e-06     -63.2948 
         -25      5.07724 -0.000189815 -1.00542e-05     -63.2945 
         -25      5.14658 -0.000190025  -1.0212e-05     -63.2942 
         -25      5.21639 -0.000190249  -1.0375e-05      -63.294 
         -25      5.28661 -0.000190498 -1.05728e-05     -63.2937 
         -25      5.35736  -0.00019078 -1.08486e-05     -63.2934 
         -25      5.42852 -0.000191085 -1.10544e-05     -63.2931 
         -25      5.50021 -0.000191452 -1.11596e-05     -63.2927 
         -25      5.57231 -0.000191978 -1.14078e-05     -63.2924 
         -25      5.64493 -0.000192418 -1.14115e-05     -63.2921 
         -25      5.71803 -0.000192525 -1.11395e-05     -63.2918 
         -25      5.79154 -0.000192688 -1.10784e-05     -63.2914 
         -25      5.86558 -0.000192894 -1.11623e-05     -63.2911 
         -25      5.94003 -0.000193127 -1.13375e-05     -63.2907 
         -25      6.01501 -0.000193374 -1.15618e-05     -63.2904 
         -25       6.0904 -0.000193621 -1.18026e-05       -63.29 
         -25      6.16632 -0.000193858 -1.20369e-05     -63.2897 
         -25      6.24271 -0.000194074 -1.22492e-05     -63.2893 
         -25       6.3195 -0.000194268 -1.24949e-05     -63.2889 
         -25      6.39683 -0.000194423 -1.27651e-05     -63.2885 
         -25      6.47457 -0.000194525  -1.2974e-05     -63.2881 
         -25      6.55284 -0.000194581 -1.31441e-05     -63.2877 
         -25      6.63152 -0.000194599 -1.32961e-05     -63.2873 
         -25      6.71073 -0.000194589 -1.34487e-05     -63.2869 
         -25      6.79034 -0.000194564 -1.36155e-05     -63.2864 
         -25      6.87049 -0.000194536 -1.38054e-05      -63.286 
         -25      6.95111 -0.000194515 -1.40208e-05     -63.2856 
         -25      7.03214 -0.000194511 -1.42577e-05     -63.2851 
         -25       7.1137 -0.000194532 -1.45068e-05     -63.2846 
         -25      7.19566 -0.000194582 -1.47531e-05     -63.2842 
         -25      7.27816 -0.000194663  -1.4979e-05     -63.2837 
         -25      7.36106 -0.000194775 -1.51655e-05     -63.2832 
         -25      7.44451 -0.000194913 -1.52966e-05     -63.2827 
         -25      7.52842 -0.000195072 -1.53624e-05     -63.2822 
         -25      7.61273 -0.000195244 -1.53653e-05     -63.2817 
         -25      7.69758 -0.000195424 -1.53254e-05     -63.2812 
         -25      7.78283 -0.000195604 -1.52891e-05     -63.2807 
         -25      7.86862 -0.000195683 -1.54869e-05     -63.2802 
         -25      7.95481 -0.000195594 -1.58971e-05     -63.2796 
         -25      8.04155 -0.000195615 -1.59646e-05     -63.2791 
         -25      8.12868  -0.00019579 -1.58038e-05     -63.2785 
         -25      8.21635 -0.000195708 -1.62562e-05     -63.2779 
         -25      8.30449 -0.000195549 -1.65601e-05     -63.2774 
         -25      8.39303 -0.000195351 -1.67464e-05     -63.2768 
         -25      8.48211 -0.000195141 -1.68423e-05     -63.2762 
         -25      8.57159 -0.000194944 -1.68723e-05     -63.2756 
         -25      8.66161 -0.000194775 -1.68587e-05      -63.275 
         -25      8.75203 -0.000194646 -1.68234e-05     -63.2743 
         -25      8.84299  -0.00019465 -1.68382e-05     -63.2737 
         -25      8.93443 -0.000194656 -1.68994e-05     -63.2731 
         -25      9.02626 -0.000194617 -1.69885e-05     -63.2724 
         -25      9.11863 -0.000194544 -1.71083e-05     -63.2718 
         -25      9.21139 -0.000194449 -1.72593e-05     -63.2711 
         -25      9.30471 -0.000194341 -1.74409e-05     -63.2704 
         -25      9.39841  -0.00019423 -1.76511e-05     -63.2697 
         -25      9.49267 -0.000194122 -1.78875e-05      -63.269 
         -25      9.58739 -0.000194024 -1.81467e-05     -63.2683 
         -25      9.68251 -0.000193941 -1.84251e-05     -63.2676 
         -25      9.77817 -0.000193878 -1.87197e-05     -63.2668 
         -25      9.87422 -0.000193839 -1.90268e-05     -63.2661 
         -25      9.97083 -0.000193824 -1.93443e-05     -63.2653 
         -25      10.0678 -0.000193837 -1.96693e-05     -63.2646 
         -25      10.1654 -0.000193874  -2.0001e-05     -63.2638 
         -25      10.2633 -0.000193933 -2.03381e-05      -63.263 
         -25      10.3618 -0.000194008 -2.06814e-05     -63.2622 
         -25      10.4607  -0.00019409 -2.10314e-05     -63.2614 
         -25      10.5601 -0.000194163 -2.13895e-05     -63.2606 
         -25        10.66  -0.00019421 -2.17581e-05     -63.2597 
         -25      10.7603 -0.000194206 -2.21391e-05     -63.2589 
         -25      10.8611 -0.000194116 -2.25354e-05      -63.258 
         -25      10.9623 -0.000193901  -2.2948e-05     -63.2571 
         -25      11.0641 -0.000193507 -2.33786e-05     -63.2563 
         -25      11.1663 -0.000193368 -2.37688e-05     -63.2554 
         -25       11.269 -0.000193768 -2.40342e-05     -63.2545 
         -25      11.3721 -0.000193892 -2.42691e-05     -63.2535 
         -25      11.4757 -0.000193828 -2.44823e-05     -63.2526 
         -25      11.5798 -0.000193655 -2.46779e-05     -63.2517 
         -25      11.6844 -0.000193436 -2.48567e-05     -63.2507 
         -25      11.7894 -0.000193222 -2.50193e-05     -63.2498 
         -25       11.895 -0.000193049 -2.51672e-05     -63.2488 
         -25      12.0009  -0.00019294 -2.53062e-05     -63.2478 
         -25      12.1073 -0.000192902 -2.54485e-05     -63.2468 
         -25      12.2142 -0.000192929 -2.56149e-05     -63.2458 
         -25      12.3216    -0.000193 -2.58373e-05     -63.2447 
         -25      12.4294 -0.000193078 -2.61611e-05     -63.2437 
         -25      12.5378 -0.000193115  -2.6648e-05     -63.2426 
         -25      12.6465  -0.00019305  -2.7377e-05     -63.2416 
         -25      12.7558  -0.00019275 -2.78528e-05     -63.2405 
         -25      12.8656 -0.000192343 -2.74881e-05     -63.2394 
         -25      12.9757 -0.000192043  -2.7372e-05     -63.2383 
         -25      13.0864  -0.00019183 -2.74455e-05     -63.2371 
         -25      13.1975 -0.000191682 -2.76554e-05      -63.236 
         -25      13.3092 -0.000191577 -2.79546e-05     -63.2348 
         -25      13.4212 -0.000191492 -2.83023e-05     -63.2337 
         -25      13.5338 -0.000191407 -2.86653e-05     -63.2325 
         -25      13.6468 -0.000191305 -2.90172e-05     -63.2313 
         -25      13.7603 -0.000191172 -2.93383e-05     -63.2301 
         -25      13.8743 -0.000191001 -2.96171e-05     -63.2288 
         -25      13.9886 -0.000190791 -2.98473e-05     -63.2276 
         -25      14.1036  -0.00019055 -3.00293e-05     -63.2264 
         -25      14.2189 -0.000190298 -3.01677e-05     -63.2251 
         -25      14.3348 -0.000190067 -3.02709e-05     -63.2238 
         -25       14.451 -0.000189904  -3.0349e-05     -63.2225 
         -25      14.5678 -0.000189873 -3.04123e-05     -63.2212 
         -25      14.6851 -0.000189745 -3.07035e-05     -63.2199 
         -25      14.8028  -0.00018961 -3.10208e-05     -63.2185 
         -25       14.921 -0.000189535 -3.12918e-05     -63.2172 
         -25      15.0396 -0.000189499 -3.15393e-05     -63.2158 
         -25      15.1588 -0.000189481   -3.178e-05     -63.2144 
         -25      15.2783 -0.000189468 -3.20246e-05      -63.213 
         -25      15.3984 -0.000189451 -3.22796e-05     -63.2116 
         -25       15.519 -0.000189421  -3.2547e-05     -63.2101 
         -25        15.64 -0.000189376 -3.28258e-05     -63.2087 
         -25      15.7615 -0.000189313  -3.3113e-05     -63.2072 
         -25      15.8834 -0.000189233 -3.34033e-05     -63.2057 
         -25      16.0058 -0.000189135 -3.36912e-05     -63.2042 
         -25      16.1286 -0.000189022   -3.397e-05     -63.2027 
         -25       16.252 -0.000188896 -3.42342e-05     -63.2011 
         -25      16.3759 -0.000188756 -3.44781e-05     -63.1996 
         -25      16.5002 -0.000188606 -3.46976e-05      -63.198 
         -25       16.625 -0.000188446 -3.48903e-05     -63.1964 
         -25      16.7501 -0.000188274 -3.50554e-05     -63.1948 
         -25      16.8759 -0.000188091 -3.51942e-05     -63.1932 
         -25       17.002 -0.000187894 -3.53101e-05     -63.1916 
         -25      17.1287 -0.000187681 -3.54086e-05     -63.1899 
         -25      17.2557 -0.000187448  -3.5497e-05     -63.1882 
         -25      17.3834 -0.000187194 -3.55845e-05     -63.1866 
         -25      17.5115 -0.000186914 -3.56814e-05     -63.1848 
         -25      17.6399 -0.000186608 -3.57988e-05     -63.1831 
         -25       17.769 -0.000186274  -3.5948e-05     -63.1814 
         -25      17.8984 -0.000186028 -3.60787e-05     -63.1796 
         -25      18.0284 -0.000185874 -3.62475e-05     -63.1778 
         -25      18.1587 -0.000185718  -3.6513e-05      -63.176 
         -25      18.2896 -0.000185568 -3.68374e-05     -63.1742 
         -25       18.421 -0.000185432 -3.71544e-05     -63.1724 
         -25      18.5528 -0.000185319 -3.73643e-05     -63.1706 
         -25      18.6851  -0.00018524  -3.7329e-05     -63.1687 
         -25      18.8178 -0.000185204 -3.68655e-05     -63.1668 
         -25      18.9511 -0.000185254 -3.73117e-05     -63.1649 
         -25      19.0847 -0.000185359 -3.79848e-05      -63.163 
         -25      19.2189 -0.000185489 -3.83701e-05      -63.161 
         -25      19.3535 -0.000185629 -3.84795e-05     -63.1591 
         -25      19.4886 -0.000185767 -3.83185e-05     -63.1571 
         -25      19.6242 -0.000185682  -3.8055e-05     -63.1551 
         -25      19.7602 -0.000185211 -3.80989e-05     -63.1531 
         -25      19.8968 -0.000184747 -3.82484e-05      -63.151 
         -25      20.0337 -0.000184308 -3.84659e-05      -63.149 
         -25      20.1712 -0.000183907 -3.87197e-05     -63.1469 
         -25      20.3091 -0.000183551 -3.89828e-05     -63.1448 
         -25      20.4475 -0.000183241 -3.92341e-05     -63.1427 
         -25      20.5864 -0.000182974 -3.94575e-05     -63.1406 
         -25      20.7257 -0.000182746 -3.96422e-05     -63.1384 
         -25      20.8655 -0.000182549 -3.97827e-05     -63.1362 
         -25      21.0058 -0.000182376 -3.98779e-05     -63.1341 
         -25      21.1465 -0.000182218 -3.99311e-05     -63.1318 
         -25      21.2877 -0.000182068 -3.99496e-05     -63.1296 
         -25      21.4294  -0.00018192 -3.99437e-05     -63.1274 
         -25      21.5716 -0.000181768 -3.99263e-05     -63.1251 
         -25      21.7142 -0.000181609 -3.99119e-05     -63.1228 
         -25      21.8573 -0.000181442 -3.99157e-05     -63.1205 
         -25      22.0008 -0.000181268 -3.99522e-05     -63.1182 
         -25      22.1449 -0.000181087 -4.00346e-05     -63.1158 
         -25      22.2893 -0.000180904 -4.01723e-05     -63.1134 
         -25      22.4344 -0.000180722 -4.03707e-05      -63.111 
         -25      22.5797 -0.000180545 -4.06281e-05     -63.1086 
         -25      22.7257 -0.000180376 -4.09349e-05     -63.1062 
         -25      22.8721 -0.000180216 -4.12708e-05     -63.1037 
         -25      23.0189  -0.00018006 -4.16022e-05     -63.1013 
         -25      23.1663 -0.000179901 -4.18813e-05     -63.0988 
         -25       23.314 -0.000179722 -4.20412e-05     -63.0963 
         -25      23.4623 -0.000179496 -4.19949e-05     -63.0937 
         -25       23.611 -0.000179186 -4.16311e-05     -63.0912 
         -25      23.7602 -0.000178988 -4.17461e-05     -63.0886 
         -25        23.91 -0.000179049 -4.25408e-05      -63.086 
         -25        24.06 -0.000179095 -4.30285e-05     -63.0834 
         -25      24.2107 -0.000179105 -4.33039e-05     -63.0807 
         -25      24.3617 -0.000179066 -4.34415e-05      -63.078 
         -25      24.5133 -0.000178972 -4.34991e-05     -63.0754 
         -25      24.6653 -0.000178822 -4.35196e-05     -63.0727 
         -25      24.8178  -0.00017862  -4.3533e-05     -63.0699 
         -25      24.9708 -0.000178371  -4.3559e-05     -63.0672 
         -25      25.1242 -0.000178085 -4.36082e-05     -63.0644 
         -25      25.2781 -0.000177772 -4.36846e-05     -63.0616 
         -25      25.4324 -0.000177442 -4.37866e-05     -63.0588 
         -25      25.5873 -0.000177106 -4.39094e-05      -63.056 
         -25      25.7426 -0.000176774 -4.40458e-05     -63.0531 
         -25      25.8984 -0.000176454 -4.41877e-05     -63.0502 
         -25      26.0546 -0.000176152 -4.43272e-05     -63.0473 
         -25      26.2114 -0.000175872 -4.44576e-05     -63.0444 
         -25      26.3686 -0.000175617 -4.45738e-05     -63.0415 
         -25      26.5262 -0.000175385 -4.46732e-05     -63.0385 
         -25      26.6844 -0.000175175 -4.47559e-05     -63.0355 
         -25      26.8429 -0.000174981 -4.48245e-05     -63.0325 
         -25       27.002 -0.000174796  -4.4884e-05     -63.0295 
         -25      27.1615 -0.000174613 -4.49416e-05     -63.0264 
         -25      27.3216 -0.000174424 -4.50055e-05     -63.0233 
         -25      27.4821 -0.000174221 -4.50839e-05     -63.0202 
         -25       27.643 -0.000173999 -4.51837e-05     -63.0171 
         -25      27.8044 -0.000173754 -4.53091e-05      -63.014 
         -25      27.9663 -0.000173489 -4.54585e-05     -63.0108 
         -25      28.1287 -0.000173212  -4.5623e-05     -63.0076 
         -25      28.2914 -0.000172939 -4.57829e-05     -63.0044 
         -25      28.4548 -0.000172698 -4.59049e-05     -63.0012 
         -25      28.6185  -0.00017253 -4.59375e-05     -62.9979 
         -25      28.7828 -0.000172662 -4.58318e-05     -62.9946 
         -25      28.9475 -0.000173003 -4.55297e-05     -62.9913 
         -25      29.1126 -0.000173066 -4.49244e-05      -62.988 
         -25      29.2784 -0.000172473 -4.55069e-05     -62.9847 
         -25      29.4444  -0.00017228  -4.5934e-05     -62.9813 
         -25       29.611 -0.000172024  -4.6137e-05     -62.9779 
         -25       29.778  -0.00017162 -4.62003e-05     -62.9745 
         -25      29.9456 -0.000171266  -4.6165e-05     -62.9711 
         -25      30.1137 -0.000170971 -4.61068e-05     -62.9676 
         -25      30.2821 -0.000170734 -4.60766e-05     -62.9641 
         -25      30.4511 -0.000170548 -4.61041e-05     -62.9606 
         -25      30.6204 -0.000170402 -4.62025e-05     -62.9571 
         -25      30.7903 -0.000170281 -4.63716e-05     -62.9535 
         -25      30.9606  -0.00017017 -4.66012e-05       -62.95 
         -25      31.1315 -0.000170052  -4.6875e-05     -62.9464 
         -25      31.3028 -0.000169915 -4.71724e-05     -62.9428 
         -25      31.4745 -0.000169745 -4.74715e-05     -62.9391 
         -25      31.6468 -0.000169533 -4.77522e-05     -62.9355 
         -25      31.8194 -0.000169274 -4.79967e-05     -62.9318 
         -25      31.9926 -0.000168966 -4.81923e-05     -62.9281 
         -25      32.1662 -0.000168611 -4.83314e-05     -62.9243 
         -25      32.3404 -0.000168217 -4.84132e-05     -62.9206 
         -25      32.5149 -0.000167794 -4.84431e-05     -62.9168 
         -25        32.69 -0.000167356 -4.84333e-05      -62.913 
         -25      32.8655 -0.000166921 -4.84014e-05     -62.9092 
         -25      33.0414 -0.000166508 -4.83696e-05     -62.9054 
         -25       33.218 -0.000166133 -4.83624e-05     -62.9015 
         -25      33.3948 -0.000165815 -4.84049e-05     -62.8976 
         -25      33.5723 -0.000165567 -4.85191e-05     -62.8937 
         -25        33.75 -0.000165395 -4.87205e-05     -62.8898 
         -25      33.9284 -0.000165297  -4.9014e-05     -62.8858 
         -25      34.1073 -0.000165261 -4.93882e-05     -62.8818 
         -25      34.2865 -0.000165255 -4.98099e-05     -62.8778 
         -25      34.4663 -0.000165253 -5.00871e-05     -62.8738 
         -25      34.6465 -0.000165265 -4.98075e-05     -62.8698 
         -25      34.8272 -0.000165206 -4.95588e-05     -62.8657 
         -25      35.0083 -0.000165088  -4.9353e-05     -62.8616 
         -25        35.19 -0.000164923 -4.91961e-05     -62.8575 
         -25      35.3721 -0.000164717 -4.90897e-05     -62.8534 
         -25      35.5546 -0.000164479 -4.90324e-05     -62.8492 
         -25      35.7377 -0.000164212 -4.90204e-05      -62.845 
         -25      35.9211  -0.00016392  -4.9049e-05     -62.8408 
         -25      36.1052 -0.000163606 -4.91129e-05     -62.8366 
         -25      36.2895 -0.000163272 -4.92072e-05     -62.8324 
         -25      36.4745  -0.00016292 -4.93275e-05     -62.8281 
         -25      36.6598 -0.000162555 -4.94698e-05     -62.8238 
         -25      36.8457  -0.00016218 -4.96315e-05     -62.8195 
         -25      37.0321 -0.000161802   -4.981e-05     -62.8152 
         -25      37.2188 -0.000161431 -5.00028e-05     -62.8108 
         -25      37.4062 -0.000161079  -5.0207e-05     -62.8064 
         -25      37.5938 -0.000160763 -5.04176e-05      -62.802 
         -25      37.7821 -0.000160506 -5.06271e-05     -62.7976 
         -25      37.9707 -0.000160335 -5.08233e-05     -62.7932 
         -25      38.1599 -0.000160286 -5.09879e-05     -62.7887 
         -25      38.3496 -0.000160403  -5.1094e-05     -62.7842 
         -25      38.5396 -0.000160269 -5.12978e-05     -62.7797 
         -25      38.7302 -0.000159678 -5.16604e-05     -62.7752 
         -25      38.9211 -0.000159222 -5.19179e-05     -62.7706 
         -25      39.1127  -0.00015888 -5.20667e-05     -62.7661 
         -25      39.3046 -0.000158629 -5.21102e-05     -62.7615 
         -25      39.4971 -0.000158442 -5.20615e-05     -62.7569 
         -25      39.6899 -0.000158292 -5.19454e-05     -62.7522 
         -25      39.8833 -0.000158149 -5.18004e-05     -62.7476 
         -25      40.0772 -0.000157984 -5.16811e-05     -62.7429 
         -25      40.2714 -0.000157768 -5.16605e-05     -62.7382 
         -25      40.4663 -0.000157474 -5.18321e-05     -62.7335 
         -25      40.6615  -0.00015708 -5.23123e-05     -62.7287 
         -25      40.8573 -0.000156566 -5.32442e-05      -62.724 
         -25      41.0534 -0.000156176 -5.33714e-05     -62.7192 
         -25      41.2501 -0.000155991 -5.22226e-05     -62.7144 
         -25      41.4473 -0.000155701 -5.15937e-05     -62.7096 
         -25      41.6448 -0.000155343 -5.13624e-05     -62.7047 
         -25      41.8429 -0.000154945 -5.14242e-05     -62.6999 
         -25      42.0414 -0.000154531 -5.16916e-05      -62.695 
         -25      42.2405  -0.00015412 -5.20928e-05     -62.6901 
         -25      42.4399 -0.000153726 -5.25689e-05     -62.6852 
         -25      42.6399 -0.000153355 -5.30743e-05     -62.6802 
         -25      42.8404 -0.000153014 -5.35736e-05     -62.6752 
         -25      43.0412 -0.000152705 -5.40409e-05     -62.6703 
         -25      43.2426 -0.000152427   -5.446e-05     -62.6653 
         -25      43.4444 -0.000152177 -5.48203e-05     -62.6602 
         -25      43.6467  -0.00015195 -5.51183e-05     -62.6552 
         -25      43.8494 -0.000151742 -5.53545e-05     -62.6501 
         -25      44.0527 -0.000151546  -5.5534e-05     -62.6451 
         -25      44.2563 -0.000151355 -5.56639e-05       -62.64 
         -25      44.4606 -0.000151163 -5.57538e-05     -62.6348 
         -25      44.6653 -0.000150964 -5.58137e-05     -62.6297 
         -25      44.8704 -0.000150753 -5.58541e-05     -62.6245 
         -25       45.076 -0.000150524 -5.58851e-05     -62.6194 
         -25       45.282 -0.000150275 -5.59154e-05     -62.6142 
         -25      45.4886 -0.000150004 -5.59524e-05      -62.609 
         -25      45.6955  -0.00014971  -5.6001e-05     -62.6037 
         -25       45.903 -0.000149394 -5.60641e-05     -62.5985 
         -25      46.1111 -0.000149059 -5.61419e-05     -62.5932 
         -25      46.3194 -0.000148709 -5.62318e-05     -62.5879 
         -25      46.5283 -0.000148348 -5.63286e-05     -62.5826 
         -25      46.7376 -0.000147985 -5.64246e-05     -62.5773 
         -25      46.9475 -0.000147625 -5.65098e-05     -62.5719 
         -25      47.1577 -0.000147279 -5.65724e-05     -62.5666 
         -25      47.3685 -0.000146953 -5.65992e-05     -62.5612 
         -25      47.5798 -0.000146657 -5.65766e-05     -62.5558 
         -25      47.7914 -0.000146399 -5.64912e-05     -62.5504 
         -25      48.0037 -0.000146209 -5.63363e-05      -62.545 