Variables = x, y, u, v, p

Zone, I=800, F=POINT
         -25            0  3.62068e-19  2.33182e-23      147.052 
         -25     0.000234  1.79456e-05  1.16783e-09      147.052 
         -25     0.000939  6.77074e-05  4.54821e-09      147.052 
         -25     0.002113  0.000137387  9.74256e-09      147.052 
         -25     0.003759  0.000211113  1.61933e-08      147.052 
         -25     0.005872  0.000272784  2.32301e-08      147.052 
         -25     0.008457  0.000311219  3.02419e-08      147.052 
         -25      0.01151  0.000322703  3.66974e-08      147.052 
         -25     0.015036  0.000312162  4.22376e-08      147.052 
         -25     0.019031  0.000291107  4.66269e-08      147.052 
         -25     0.023493  0.000273197  4.97172e-08      147.052 
         -25     0.028429  0.000268486  5.13511e-08      147.052 
         -25     0.033831  0.000278679  5.12622e-08      147.052 
         -25     0.039706  0.000295715  4.90456e-08      147.052 
         -25     0.046047  0.000305899  4.42017e-08      147.052 
         -25     0.052863  0.000299784  3.62524e-08      147.052 
         -25      0.06015   0.00028374   2.4903e-08      147.052 
         -25       0.0679  0.000282178   9.9979e-09      147.052 
         -25     0.076126  0.000307658 -9.18981e-09      147.052 
         -25     0.084816  0.000287296 -3.49199e-08      147.051 
         -25     0.093982  0.000296386 -6.40637e-08      147.051 
         -25     0.103611  0.000299927 -9.85978e-08      147.051 
         -25     0.113718  0.000300835 -1.38682e-07      147.051 
         -25     0.124286  0.000301184 -1.84315e-07      147.051 
         -25     0.135333  0.000302127 -2.35605e-07      147.051 
         -25      0.14685  0.000303957 -2.92504e-07      147.051 
         -25     0.158827  0.000306332 -3.54901e-07      147.051 
         -25     0.171284  0.000308644 -4.22794e-07      147.051 
         -25     0.184201  0.000310428 -4.95913e-07      147.051 
         -25     0.197599  0.000311735 -5.74164e-07      147.051 
         -25     0.211455  0.000313209 -6.57166e-07      147.051 
         -25     0.225792  0.000315622 -7.44811e-07      147.051 
         -25       0.2406  0.000318407 -8.36879e-07      147.051 
         -25     0.255865  0.000319409 -9.33321e-07      147.051 
         -25     0.271613  0.000321649 -1.03364e-06      147.051 
         -25     0.287818  0.000323714 -1.13753e-06      147.051 
         -25     0.304506  0.000325667 -1.24541e-06      147.051 
         -25      0.32165  0.000327546 -1.35724e-06      147.051 
         -25     0.339278  0.000329381 -1.47325e-06      147.051 
         -25     0.357377  0.000331181 -1.59328e-06      147.051 
         -25      0.37593  0.000332942 -1.71701e-06      147.051 
         -25     0.394968  0.000334656 -1.84431e-06      147.051 
         -25     0.414461  0.000336301 -1.97452e-06      147.051 
         -25      0.43444   0.00033786 -2.10728e-06      147.051 
         -25     0.454872  0.000339315  -2.2417e-06      147.051 
         -25     0.475791  0.000340658 -2.37734e-06      147.051 
         -25     0.497163  0.000341884 -2.51333e-06      147.051 
         -25     0.519021  0.000343003 -2.64938e-06      147.051 
         -25      0.54135   0.00034402 -2.78517e-06      147.051 
         -25     0.564131  0.000344934 -2.92082e-06      147.051 
         -25       0.5874  0.000345716 -3.05745e-06      147.051 
         -25     0.611121  0.000346293 -3.19622e-06      147.051 
         -25      0.63533    0.0003468 -3.33633e-06      147.051 
         -25      0.65999  0.000347154 -3.48307e-06      147.051 
         -25     0.685139  0.000347358 -3.63542e-06      147.051 
         -25     0.710759  0.000347416 -3.79215e-06      147.051 
         -25     0.736828  0.000347334 -3.95213e-06      147.051 
         -25     0.763387  0.000347117 -4.11472e-06      147.051 
         -25     0.790396  0.000346774 -4.27888e-06      147.051 
         -25     0.817896  0.000346309 -4.44415e-06      147.051 
         -25     0.845843  0.000345733 -4.60962e-06      147.051 
         -25     0.874283  0.000345053 -4.77493e-06      147.051 
         -25      0.90317  0.000344278 -4.93919e-06      147.051 
         -25     0.932551  0.000343417 -5.10202e-06      147.051 
         -25     0.962401  0.000342479 -5.26255e-06      147.051 
         -25     0.992697  0.000341474 -5.41989e-06      147.051 
         -25      1.02349  0.000340409  -5.5734e-06      147.051 
         -25      1.05472  0.000339294 -5.72181e-06       147.05 
         -25      1.08645  0.000338134 -5.86426e-06       147.05 
         -25      1.11863  0.000336939 -5.99933e-06       147.05 
         -25       1.1513  0.000335711 -6.12599e-06       147.05 
         -25      1.18444  0.000334457 -6.24293e-06       147.05 
         -25      1.21802  0.000333179 -6.34897e-06       147.05 
         -25      1.25211  0.000331876 -6.44349e-06       147.05 
         -25      1.28663   0.00033055 -6.52603e-06       147.05 
         -25      1.32165  0.000329194 -6.59716e-06       147.05 
         -25      1.35712  0.000327806 -6.65824e-06       147.05 
         -25      1.39308  0.000326374 -6.71236e-06       147.05 
         -25      1.42951  0.000324888 -6.76444e-06       147.05 
         -25      1.46638  0.000323336 -6.82202e-06       147.05 
         -25      1.50375  0.000321697 -6.89612e-06      147.049 
         -25      1.54156  0.000320112 -6.84763e-06      147.049 
         -25      1.57987  0.000318527 -6.80849e-06      147.049 
         -25      1.61863  0.000316924 -6.78376e-06      147.049 
         -25      1.65788  0.000315297 -6.76712e-06      147.049 
         -25      1.69757  0.000313647 -6.75234e-06      147.049 
         -25      1.73776  0.000311973 -6.73327e-06      147.049 
         -25      1.77842  0.000310284 -6.70393e-06      147.049 
         -25      1.81952  0.000308591 -6.65861e-06      147.048 
         -25      1.86113  0.000306904 -6.59175e-06      147.048 
         -25      1.90316  0.000305243 -6.49833e-06      147.048 
         -25      1.94571  0.000303622 -6.37348e-06      147.048 
         -25      1.98869  0.000302065 -6.21317e-06      147.048 
         -25      2.03217  0.000300591 -6.01342e-06      147.048 
         -25      2.07612  0.000299223 -5.77125e-06      147.047 
         -25      2.12051  0.000297985 -5.48444e-06      147.047 
         -25       2.1654  0.000296896 -5.15081e-06      147.047 
         -25      2.21073  0.000295978 -4.76992e-06      147.047 
         -25      2.25656  0.000295248 -4.34103e-06      147.047 
         -25      2.30283  0.000294723  -3.8655e-06      147.047 
         -25       2.3496  0.000294416 -3.34418e-06      147.046 
         -25      2.39685  0.000294334 -2.77991e-06      147.046 
         -25      2.44452  0.000294481 -2.17661e-06      147.046 
         -25      2.49271  0.000294857 -1.53764e-06      147.046 
         -25      2.54132  0.000295454 -8.69209e-07      147.046 
         -25      2.59044  0.000296259 -1.76342e-07      147.045 
         -25         2.64  0.000297251  5.32992e-07      147.045 
         -25      2.69006  0.000298408   1.2523e-06      147.045 
         -25      2.74056  0.000299694  1.97224e-06      147.045 
         -25      2.79156  0.000301073   2.6852e-06      147.044 
         -25      2.84304  0.000302501  3.38155e-06      147.044 
         -25      2.89494  0.000303928  4.05157e-06      147.044 
         -25      2.94735  0.000305305   4.6872e-06      147.043 
         -25       3.0002  0.000306576  5.27868e-06      147.043 
         -25      3.05355  0.000307688  5.81884e-06      147.043 
         -25      3.10733  0.000308589  6.29983e-06      147.043 
         -25      3.16163  0.000309233   6.7168e-06      147.042 
         -25      3.21639  0.000309583  7.06571e-06      147.042 
         -25      3.27158  0.000309614  7.34518e-06      147.042 
         -25      3.32729   0.00030932  7.55759e-06      147.041 
         -25      3.38342  0.000308718  7.70827e-06      147.041 
         -25      3.44007  0.000307856  7.80769e-06      147.041 
         -25      3.49714   0.00030682  7.87126e-06       147.04 
         -25      3.55472   0.00030574  7.92102e-06       147.04 
         -25      3.61273  0.000304805  7.98614e-06      147.039 
         -25      3.67125  0.000304268  8.10455e-06      147.039 
         -25      3.73025  0.000304463  8.32382e-06      147.039 
         -25      3.78967  0.000304465  8.52429e-06      147.038 
         -25      3.84961  0.000303975  8.70195e-06      147.038 
         -25      3.90996  0.000303446  8.89448e-06      147.037 
         -25      3.97084  0.000302887  9.08109e-06      147.037 
         -25      4.03214  0.000302311  9.24871e-06      147.036 
         -25      4.09395  0.000301725  9.39181e-06      147.036 
         -25      4.15624  0.000301138  9.51002e-06      147.035 
         -25      4.21895  0.000300555  9.60734e-06      147.035 
         -25      4.28217   0.00029998  9.69085e-06      147.035 
         -25      4.34582  0.000299419  9.76903e-06      147.034 
         -25      4.40998  0.000298873  9.85107e-06      147.033 
         -25      4.47457  0.000298345  9.94533e-06      147.033 
         -25      4.53968  0.000297835  1.00589e-05      147.032 
         -25      4.60525  0.000297345  1.01965e-05      147.032 
         -25      4.67125  0.000296874  1.03599e-05      147.031 
         -25      4.73777  0.000296421  1.05484e-05      147.031 
         -25       4.8047  0.000295986  1.07576e-05       147.03 
         -25      4.87216  0.000295567  1.09815e-05       147.03 
         -25      4.94003   0.00029516  1.12113e-05      147.029 
         -25      5.00843  0.000294764  1.14389e-05      147.028 
         -25      5.07724  0.000294375  1.16564e-05      147.028 
         -25      5.14658  0.000293988  1.18605e-05      147.027 
         -25      5.21639  0.000293597  1.20543e-05      147.026 
         -25      5.28661  0.000293196  1.22509e-05      147.026 
         -25      5.35736  0.000292775  1.24792e-05      147.025 
         -25      5.42852  0.000292369   1.2724e-05      147.024 
         -25      5.50021  0.000292017   1.3024e-05      147.023 
         -25      5.57231  0.000291687  1.34871e-05      147.023 
         -25      5.64493  0.000291317  1.38958e-05      147.022 
         -25      5.71803  0.000290898  1.39183e-05      147.021 
         -25      5.79154  0.000290531  1.38496e-05       147.02 
         -25      5.86558  0.000290201  1.37699e-05       147.02 
         -25      5.94003  0.000289897  1.37331e-05      147.019 
         -25      6.01501  0.000289609  1.37706e-05      147.018 
         -25       6.0904  0.000289332  1.38952e-05      147.017 
         -25      6.16632   0.00028906  1.41054e-05      147.016 
         -25      6.24271  0.000288791  1.43884e-05      147.015 
         -25       6.3195  0.000288588  1.46793e-05      147.015 
         -25      6.39683  0.000288455  1.48988e-05      147.014 
         -25      6.47457  0.000288295   1.5081e-05      147.013 
         -25      6.55284  0.000288103  1.52235e-05      147.012 
         -25      6.63152  0.000287877  1.53298e-05      147.011 
         -25      6.71073  0.000287617  1.54098e-05       147.01 
         -25      6.79034  0.000287326  1.54784e-05      147.009 
         -25      6.87049  0.000287011  1.55544e-05      147.008 
         -25      6.95111  0.000286678   1.5659e-05      147.007 
         -25      7.03214  0.000286335  1.58135e-05      147.006 
         -25       7.1137  0.000285993  1.60371e-05      147.005 
         -25      7.19566  0.000285657  1.63433e-05      147.004 
         -25      7.27816  0.000285335  1.67378e-05      147.003 
         -25      7.36106  0.000285026  1.72121e-05      147.001 
         -25      7.44451  0.000284726  1.77415e-05          147 
         -25      7.52842   0.00028442  1.82771e-05      146.999 
         -25      7.61273  0.000284082  1.87406e-05      146.998 
         -25      7.69758  0.000283669  1.90186e-05      146.997 
         -25      7.78283  0.000283119  1.89528e-05      146.996 
         -25      7.86862  0.000283045   1.8902e-05      146.994 
         -25      7.95481  0.000283554  1.95484e-05      146.993 
         -25      8.04155  0.000283792    2.044e-05      146.992 
         -25      8.12868  0.000283752  2.11893e-05      146.991 
         -25      8.21635  0.000283439  2.13234e-05      146.989 
         -25      8.30449  0.000283162  2.14284e-05      146.988 
         -25      8.39303  0.000282943  2.15236e-05      146.987 
         -25      8.48211  0.000282794  2.16246e-05      146.985 
         -25      8.57159  0.000282718  2.17424e-05      146.984 
         -25      8.66161   0.00028271  2.18847e-05      146.982 
         -25      8.75203  0.000282757   2.2055e-05      146.981 
         -25      8.84299  0.000282605  2.24675e-05      146.979 
         -25      8.93443  0.000282372  2.29358e-05      146.978 
         -25      9.02626  0.000282162  2.33486e-05      146.976 
         -25      9.11863  0.000281968  2.37134e-05      146.975 
         -25      9.21139  0.000281783  2.40358e-05      146.973 
         -25      9.30471  0.000281605  2.43219e-05      146.972 
         -25      9.39841   0.00028143  2.45766e-05       146.97 
         -25      9.49267  0.000281258  2.48052e-05      146.968 
         -25      9.58739  0.000281088  2.50126e-05      146.967 
         -25      9.68251  0.000280921  2.52039e-05      146.965 
         -25      9.77817  0.000280756  2.53846e-05      146.963 
         -25      9.87422  0.000280593  2.55601e-05      146.962 
         -25      9.97083  0.000280432  2.57362e-05       146.96 
         -25      10.0678  0.000280272  2.59188e-05      146.958 
         -25      10.1654   0.00028011  2.61141e-05      146.956 
         -25      10.2633  0.000279946  2.63279e-05      146.955 
         -25      10.3618  0.000279778  2.65663e-05      146.953 
         -25      10.4607  0.000279604  2.68346e-05      146.951 
         -25      10.5601  0.000279425   2.7137e-05      146.949 
         -25        10.66  0.000279241  2.74774e-05      146.947 
         -25      10.7603  0.000279058  2.78569e-05      146.945 
         -25      10.8611  0.000278882  2.82756e-05      146.943 
         -25      10.9623  0.000278727  2.87293e-05      146.941 
         -25      11.0641  0.000278611  2.92116e-05      146.939 
         -25      11.1663  0.000278504  2.95487e-05      146.937 
         -25       11.269  0.000278415   2.9576e-05      146.935 
         -25      11.3721  0.000278417  2.95745e-05      146.933 
         -25      11.4757  0.000278464  2.95622e-05      146.931 
         -25      11.5798  0.000278518  2.95553e-05      146.928 
         -25      11.6844  0.000278548  2.95672e-05      146.926 
         -25      11.7894  0.000278531  2.96081e-05      146.924 
         -25       11.895  0.000278451   2.9684e-05      146.922 
         -25      12.0009  0.000278302  2.97955e-05      146.919 
         -25      12.1073  0.000278082  2.99382e-05      146.917 
         -25      12.2142  0.000277801  3.01015e-05      146.915 
         -25      12.3216  0.000277474  3.02687e-05      146.912 
         -25      12.4294  0.000277125  3.04168e-05       146.91 
         -25      12.5378  0.000276785  3.05169e-05      146.907 
         -25      12.6465  0.000276494  3.05339e-05      146.905 
         -25      12.7558  0.000276307   3.0522e-05      146.902 
         -25      12.8656  0.000276146  3.07477e-05        146.9 
         -25      12.9757  0.000275934  3.10664e-05      146.897 
         -25      13.0864   0.00027568  3.14186e-05      146.895 
         -25      13.1975  0.000275395  3.17602e-05      146.892 
         -25      13.3092  0.000275096  3.20627e-05      146.889 
         -25      13.4212  0.000274802  3.23096e-05      146.887 
         -25      13.5338  0.000274532  3.24971e-05      146.884 
         -25      13.6468  0.000274308  3.26308e-05      146.881 
         -25      13.7603  0.000274144  3.27244e-05      146.878 
         -25      13.8743  0.000274053  3.27976e-05      146.876 
         -25      13.9886  0.000274042  3.28739e-05      146.873 
         -25      14.1036  0.000274107  3.29781e-05       146.87 
         -25      14.2189  0.000274234  3.31334e-05      146.867 
         -25      14.3348  0.000274395  3.33593e-05      146.864 
         -25       14.451  0.000274545  3.36675e-05      146.861 
         -25      14.5678   0.00027462    3.406e-05      146.858 
         -25      14.6851  0.000274383  3.42444e-05      146.855 
         -25      14.8028  0.000274077  3.43785e-05      146.852 
         -25       14.921  0.000273797  3.45643e-05      146.848 
         -25      15.0396   0.00027355  3.47951e-05      146.845 
         -25      15.1588  0.000273339  3.50642e-05      146.842 
         -25      15.2783  0.000273163   3.5363e-05      146.839 
         -25      15.3984  0.000273021  3.56837e-05      146.835 
         -25       15.519  0.000272908  3.60173e-05      146.832 
         -25        15.64  0.000272817  3.63548e-05      146.829 
         -25      15.7615  0.000272742  3.66883e-05      146.825 
         -25      15.8834  0.000272674  3.70092e-05      146.822 
         -25      16.0058  0.000272605  3.73108e-05      146.818 
         -25      16.1286  0.000272526  3.75864e-05      146.815 
         -25       16.252  0.000272431  3.78314e-05      146.811 
         -25      16.3759  0.000272311  3.80421e-05      146.808 
         -25      16.5002  0.000272161  3.82168e-05      146.804 
         -25       16.625  0.000271978  3.83562e-05        146.8 
         -25      16.7501  0.000271759   3.8463e-05      146.797 
         -25      16.8759  0.000271506   3.8543e-05      146.793 
         -25       17.002  0.000271221  3.86044e-05      146.789 
         -25      17.1287  0.000270911  3.86592e-05      146.785 
         -25      17.2557  0.000270588  3.87227e-05      146.782 
         -25      17.3834  0.000270265  3.88142e-05      146.778 
         -25      17.5115  0.000269961  3.89572e-05      146.774 
         -25      17.6399  0.000269699  3.91792e-05       146.77 
         -25       17.769  0.000269506  3.95134e-05      146.766 
         -25      17.8984   0.00026933  3.97498e-05      146.762 
         -25      18.0284  0.000269114  3.99295e-05      146.757 
         -25      18.1587  0.000268942  4.02623e-05      146.753 
         -25      18.2896  0.000268843  4.06982e-05      146.749 
         -25       18.421  0.000268852   4.1163e-05      146.745 
         -25      18.5528  0.000268997  4.15563e-05      146.741 
         -25      18.6851  0.000269306  4.17491e-05      146.736 
         -25      18.8178  0.000269798  4.15783e-05      146.732 
         -25      18.9511  0.000268957  4.20082e-05      146.728 
         -25      19.0847  0.000268036  4.25528e-05      146.723 
         -25      19.2189  0.000267522  4.28443e-05      146.719 
         -25      19.3535  0.000267268  4.29107e-05      146.714 
         -25      19.4886  0.000267136  4.27861e-05      146.709 
         -25      19.6242  0.000266978  4.25765e-05      146.705 
         -25      19.7602  0.000266768  4.25338e-05        146.7 
         -25      19.8968  0.000266574  4.26019e-05      146.695 
         -25      20.0337  0.000266405  4.27581e-05      146.691 
         -25      20.1712  0.000266264   4.2983e-05      146.686 
         -25      20.3091  0.000266146  4.32592e-05      146.681 
         -25      20.4475  0.000266043  4.35728e-05      146.676 
         -25      20.5864  0.000265945  4.39118e-05      146.671 
         -25      20.7257  0.000265841  4.42666e-05      146.666 
         -25      20.8655  0.000265719   4.4631e-05      146.661 
         -25      21.0058  0.000265571  4.49998e-05      146.656 
         -25      21.1465  0.000265388  4.53711e-05      146.651 
         -25      21.2877  0.000265168  4.57436e-05      146.646 
         -25      21.4294  0.000264909  4.61186e-05      146.641 
         -25      21.5716  0.000264616  4.64977e-05      146.635 
         -25      21.7142  0.000264294  4.68834e-05       146.63 
         -25      21.8573  0.000263955  4.72793e-05      146.625 
         -25      22.0008  0.000263613  4.76876e-05      146.619 
         -25      22.1449  0.000263283  4.81109e-05      146.614 
         -25      22.2893  0.000262981  4.85493e-05      146.608 
         -25      22.4344  0.000262722   4.9002e-05      146.603 
         -25      22.5797   0.00026252   4.9464e-05      146.597 
         -25      22.7257  0.000262381  4.99278e-05      146.592 
         -25      22.8721  0.000262305  5.03805e-05      146.586 
         -25      23.0189   0.00026228  5.08034e-05       146.58 
         -25      23.1663  0.000262277  5.11719e-05      146.575 
         -25       23.314  0.000262252  5.14527e-05      146.569 
         -25      23.4623  0.000262131  5.16038e-05      146.563 
         -25       23.611  0.000261817  5.15723e-05      146.557 
         -25      23.7602  0.000261639  5.18421e-05      146.551 
         -25        23.91  0.000261777   5.2449e-05      146.545 
         -25        24.06  0.000261767  5.28091e-05      146.539 
         -25      24.2107  0.000261643  5.30072e-05      146.533 
         -25      24.3617  0.000261431  5.31084e-05      146.527 
         -25      24.5133  0.000261157  5.31619e-05       146.52 
         -25      24.6653  0.000260841   5.3203e-05      146.514 
         -25      24.8178  0.000260499  5.32548e-05      146.508 
         -25      24.9708  0.000260145   5.3331e-05      146.501 
         -25      25.1242  0.000259788  5.34373e-05      146.495 
         -25      25.2781  0.000259437  5.35734e-05      146.489 
         -25      25.4324  0.000259096  5.37349e-05      146.482 
         -25      25.5873  0.000258769  5.39148e-05      146.475 
         -25      25.7426  0.000258456  5.41046e-05      146.469 
         -25      25.8984  0.000258158  5.42965e-05      146.462 
         -25      26.0546  0.000257873  5.44833e-05      146.455 
         -25      26.2114  0.000257599  5.46603e-05      146.449 
         -25      26.3686  0.000257332  5.48253e-05      146.442 
         -25      26.5262  0.000257069  5.49795e-05      146.435 
         -25      26.6844  0.000256808  5.51279e-05      146.428 
         -25      26.8429  0.000256544  5.52786e-05      146.421 
         -25       27.002  0.000256274  5.54434e-05      146.414 
         -25      27.1615  0.000255997  5.56363e-05      146.407 
         -25      27.3216  0.000255711   5.5874e-05        146.4 
         -25      27.4821  0.000255416  5.61731e-05      146.393 
         -25       27.643  0.000255112  5.65495e-05      146.386 
         -25      27.8044  0.000254803  5.70172e-05      146.378 
         -25      27.9663  0.000254492   5.7584e-05      146.371 
         -25      28.1287  0.000254185  5.82518e-05      146.364 
         -25      28.2914  0.000253891  5.90101e-05      146.356 
         -25      28.4548  0.000253618  5.98365e-05      146.349 
         -25      28.6185   0.00025338  6.06883e-05      146.341 
         -25      28.7828  0.000253231  6.10729e-05      146.334 
         -25      28.9475  0.000253257   6.0523e-05      146.326 
         -25      29.1126   0.00025347  5.97597e-05      146.318 
         -25      29.2784  0.000253101  6.09027e-05       146.31 
         -25      29.4444  0.000252893  6.21197e-05      146.303 
         -25       29.611  0.000252866  6.25987e-05      146.295 
         -25       29.778  0.000252667   6.2775e-05      146.287 
         -25      29.9456  0.000252298  6.28954e-05      146.279 
         -25      30.1137  0.000251834  6.30012e-05      146.271 
         -25      30.2821   0.00025133  6.31202e-05      146.263 
         -25      30.4511  0.000250827  6.32696e-05      146.255 
         -25      30.6204  0.000250351  6.34567e-05      146.247 
         -25      30.7903  0.000249916  6.36825e-05      146.238 
         -25      30.9606   0.00024953  6.39422e-05       146.23 
         -25      31.1315   0.00024919  6.42284e-05      146.222 
         -25      31.3028  0.000248891   6.4531e-05      146.214 
         -25      31.4745  0.000248623  6.48395e-05      146.205 
         -25      31.6468  0.000248375   6.5145e-05      146.197 
         -25      31.8194  0.000248134  6.54387e-05      146.188 
         -25      31.9926   0.00024789  6.57156e-05       146.18 
         -25      32.1662  0.000247632  6.59724e-05      146.171 
         -25      32.3404  0.000247354  6.62096e-05      146.162 
         -25      32.5149  0.000247052  6.64301e-05      146.154 
         -25        32.69  0.000246724  6.66401e-05      146.145 
         -25      32.8655  0.000246373  6.68473e-05      146.136 
         -25      33.0414  0.000246004  6.70605e-05      146.127 
         -25       33.218  0.000245623  6.72889e-05      146.118 
         -25      33.3948  0.000245241   6.7539e-05      146.109 
         -25      33.5723  0.000244864  6.78144e-05        146.1 
         -25        33.75  0.000244501  6.81113e-05      146.091 
         -25      33.9284  0.000244153  6.84181e-05      146.082 
         -25      34.1073  0.000243819  6.87098e-05      146.073 
         -25      34.2865  0.000243486  6.89457e-05      146.063 
         -25      34.4663  0.000243217  6.90742e-05      146.054 
         -25      34.6465   0.00024313  6.92683e-05      146.045 
         -25      34.8272   0.00024284  6.95636e-05      146.035 
         -25      35.0083  0.000242419  6.98959e-05      146.026 
         -25        35.19  0.000241928  7.02178e-05      146.016 
         -25      35.3721  0.000241417  7.04961e-05      146.007 
         -25      35.5546  0.000240924   7.0711e-05      145.997 
         -25      35.7377  0.000240475  7.08551e-05      145.987 
         -25      35.9211   0.00024009  7.09306e-05      145.978 
         -25      36.1052  0.000239774  7.09485e-05      145.968 
         -25      36.2895  0.000239528  7.09261e-05      145.958 
         -25      36.4745  0.000239341  7.08851e-05      145.948 
         -25      36.6598  0.000239198  7.08493e-05      145.938 
         -25      36.8457  0.000239078  7.08425e-05      145.928 
         -25      37.0321  0.000238956  7.08853e-05      145.918 
         -25      37.2188  0.000238805   7.0993e-05      145.908 
         -25      37.4062  0.000238599  7.11726e-05      145.898 
         -25      37.5938  0.000238316  7.14191e-05      145.888 
         -25      37.7821  0.000237935  7.17135e-05      145.878 
         -25      37.9707  0.000237448  7.20176e-05      145.867 
         -25      38.1599  0.000236854  7.22725e-05      145.857 
         -25      38.3496   0.00023617  7.23926e-05      145.847 
         -25      38.5396  0.000235594   7.2525e-05      145.836 
         -25      38.7302  0.000235274  7.28234e-05      145.826 
         -25      38.9211  0.000235002  7.30261e-05      145.815 
         -25      39.1127  0.000234762  7.31799e-05      145.805 
         -25      39.3046  0.000234539  7.33243e-05      145.794 
         -25      39.4971  0.000234315  7.34909e-05      145.783 
         -25      39.6899  0.000234071     7.37e-05      145.773 
         -25      39.8833  0.000233787  7.39593e-05      145.762 
         -25      40.0772  0.000233442  7.42604e-05      145.751 
         -25      40.2714  0.000233015  7.45761e-05       145.74 
         -25      40.4663  0.000232482  7.48587e-05      145.729 
         -25      40.6615  0.000231823  7.50352e-05      145.718 
         -25      40.8573  0.000231014  7.50048e-05      145.707 
         -25      41.0534   0.00023037  7.50504e-05      145.696 
         -25      41.2501   0.00023007  7.54166e-05      145.685 
         -25      41.4473  0.000229704  7.56495e-05      145.674 
         -25      41.6448  0.000229293  7.57893e-05      145.663 
         -25      41.8429  0.000228854  7.58692e-05      145.652 
         -25      42.0414  0.000228402  7.59158e-05       145.64 
         -25      42.2405  0.000227945  7.59501e-05      145.629 
         -25      42.4399  0.000227494  7.59877e-05      145.618 
         -25      42.6399  0.000227054    7.604e-05      145.606 
         -25      42.8404  0.000226629  7.61141e-05      145.595 
         -25      43.0412  0.000226221  7.62137e-05      145.583 
         -25      43.2426   0.00022583  7.63399e-05      145.572 
         -25      43.4444  0.000225458  7.64909e-05       145.56 
         -25      43.6467  0.000225101  7.66635e-05      145.548 
         -25      43.8494  0.000224757  7.68527e-05      145.537 
         -25      44.0527  0.000224424  7.70529e-05      145.525 
         -25      44.2563  0.000224099  7.72575e-05      145.513 
         -25      44.4606  0.000223778  7.74602e-05      145.501 
         -25      44.6653  0.000223457  7.76544e-05      145.489 
         -25      44.8704  0.000223135   7.7834e-05      145.477 
         -25       45.076  0.000222806  7.79942e-05      145.465 
         -25       45.282   0.00022247  7.81306e-05      145.453 
         -25      45.4886  0.000222124  7.82403e-05      145.441 
         -25      45.6955  0.000221767  7.83216e-05      145.429 
         -25       45.903  0.000221396  7.83746e-05      145.417 
         -25      46.1111  0.000221012  7.84004e-05      145.405 
         -25      46.3194  0.000220616  7.84021e-05      145.393 
         -25      46.5283  0.000220205  7.83842e-05       145.38 
         -25      46.7376  0.000219784  7.83525e-05      145.368 
         -25      46.9475   0.00021935  7.83142e-05      145.356 
         -25      47.1577  0.000218907  7.82777e-05      145.343 
         -25      47.3685  0.000218455  7.82519e-05      145.331 
         -25      47.5798  0.000217995  7.82463e-05      145.318 
         -25      47.7914  0.000217527  7.82706e-05      145.306 
         -25      48.0037  0.000217071  7.83624e-05      145.293 