Variables = x, y, u, v, p

Zone, I=800, F=POINT
         -50            0            0            0      -65.094 
         -50     0.000234 -7.55449e-06 -1.38218e-09      -65.094 
         -50     0.000939  -2.8416e-05 -5.28866e-09      -65.094 
         -50     0.002113  -5.7355e-05 -1.10026e-08      -65.094 
         -50     0.003759  -8.7435e-05 -1.75692e-08      -65.094 
         -50     0.005872 -0.000111727 -2.39963e-08      -65.094 
         -50     0.008457 -0.000125576 -2.95794e-08      -65.094 
         -50      0.01151 -0.000127728 -3.40248e-08      -65.094 
         -50     0.015036 -0.000120748 -3.75413e-08      -65.094 
         -50     0.019031 -0.000110005  -4.0698e-08      -65.094 
         -50     0.023493 -0.000101563 -4.41796e-08      -65.094 
         -50     0.028429 -9.95618e-05 -4.84583e-08      -65.094 
         -50     0.033831 -0.000104157 -5.34961e-08      -65.094 
         -50     0.039706 -0.000111113  -5.8697e-08      -65.094 
         -50     0.046047 -0.000114036 -6.31366e-08      -65.094 
         -50     0.052863 -0.000109193 -6.61822e-08      -65.094 
         -50      0.06015   -0.0001008 -6.81894e-08      -65.094 
         -50       0.0679 -0.000101135 -7.07031e-08      -65.094 
         -50     0.076126 -0.000114178 -7.48205e-08      -65.094 
         -50     0.084816 -9.97051e-05 -7.68462e-08      -65.094 
         -50     0.093982 -0.000105652 -7.99711e-08      -65.094 
         -50     0.103611 -0.000107196 -8.30474e-08      -65.094 
         -50     0.113718 -0.000106636 -8.71909e-08      -65.094 
         -50     0.124286 -0.000105609 -9.32578e-08      -65.094 
         -50     0.135333 -0.000105016 -1.01907e-07      -65.094 
         -50      0.14685 -0.000105086 -1.13657e-07      -65.094 
         -50     0.158827 -0.000105546 -1.29015e-07      -65.094 
         -50     0.171284 -0.000105919 -1.48656e-07      -65.094 
         -50     0.184201 -0.000105851  -1.7338e-07      -65.094 
         -50     0.197599 -0.000105398 -2.04124e-07      -65.094 
         -50     0.211455 -0.000105087 -2.41354e-07      -65.094 
         -50     0.225792 -0.000105531 -2.84293e-07      -65.094 
         -50       0.2406 -0.000106259  -3.2891e-07      -65.094 
         -50     0.255865 -0.000105555  -3.6548e-07      -65.094 
         -50     0.271613 -0.000105896 -4.07431e-07      -65.094 
         -50     0.287818 -0.000106108 -4.52764e-07     -65.0939 
         -50     0.304506 -0.000106249 -4.89326e-07     -65.0939 
         -50      0.32165 -0.000106362 -5.07062e-07     -65.0939 
         -50     0.339278 -0.000106478 -4.98534e-07     -65.0939 
         -50     0.357377  -0.00010661 -4.59022e-07     -65.0939 
         -50      0.37593 -0.000106763 -3.86815e-07     -65.0939 
         -50     0.394968 -0.000106931 -2.82933e-07     -65.0939 
         -50     0.414461 -0.000107104 -1.51515e-07     -65.0938 
         -50      0.43444 -0.000107269  9.96653e-10     -65.0938 
         -50     0.454872 -0.000107417  1.65282e-07     -65.0938 
         -50     0.475791 -0.000107542  3.30381e-07     -65.0938 
         -50     0.497163 -0.000107649  4.82911e-07     -65.0938 
         -50     0.519021 -0.000107746  6.08258e-07     -65.0937 
         -50      0.54135 -0.000107847  6.89715e-07     -65.0937 
         -50     0.564131 -0.000107954  7.08685e-07     -65.0937 
         -50       0.5874 -0.000108049  6.43874e-07     -65.0937 
         -50     0.611121 -0.000108063  4.66868e-07     -65.0936 
         -50      0.63533 -0.000108056  2.35315e-07     -65.0936 
         -50      0.65999 -0.000108091  6.89687e-08     -65.0936 
         -50     0.685139  -0.00010815 -3.53776e-08     -65.0935 
         -50     0.710759 -0.000108213 -8.23509e-08     -65.0935 
         -50     0.736828 -0.000108269 -7.84161e-08     -65.0935 
         -50     0.763387 -0.000108307 -3.14601e-08     -65.0934 
         -50     0.790396  -0.00010832  4.93935e-08     -65.0934 
         -50     0.817896 -0.000108307  1.54359e-07     -65.0933 
         -50     0.845843 -0.000108266  2.72897e-07     -65.0933 
         -50     0.874283 -0.000108203  3.94768e-07     -65.0932 
         -50      0.90317 -0.000108121  5.09749e-07     -65.0932 
         -50     0.932551 -0.000108031   6.0885e-07     -65.0931 
         -50     0.962401 -0.000107941  6.84127e-07     -65.0931 
         -50     0.992697 -0.000107862  7.29516e-07      -65.093 
         -50      1.02349 -0.000107805   7.4126e-07     -65.0929 
         -50      1.05472 -0.000107781   7.1808e-07     -65.0929 
         -50      1.08645 -0.000107798  6.61498e-07     -65.0928 
         -50      1.11863 -0.000107866  5.76103e-07     -65.0927 
         -50       1.1513 -0.000107988  4.69145e-07     -65.0926 
         -50      1.18444 -0.000108169  3.50667e-07     -65.0925 
         -50      1.21802 -0.000108408  2.32773e-07     -65.0925 
         -50      1.25211 -0.000108704  1.28373e-07     -65.0924 
         -50      1.28663 -0.000109051    5.049e-08     -65.0923 
         -50      1.32165 -0.000109444   9.7691e-09     -65.0922 
         -50      1.35712 -0.000109876  1.25281e-08     -65.0921 
         -50      1.39308 -0.000110345  5.73787e-08      -65.092 
         -50      1.42951  -0.00011085  1.31364e-07     -65.0919 
         -50      1.46638   -0.0001114  2.05017e-07     -65.0918 
         -50      1.50375  -0.00011202  2.26715e-07     -65.0916 
         -50      1.54156 -0.000112293  1.39622e-07     -65.0915 
         -50      1.57987 -0.000112415  5.46304e-08     -65.0914 
         -50      1.61863 -0.000112417 -2.18978e-08     -65.0913 
         -50      1.65788 -0.000112309 -8.84177e-08     -65.0911 
         -50      1.69757 -0.000112098 -1.43458e-07      -65.091 
         -50      1.73776  -0.00011179 -1.86065e-07     -65.0908 
         -50      1.77842 -0.000111394 -2.15482e-07     -65.0907 
         -50      1.81952 -0.000110917 -2.31339e-07     -65.0905 
         -50      1.86113 -0.000110365 -2.33655e-07     -65.0904 
         -50      1.90316 -0.000109747  -2.2278e-07     -65.0902 
         -50      1.94571 -0.000109068 -1.99412e-07       -65.09 
         -50      1.98869 -0.000108336 -1.64665e-07     -65.0898 
         -50      2.03217 -0.000107556  -1.1991e-07     -65.0897 
         -50      2.07612 -0.000106736 -6.69425e-08     -65.0895 
         -50      2.12051 -0.000105883 -7.90645e-09     -65.0893 
         -50       2.1654 -0.000105001  5.48963e-08     -65.0891 
         -50      2.21073 -0.000104099  1.18701e-07     -65.0889 
         -50      2.25656 -0.000103181  1.80706e-07     -65.0886 
         -50      2.30283 -0.000102256  2.37716e-07     -65.0884 
         -50       2.3496 -0.000101327  2.86576e-07     -65.0882 
         -50      2.39685 -0.000100403  3.23907e-07      -65.088 
         -50      2.44452 -9.94894e-05  3.46344e-07     -65.0877 
         -50      2.49271 -9.85923e-05  3.50627e-07     -65.0875 
         -50      2.54132 -9.77192e-05  3.33597e-07     -65.0872 
         -50      2.59044 -9.68751e-05  2.92308e-07     -65.0869 
         -50         2.64 -9.60677e-05  2.24247e-07     -65.0867 
         -50      2.69006 -9.53021e-05  1.27188e-07     -65.0864 
         -50      2.74056 -9.45856e-05 -2.47444e-10     -65.0861 
         -50      2.79156  -9.3923e-05 -1.59065e-07     -65.0858 
         -50      2.84304 -9.33205e-05 -3.49096e-07     -65.0855 
         -50      2.89494 -9.27837e-05 -5.69025e-07     -65.0852 
         -50      2.94735 -9.23161e-05 -8.16839e-07     -65.0848 
         -50       3.0002 -9.19224e-05 -1.08835e-06     -65.0845 
         -50      3.05355 -9.16045e-05 -1.37855e-06     -65.0842 
         -50      3.10733 -9.13641e-05 -1.67966e-06     -65.0838 
         -50      3.16163 -9.12007e-05 -1.98275e-06     -65.0835 
         -50      3.21639  -9.1112e-05 -2.27574e-06     -65.0831 
         -50      3.27158 -9.10932e-05 -2.54394e-06     -65.0827 
         -50      3.32729 -9.11364e-05 -2.77032e-06     -65.0823 
         -50      3.38342 -9.12301e-05 -2.93381e-06     -65.0819 
         -50      3.44007  -9.1359e-05 -3.01027e-06     -65.0815 
         -50      3.49714 -9.15023e-05 -2.97125e-06     -65.0811 
         -50      3.55472 -9.16338e-05 -2.78394e-06     -65.0807 
         -50      3.61273 -9.17204e-05 -2.41112e-06     -65.0802 
         -50      3.67125 -9.17214e-05 -1.80944e-06     -65.0798 
         -50      3.73025 -9.15868e-05 -9.30632e-07     -65.0793 
         -50      3.78967 -9.08889e-05  -1.6033e-06     -65.0789 
         -50      3.84961 -9.03337e-05 -1.95695e-06     -65.0784 
         -50      3.90996 -9.01277e-05 -1.35309e-06     -65.0779 
         -50      3.97084 -9.07366e-05 -1.27334e-06     -65.0774 
         -50      4.03214 -9.14332e-05 -1.31435e-06     -65.0769 
         -50      4.09395 -9.20884e-05 -1.39403e-06     -65.0763 
         -50      4.15624 -9.26761e-05 -1.54034e-06     -65.0758 
         -50      4.21895 -9.31785e-05 -1.76164e-06     -65.0752 
         -50      4.28217 -9.35865e-05 -2.05167e-06     -65.0747 
         -50      4.34582 -9.38965e-05 -2.39249e-06     -65.0741 
         -50      4.40998 -9.41117e-05  -2.7603e-06     -65.0735 
         -50      4.47457 -9.42399e-05 -3.12716e-06     -65.0729 
         -50      4.53968 -9.42937e-05  -3.4668e-06     -65.0723 
         -50      4.60525 -9.42884e-05 -3.75561e-06     -65.0717 
         -50      4.67125 -9.42418e-05 -3.97629e-06      -65.071 
         -50      4.73777 -9.41728e-05 -4.12011e-06     -65.0704 
         -50       4.8047 -9.41005e-05 -4.18698e-06     -65.0697 
         -50      4.87216 -9.40424e-05 -4.18663e-06      -65.069 
         -50      4.94003 -9.40141e-05 -4.13737e-06     -65.0683 
         -50      5.00843 -9.40274e-05 -4.06422e-06     -65.0676 
         -50      5.07724 -9.40892e-05 -3.99578e-06     -65.0669 
         -50      5.14658 -9.42005e-05 -3.95907e-06     -65.0661 
         -50      5.21639 -9.43547e-05 -3.97336e-06     -65.0654 
         -50      5.28661 -9.45367e-05 -4.04138e-06     -65.0646 
         -50      5.35736 -9.47217e-05 -4.13908e-06     -65.0638 
         -50      5.42852 -9.48734e-05 -4.20238e-06      -65.063 
         -50      5.50021 -9.49436e-05 -4.11205e-06     -65.0622 
         -50      5.57231 -9.48707e-05 -3.67548e-06     -65.0614 
         -50      5.64493 -9.45788e-05 -2.60444e-06     -65.0605 
         -50      5.71803 -9.57361e-05 -3.19636e-06     -65.0596 
         -50      5.79154 -9.64313e-05 -3.40424e-06     -65.0588 
         -50      5.86558 -9.68672e-05 -3.40319e-06     -65.0579 
         -50      5.94003 -9.71755e-05 -3.31872e-06     -65.0569 
         -50      6.01501 -9.74338e-05 -3.23537e-06      -65.056 
         -50       6.0904 -9.76765e-05 -3.20493e-06     -65.0551 
         -50      6.16632 -9.79103e-05 -3.25377e-06     -65.0541 
         -50      6.24271 -9.81265e-05 -3.39025e-06     -65.0531 
         -50       6.3195 -9.83142e-05 -3.61093e-06     -65.0521 
         -50      6.39683  -9.8474e-05 -3.90726e-06     -65.0511 
         -50      6.47457 -9.86288e-05 -4.26919e-06       -65.05 
         -50      6.55284 -9.88366e-05 -4.69085e-06      -65.049 
         -50      6.63152 -9.91998e-05 -5.17098e-06     -65.0479 
         -50      6.71073 -9.98761e-05 -5.71682e-06     -65.0468 
         -50      6.79034  -0.00010029 -6.46674e-06     -65.0457 
         -50      6.87049 -0.000100275 -7.08318e-06     -65.0445 
         -50      6.95111  -0.00010011 -7.50431e-06     -65.0434 
         -50      7.03214  -9.9861e-05 -7.76786e-06     -65.0422 
         -50       7.1137 -9.95873e-05 -7.90203e-06      -65.041 
         -50      7.19566 -9.93414e-05 -7.92627e-06     -65.0398 
         -50      7.27816 -9.91653e-05  -7.8546e-06     -65.0386 
         -50      7.36106 -9.90894e-05 -7.69815e-06     -65.0373 
         -50      7.44451 -9.91286e-05 -7.46796e-06      -65.036 
         -50      7.52842 -9.92799e-05 -7.17926e-06     -65.0347 
         -50      7.61273 -9.95181e-05 -6.85543e-06     -65.0334 
         -50      7.69758  -9.9793e-05 -6.53158e-06     -65.0321 
         -50      7.78283 -0.000100023 -6.26154e-06     -65.0307 
         -50      7.86862 -0.000100094 -6.12161e-06     -65.0293 
         -50      7.95481 -9.98474e-05  -6.2184e-06     -65.0279 
         -50      8.04155 -9.90811e-05 -6.69522e-06     -65.0265 
         -50      8.12868 -9.94359e-05  -6.5939e-06     -65.0251 
         -50      8.21635 -0.000100047 -6.55541e-06     -65.0236 
         -50      8.30449 -0.000100454 -6.71084e-06     -65.0221 
         -50      8.39303 -0.000100679  -6.9357e-06     -65.0206 
         -50      8.48211 -0.000100757 -7.15356e-06      -65.019 
         -50      8.57159 -0.000100735 -7.32609e-06     -65.0175 
         -50      8.66161 -0.000100665 -7.44557e-06     -65.0159 
         -50      8.75203 -0.000100598 -7.52504e-06     -65.0143 
         -50      8.84299  -0.00010058 -7.59027e-06     -65.0126 
         -50      8.93443 -0.000100641 -7.67039e-06      -65.011 
         -50      9.02626 -0.000100786 -7.78935e-06     -65.0093 
         -50      9.11863 -0.000100979 -7.95767e-06     -65.0076 
         -50      9.21139  -0.00010113 -8.16335e-06     -65.0058 
         -50      9.30471  -0.00010108 -8.36477e-06     -65.0041 
         -50      9.39841 -0.000100932 -8.55166e-06     -65.0023 
         -50      9.49267    -0.000101 -8.75143e-06     -65.0005 
         -50      9.58739 -0.000101094 -8.94173e-06     -64.9986 
         -50      9.68251 -0.000101209 -9.13867e-06     -64.9968 
         -50      9.77817 -0.000101338 -9.35313e-06     -64.9949 
         -50      9.87422 -0.000101471 -9.59038e-06      -64.993 
         -50      9.97083   -0.0001016 -9.85221e-06      -64.991 
         -50      10.0678 -0.000101717 -1.01362e-05     -64.9891 
         -50      10.1654 -0.000101813 -1.04381e-05     -64.9871 
         -50      10.2633 -0.000101881 -1.07508e-05     -64.9851 
         -50      10.3618 -0.000101916 -1.10668e-05      -64.983 
         -50      10.4607 -0.000101913 -1.13774e-05     -64.9809 
         -50      10.5601 -0.000101872 -1.16739e-05     -64.9788 
         -50        10.66 -0.000101792 -1.19489e-05     -64.9767 
         -50      10.7603 -0.000101676 -1.21954e-05     -64.9745 
         -50      10.8611 -0.000101527 -1.24089e-05     -64.9723 
         -50      10.9623 -0.000101354  -1.2586e-05     -64.9701 
         -50      11.0641 -0.000101164 -1.27267e-05     -64.9679 
         -50      11.1663 -0.000100968 -1.28331e-05     -64.9656 
         -50       11.269 -0.000100777 -1.29102e-05     -64.9633 
         -50      11.3721 -0.000100604 -1.29662e-05     -64.9609 
         -50      11.4757 -0.000100461  -1.3012e-05     -64.9586 
         -50      11.5798 -0.000100359 -1.30612e-05     -64.9562 
         -50      11.6844 -0.000100308 -1.31297e-05     -64.9538 
         -50      11.7894 -0.000100313 -1.32356e-05     -64.9513 
         -50       11.895 -0.000100377 -1.33979e-05     -64.9488 
         -50      12.0009 -0.000100494 -1.36363e-05     -64.9463 
         -50      12.1073 -0.000100654 -1.39702e-05     -64.9438 
         -50      12.2142 -0.000100833 -1.44166e-05     -64.9412 
         -50      12.3216 -0.000100998 -1.49907e-05     -64.9386 
         -50      12.4294 -0.000101098 -1.57013e-05     -64.9359 
         -50      12.5378 -0.000101067 -1.65527e-05     -64.9333 
         -50      12.6465 -0.000101122 -1.72708e-05     -64.9306 
         -50      12.7558 -0.000101592 -1.73863e-05     -64.9278 
         -50      12.8656 -0.000101905 -1.71995e-05     -64.9251 
         -50      12.9757 -0.000101637  -1.6746e-05     -64.9223 
         -50      13.0864 -0.000100818 -1.59242e-05     -64.9194 
         -50      13.1975 -0.000100153 -1.53397e-05     -64.9166 
         -50      13.3092  -9.9624e-05 -1.49546e-05     -64.9137 
         -50      13.4212 -9.92157e-05 -1.47351e-05     -64.9107 
         -50      13.5338  -9.8911e-05 -1.46488e-05     -64.9078 
         -50      13.6468 -9.86935e-05 -1.46671e-05     -64.9048 
         -50      13.7603  -9.8547e-05 -1.47638e-05     -64.9018 
         -50      13.8743 -9.84559e-05 -1.49164e-05     -64.8987 
         -50      13.9886 -9.84055e-05 -1.51055e-05     -64.8956 
         -50      14.1036 -9.83824e-05 -1.53155e-05     -64.8925 
         -50      14.2189 -9.83747e-05 -1.55337e-05     -64.8893 
         -50      14.3348 -9.83719e-05 -1.57517e-05     -64.8861 
         -50       14.451 -9.83657e-05 -1.59635e-05     -64.8829 
         -50      14.5678 -9.83494e-05  -1.6167e-05     -64.8796 
         -50      14.6851 -9.83182e-05 -1.63626e-05     -64.8763 
         -50      14.8028 -9.82696e-05 -1.65533e-05      -64.873 
         -50       14.921 -9.82029e-05 -1.67446e-05     -64.8696 
         -50      15.0396  -9.8119e-05 -1.69432e-05     -64.8662 
         -50      15.1588 -9.80208e-05 -1.71574e-05     -64.8627 
         -50      15.2783 -9.79126e-05 -1.73952e-05     -64.8592 
         -50      15.3984 -9.77994e-05  -1.7665e-05     -64.8557 
         -50       15.519 -9.76873e-05  -1.7973e-05     -64.8522 
         -50        15.64 -9.75827e-05 -1.83231e-05     -64.8486 
         -50      15.7615 -9.74912e-05 -1.87163e-05      -64.845 
         -50      15.8834 -9.74179e-05 -1.91474e-05     -64.8413 
         -50      16.0058 -9.73655e-05 -1.96061e-05     -64.8376 
         -50      16.1286 -9.73346e-05 -2.00728e-05     -64.8339 
         -50       16.252 -9.73217e-05 -2.05191e-05     -64.8301 
         -50      16.3759 -9.73187e-05 -2.09041e-05     -64.8263 
         -50      16.5002 -9.73111e-05 -2.11728e-05     -64.8225 
         -50       16.625 -9.72771e-05 -2.12546e-05     -64.8186 
         -50      16.7501 -9.75182e-05 -2.15505e-05     -64.8147 
         -50      16.8759 -9.79555e-05 -2.22195e-05     -64.8107 
         -50       17.002 -9.81856e-05 -2.27525e-05     -64.8067 
         -50      17.1287 -9.82505e-05  -2.3187e-05     -64.8027 
         -50      17.2557 -9.81844e-05 -2.35548e-05     -64.7986 
         -50      17.3834 -9.80154e-05 -2.38837e-05     -64.7945 
         -50      17.5115 -9.77668e-05 -2.41954e-05     -64.7904 
         -50      17.6399 -9.74579e-05 -2.45062e-05     -64.7862 
         -50       17.769 -9.71042e-05 -2.48279e-05      -64.782 
         -50      17.8984 -9.67198e-05 -2.51656e-05     -64.7777 
         -50      18.0284 -9.63163e-05 -2.55206e-05     -64.7734 
         -50      18.1587 -9.59051e-05 -2.58879e-05     -64.7691 
         -50      18.2896  -9.5496e-05 -2.62595e-05     -64.7647 
         -50       18.421 -9.50992e-05 -2.66227e-05     -64.7603 
         -50      18.5528 -9.47248e-05 -2.69617e-05     -64.7559 
         -50      18.6851  -9.4382e-05 -2.72594e-05     -64.7514 
         -50      18.8178 -9.40803e-05 -2.74971e-05     -64.7469 
         -50      18.9511 -9.38278e-05 -2.76569e-05     -64.7423 
         -50      19.0847 -9.36317e-05 -2.77223e-05     -64.7377 
         -50      19.2189 -9.34965e-05  -2.7681e-05     -64.7331 
         -50      19.3535 -9.34236e-05 -2.75257e-05     -64.7284 
         -50      19.4886 -9.34097e-05 -2.72571e-05     -64.7237 
         -50      19.6242 -9.34451e-05 -2.68861e-05     -64.7189 
         -50      19.7602 -9.35121e-05 -2.64369e-05     -64.7141 
         -50      19.8968 -9.35825e-05 -2.59485e-05     -64.7093 
         -50      20.0337 -9.36153e-05 -2.54803e-05     -64.7044 
         -50      20.1712 -9.35536e-05 -2.51133e-05     -64.6995 
         -50      20.3091 -9.32351e-05 -2.51163e-05     -64.6945 
         -50      20.4475 -9.25693e-05 -2.58517e-05     -64.6895 
         -50      20.5864 -9.20264e-05 -2.65797e-05     -64.6845 
         -50      20.7257  -9.1721e-05 -2.71008e-05     -64.6794 
         -50      20.8655 -9.17902e-05 -2.72048e-05     -64.6743 
         -50      21.0058 -9.23923e-05 -2.66721e-05     -64.6691 
         -50      21.1465 -9.37046e-05 -2.52756e-05     -64.6639 
         -50      21.2877 -9.40919e-05 -2.48306e-05     -64.6587 
         -50      21.4294 -9.26252e-05 -2.62864e-05     -64.6534 
         -50      21.5716 -9.16031e-05  -2.7104e-05     -64.6481 
         -50      21.7142 -9.11406e-05 -2.73071e-05     -64.6427 
         -50      21.8573 -9.12998e-05 -2.70417e-05     -64.6373 
         -50      22.0008 -9.18424e-05 -2.69179e-05     -64.6319 
         -50      22.1449  -9.1911e-05 -2.76965e-05     -64.6264 
         -50      22.2893 -9.18217e-05 -2.85584e-05     -64.6209 
         -50      22.4344 -9.16379e-05 -2.93795e-05     -64.6154 
         -50      22.5797 -9.14115e-05 -3.00706e-05     -64.6098 
         -50      22.7257 -9.11819e-05 -3.05788e-05     -64.6041 
         -50      22.8721 -9.09774e-05 -3.08797e-05     -64.5985 
         -50      23.0189 -9.08142e-05 -3.09762e-05     -64.5928 
         -50      23.1663 -9.06974e-05 -3.08937e-05      -64.587 
         -50       23.314 -9.06227e-05 -3.06755e-05     -64.5812 
         -50      23.4623  -9.0577e-05 -3.03775e-05     -64.5754 
         -50       23.611 -9.05413e-05 -3.00648e-05     -64.5695 
         -50      23.7602 -9.04924e-05 -2.98042e-05     -64.5636 
         -50        23.91 -9.04061e-05 -2.96603e-05     -64.5576 
         -50        24.06  -9.0261e-05 -2.96888e-05     -64.5516 
         -50      24.2107 -9.00415e-05 -2.99301e-05     -64.5456 
         -50      24.3617 -8.97439e-05 -3.04022e-05     -64.5395 
         -50      24.5133 -8.93798e-05 -3.10952e-05     -64.5334 
         -50      24.6653 -8.89842e-05 -3.19611e-05     -64.5273 
         -50      24.8178 -8.86192e-05   -3.291e-05     -64.5211 
         -50      24.9708 -8.83843e-05 -3.37971e-05     -64.5148 
         -50      25.1242  -8.8422e-05 -3.44171e-05     -64.5086 
         -50      25.2781  -8.8928e-05 -3.44955e-05     -64.5022 
         -50      25.4324 -9.01589e-05 -3.36777e-05     -64.4959 
         -50      25.5873 -8.99654e-05 -3.40347e-05     -64.4895 
         -50      25.7426  -8.9306e-05  -3.4447e-05     -64.4831 
         -50      25.8984 -8.85068e-05 -3.46763e-05     -64.4766 
         -50      26.0546 -8.76982e-05 -3.47301e-05     -64.4701 
         -50      26.2114 -8.69747e-05 -3.46683e-05     -64.4635 
         -50      26.3686  -8.6404e-05 -3.45747e-05      -64.457 
         -50      26.5262 -8.60269e-05 -3.45303e-05     -64.4503 
         -50      26.6844 -8.58551e-05 -3.45888e-05     -64.4437 
         -50      26.8429 -8.58679e-05  -3.4754e-05      -64.437 
         -50       27.002 -8.60025e-05 -3.49606e-05     -64.4302 
         -50      27.1615 -8.61409e-05 -3.50558e-05     -64.4234 
         -50      27.3216 -8.60932e-05 -3.47858e-05     -64.4166 
         -50      27.4821 -8.55753e-05 -3.37826e-05     -64.4098 
         -50       27.643 -8.47577e-05  -3.3611e-05     -64.4029 
         -50      27.8044 -8.42204e-05 -3.41747e-05     -64.3959 
         -50      27.9663 -8.38354e-05 -3.45735e-05     -64.3889 
         -50      28.1287  -8.3567e-05  -3.4847e-05     -64.3819 
         -50      28.2914 -8.33849e-05 -3.50284e-05     -64.3749 
         -50      28.4548 -8.32621e-05 -3.51468e-05     -64.3678 
         -50      28.6185 -8.31762e-05 -3.52263e-05     -64.3607 
         -50      28.7828 -8.31082e-05 -3.52873e-05     -64.3535 
         -50      28.9475 -8.30428e-05 -3.53457e-05     -64.3463 
         -50      29.1126 -8.29676e-05 -3.54141e-05     -64.3391 
         -50      29.2784 -8.28734e-05 -3.55017e-05     -64.3318 
         -50      29.4444 -8.27537e-05 -3.56143e-05     -64.3245 
         -50       29.611 -8.26043e-05 -3.57555e-05     -64.3171 
         -50       29.778 -8.24236e-05 -3.59257e-05     -64.3097 
         -50      29.9456 -8.22113e-05 -3.61241e-05     -64.3023 
         -50      30.1137 -8.19693e-05 -3.63472e-05     -64.2948 
         -50      30.2821 -8.17011e-05 -3.65901e-05     -64.2874 
         -50      30.4511 -8.14107e-05 -3.68474e-05     -64.2798 
         -50      30.6204 -8.11037e-05 -3.71117e-05     -64.2722 
         -50      30.7903 -8.07857e-05 -3.73761e-05     -64.2646 
         -50      30.9606 -8.04635e-05 -3.76325e-05      -64.257 
         -50      31.1315 -8.01432e-05 -3.78736e-05     -64.2493 
         -50      31.3028 -7.98315e-05 -3.80919e-05     -64.2416 
         -50      31.4745 -7.95345e-05 -3.82805e-05     -64.2339 
         -50      31.6468 -7.92574e-05 -3.84342e-05     -64.2261 
         -50      31.8194 -7.90052e-05 -3.85481e-05     -64.2183 
         -50      31.9926 -7.87811e-05 -3.86197e-05     -64.2104 
         -50      32.1662 -7.85877e-05 -3.86477e-05     -64.2025 
         -50      32.3404 -7.84255e-05 -3.86333e-05     -64.1946 
         -50      32.5149 -7.82937e-05 -3.85801e-05     -64.1866 
         -50        32.69 -7.81891e-05 -3.84942e-05     -64.1786 
         -50      32.8655 -7.81067e-05 -3.83848e-05     -64.1706 
         -50      33.0414 -7.80393e-05 -3.82645e-05     -64.1625 
         -50       33.218 -7.79765e-05 -3.81489e-05     -64.1544 
         -50      33.3948  -7.7906e-05 -3.80579e-05     -64.1463 
         -50      33.5723  -7.7812e-05 -3.80147e-05     -64.1382 
         -50        33.75  -7.7676e-05 -3.80471e-05       -64.13 
         -50      33.9284 -7.74763e-05 -3.81872e-05     -64.1217 
         -50      34.1073 -7.71878e-05 -3.84716e-05     -64.1135 
         -50      34.2865 -7.67826e-05 -3.89411e-05     -64.1052 
         -50      34.4663 -7.62281e-05 -3.96426e-05     -64.0969 
         -50      34.6465 -7.54899e-05 -4.06263e-05     -64.0885 
         -50      34.8272 -7.45278e-05 -4.19498e-05     -64.0801 
         -50      35.0083 -7.42098e-05 -4.19026e-05     -64.0717 
         -50        35.19  -7.4441e-05 -4.07452e-05     -64.0632 
         -50      35.3721 -7.46329e-05  -3.9743e-05     -64.0547 
         -50      35.5546 -7.47357e-05  -3.9089e-05     -64.0462 
         -50      35.7377 -7.43766e-05 -3.93682e-05     -64.0377 
         -50      35.9211 -7.41477e-05 -3.95022e-05     -64.0291 
         -50      36.1052 -7.40193e-05 -3.95387e-05     -64.0205 
         -50      36.2895 -7.39645e-05 -3.95201e-05     -64.0119 
         -50      36.4745 -7.39583e-05 -3.94844e-05     -64.0032 
         -50      36.6598 -7.39781e-05 -3.94653e-05     -63.9945 
         -50      36.8457 -7.39906e-05 -3.94585e-05     -63.9858 
         -50      37.0321 -7.37612e-05 -3.89913e-05      -63.977 
         -50      37.2188 -7.35036e-05 -3.86625e-05     -63.9682 
         -50      37.4062 -7.32208e-05 -3.84468e-05     -63.9594 
         -50      37.5938 -7.29175e-05 -3.83222e-05     -63.9506 
         -50      37.7821  -7.2598e-05 -3.82692e-05     -63.9417 
         -50      37.9707 -7.22677e-05 -3.82708e-05     -63.9328 
         -50      38.1599 -7.19313e-05 -3.83122e-05     -63.9239 
         -50      38.3496 -7.15941e-05 -3.83809e-05     -63.9149 
         -50      38.5396 -7.12609e-05 -3.84662e-05     -63.9059 
         -50      38.7302 -7.09354e-05 -3.85596e-05     -63.8969 
         -50      38.9211 -7.06217e-05  -3.8654e-05     -63.8879 
         -50      39.1127 -7.03221e-05 -3.87443e-05     -63.8788 
         -50      39.3046  -7.0039e-05 -3.88265e-05     -63.8697 
         -50      39.4971 -6.97731e-05 -3.88983e-05     -63.8606 
         -50      39.6899  -6.9525e-05 -3.89581e-05     -63.8515 
         -50      39.8833 -6.92935e-05 -3.90056e-05     -63.8423 
         -50      40.0772 -6.90771e-05 -3.90416e-05     -63.8331 
         -50      40.2714 -6.88736e-05 -3.90671e-05     -63.8239 
         -50      40.4663 -6.86793e-05 -3.90841e-05     -63.8147 
         -50      40.6615 -6.84908e-05 -3.90951e-05     -63.8054 
         -50      40.8573 -6.83035e-05 -3.91025e-05     -63.7961 
         -50      41.0534 -6.81132e-05 -3.91094e-05     -63.7868 
         -50      41.2501 -6.79153e-05 -3.91185e-05     -63.7775 
         -50      41.4473 -6.77058e-05 -3.91326e-05     -63.7681 
         -50      41.6448 -6.74817e-05 -3.91542e-05     -63.7587 
         -50      41.8429 -6.72402e-05 -3.91856e-05     -63.7493 
         -50      42.0414 -6.69812e-05 -3.92283e-05     -63.7399 
         -50      42.2405 -6.67056e-05 -3.92834e-05     -63.7304 
         -50      42.4399 -6.64178e-05 -3.93511e-05     -63.7209 
         -50      42.6399 -6.61247e-05  -3.9431e-05     -63.7114 
         -50      42.8404 -6.58375e-05 -3.95213e-05     -63.7019 
         -50      43.0412 -6.55723e-05 -3.96194e-05     -63.6924 
         -50      43.2426   -6.535e-05 -3.97215e-05     -63.6828 
         -50      43.4444 -6.51982e-05 -3.98223e-05     -63.6732 
         -50      43.6467 -6.51515e-05 -3.99152e-05     -63.6636 
         -50      43.8494 -6.52529e-05 -3.99921e-05      -63.654 
         -50      44.0527 -6.55548e-05 -4.00433e-05     -63.6444 
         -50      44.2563 -6.60921e-05 -4.00608e-05     -63.6347 
         -50      44.4606 -6.56255e-05 -4.01983e-05      -63.625 
         -50      44.6653 -6.52268e-05 -4.03194e-05     -63.6153 
         -50      44.8704 -6.48699e-05 -4.04229e-05     -63.6056 
         -50       45.076 -6.45322e-05  -4.0508e-05     -63.5958 
         -50       45.282 -6.41966e-05 -4.05736e-05     -63.5861 
         -50      45.4886 -6.38496e-05 -4.06188e-05     -63.5763 
         -50      45.6955 -6.34842e-05 -4.06425e-05     -63.5665 
         -50       45.903 -6.30975e-05 -4.06434e-05     -63.5567 
         -50      46.1111 -6.26935e-05 -4.06196e-05     -63.5469 
         -50      46.3194 -6.22825e-05 -4.05685e-05      -63.537 
         -50      46.5283 -6.18806e-05 -4.04864e-05     -63.5272 
         -50      46.7376 -6.15122e-05 -4.03681e-05     -63.5173 
         -50      46.9475  -6.1208e-05 -4.02063e-05     -63.5074 
         -50      47.1577 -6.10078e-05 -3.99919e-05     -63.4975 
         -50      47.3685 -6.09034e-05 -3.98787e-05     -63.4876 
         -50      47.5798  -6.0758e-05 -4.00118e-05     -63.4776 
         -50      47.7914 -6.06056e-05 -4.01267e-05     -63.4677 
         -50      48.0037 -6.04442e-05 -4.02229e-05     -63.4577 