Variables = x, y, u, v, p

Zone, I=800, F=POINT
         300            0            0            0     -34.8616 
         300     0.000234 -1.07344e-05 -1.60751e-11     -34.8616 
         300     0.000939 -4.04161e-05 -2.49235e-10     -34.8616 
         300     0.002113 -8.16902e-05 -1.24809e-09     -34.8616 
         300     0.003759 -0.000124706 -3.91591e-09     -34.8616 
         300     0.005872 -0.000159422 -9.46803e-09     -34.8616 
         300     0.008457 -0.000178744 -1.94327e-08     -34.8616 
         300      0.01151 -0.000180137 -3.55605e-08     -34.8616 
         300     0.015036 -0.000166366 -5.98464e-08     -34.8616 
         300     0.019031 -0.000144334  -9.4378e-08     -34.8616 
         300     0.023493 -0.000122417 -1.41319e-07     -34.8616 
         300     0.028429 -0.000106958 -2.02954e-07     -34.8616 
         300     0.033831 -9.94077e-05 -2.81341e-07     -34.8616 
         300     0.039706 -9.52813e-05 -3.78616e-07     -34.8616 
         300     0.046047 -8.65703e-05 -4.96515e-07     -34.8616 
         300     0.052863 -6.74957e-05 -6.36813e-07     -34.8616 
         300      0.06015 -4.15312e-05  -8.0074e-07     -34.8616 
         300       0.0679 -2.30065e-05 -9.89036e-07     -34.8616 
         300     0.076126 -1.99113e-05 -1.20254e-06     -34.8616 
         300     0.084816  9.44707e-06 -1.44101e-06     -34.8616 
         300     0.093982  2.32397e-05 -1.70443e-06     -34.8616 
         300     0.103611  4.02416e-05 -1.99157e-06     -34.8616 
         300     0.113718   5.8805e-05 -2.30149e-06     -34.8616 
         300     0.124286  7.76611e-05 -2.63188e-06     -34.8616 
         300     0.135333  9.60901e-05 -2.98102e-06     -34.8616 
         300      0.14685  0.000113779 -3.34599e-06     -34.8616 
         300     0.158827  0.000130755 -3.72342e-06     -34.8616 
         300     0.171284  0.000147239  -4.1106e-06     -34.8616 
         300     0.184201  0.000163326  -4.5033e-06     -34.8616 
         300     0.197599  0.000178906 -4.89832e-06     -34.8616 
         300     0.211455  0.000193513 -5.29105e-06     -34.8616 
         300     0.225792  0.000206681 -5.67822e-06     -34.8616 
         300       0.2406  0.000218629 -6.05568e-06     -34.8616 
         300     0.255865   0.00023043  -6.4195e-06     -34.8616 
         300     0.271613  0.000240479 -6.76601e-06     -34.8616 
         300     0.287818   0.00024948 -7.09133e-06     -34.8616 
         300     0.304506  0.000257418 -7.39317e-06     -34.8616 
         300      0.32165   0.00026427 -7.66841e-06     -34.8616 
         300     0.339278  0.000270059  -7.9151e-06     -34.8616 
         300     0.357377  0.000274811 -8.13091e-06     -34.8616 
         300      0.37593  0.000278572 -8.31396e-06     -34.8616 
         300     0.394968  0.000281408 -8.46325e-06     -34.8616 
         300     0.414461  0.000283387 -8.57772e-06     -34.8616 
         300      0.43444  0.000284589 -8.65725e-06     -34.8616 
         300     0.454872  0.000285088 -8.70191e-06     -34.8616 
         300     0.475791  0.000284956 -8.71248e-06     -34.8616 
         300     0.497163  0.000284261 -8.69011e-06     -34.8616 
         300     0.519021  0.000283059 -8.63621e-06     -34.8616 
         300      0.54135  0.000281399 -8.55239e-06     -34.8616 
         300     0.564131  0.000279334 -8.44018e-06     -34.8616 
         300       0.5874  0.000276917 -8.30031e-06     -34.8616 
         300     0.611121  0.000274227 -8.13317e-06     -34.8616 
         300      0.63533  0.000271203 -7.94736e-06     -34.8616 
         300      0.65999  0.000267953 -7.74637e-06     -34.8616 
         300     0.685139  0.000264462 -7.53124e-06     -34.8616 
         300     0.710759  0.000260721 -7.30387e-06     -34.8616 
         300     0.736828  0.000256722 -7.06662e-06     -34.8616 
         300     0.763387  0.000252443 -6.82155e-06     -34.8616 
         300     0.790396  0.000247877 -6.57171e-06     -34.8616 
         300     0.817896  0.000242999  -6.3196e-06     -34.8616 
         300     0.845843  0.000237804 -6.06853e-06     -34.8616 
         300     0.874283  0.000232268   -5.821e-06     -34.8616 
         300      0.90317  0.000226386 -5.58019e-06     -34.8616 
         300     0.932551  0.000220139 -5.34824e-06     -34.8616 
         300     0.962401  0.000213524 -5.12756e-06     -34.8616 
         300     0.992697  0.000206544 -4.92006e-06     -34.8616 
         300      1.02349  0.000199188 -4.72662e-06     -34.8616 
         300      1.05472  0.000191476 -4.54815e-06     -34.8616 
         300      1.08645  0.000183406 -4.38432e-06     -34.8616 
         300      1.11863   0.00017501 -4.23467e-06     -34.8616 
         300       1.1513  0.000166301 -4.09759e-06     -34.8616 
         300      1.18444  0.000157316  -3.9713e-06     -34.8616 
         300      1.21802  0.000148098 -3.85356e-06     -34.8616 
         300      1.25211  0.000138673 -3.74174e-06     -34.8616 
         300      1.28663  0.000129101 -3.63375e-06     -34.8616 
         300      1.32165  0.000119408  -3.5278e-06     -34.8616 
         300      1.35712  0.000109652 -3.42371e-06     -34.8616 
         300      1.39308   9.9849e-05 -3.32303e-06     -34.8616 
         300      1.42951  9.00274e-05 -3.23054e-06     -34.8616 
         300      1.46638  8.01959e-05 -3.15522e-06     -34.8616 
         300      1.50375  7.03112e-05 -3.11147e-06     -34.8616 
         300      1.54156   6.0393e-05 -3.00276e-06     -34.8616 
         300      1.57987  5.04447e-05 -2.89245e-06     -34.8616 
         300      1.61863  4.04749e-05 -2.78682e-06     -34.8616 
         300      1.65788  3.04631e-05  -2.6849e-06     -34.8616 
         300      1.69757  2.04226e-05 -2.58613e-06     -34.8616 
         300      1.73776  1.03349e-05 -2.48968e-06     -34.8616 
         300      1.77842  2.07192e-07 -2.39509e-06     -34.8616 
         300      1.81952 -9.95111e-06 -2.30195e-06     -34.8616 
         300      1.86113 -2.01545e-05 -2.20971e-06     -34.8616 
         300      1.90316 -3.03826e-05 -2.11822e-06     -34.8616 
         300      1.94571 -4.06466e-05  -2.0271e-06     -34.8616 
         300      1.98869 -5.09229e-05 -1.93635e-06     -34.8616 
         300      2.03217 -6.12199e-05 -1.84576e-06     -34.8616 
         300      2.07612 -7.15192e-05 -1.75538e-06     -34.8616 
         300      2.12051 -8.18012e-05 -1.66535e-06     -34.8616 
         300       2.1654 -9.20692e-05 -1.57564e-06     -34.8616 
         300      2.21073 -0.000102292 -1.48654e-06     -34.8616 
         300      2.25656 -0.000112471 -1.39809e-06     -34.8616 
         300      2.30283 -0.000122573 -1.31067e-06     -34.8616 
         300       2.3496 -0.000132595 -1.22435e-06     -34.8616 
         300      2.39685  -0.00014251 -1.13945e-06     -34.8616 
         300      2.44452  -0.00015229 -1.05625e-06     -34.8616 
         300      2.49271 -0.000161929 -9.74837e-07     -34.8616 
         300      2.54132 -0.000171391 -8.95502e-07     -34.8616 
         300      2.59044 -0.000180667  -8.1825e-07     -34.8616 
         300         2.64 -0.000189722 -7.43277e-07     -34.8616 
         300      2.69006 -0.000198547  -6.7047e-07     -34.8616 
         300      2.74056 -0.000207105 -5.99871e-07     -34.8616 
         300      2.79156 -0.000215387 -5.31214e-07     -34.8616 
         300      2.84304 -0.000223365 -4.64308e-07     -34.8616 
         300      2.89494 -0.000231013 -3.98859e-07     -34.8616 
         300      2.94735 -0.000238323 -3.34321e-07     -34.8616 
         300       3.0002 -0.000245265 -2.70261e-07     -34.8616 
         300      3.05355 -0.000251833  -2.0595e-07     -34.8616 
         300      3.10733 -0.000258001 -1.40777e-07     -34.8616 
         300      3.16163 -0.000263768 -7.38628e-08     -34.8616 
         300      3.21639 -0.000269116 -4.43307e-09     -34.8616 
         300      3.27158 -0.000274035  6.82987e-08     -34.8616 
         300      3.32729 -0.000278528  1.45281e-07     -34.8616 
         300      3.38342 -0.000282585  2.27169e-07     -34.8616 
         300      3.44007 -0.000286214  3.14762e-07     -34.8616 
         300      3.49714 -0.000289416  4.08428e-07     -34.8616 
         300      3.55472 -0.000292203   5.0858e-07     -34.8616 
         300      3.61273 -0.000294584  6.15005e-07     -34.8616 
         300      3.67125 -0.000296579  7.27389e-07     -34.8616 
         300      3.73025 -0.000298207   8.4464e-07     -34.8616 
         300      3.78967 -0.000299538  9.84696e-07     -34.8616 
         300      3.84961 -0.000300492  1.16977e-06     -34.8616 
         300      3.90996 -0.000301064  1.38412e-06     -34.8616 
         300      3.97084 -0.000301293  1.61939e-06     -34.8616 
         300      4.03214 -0.000301215  1.87043e-06     -34.8616 
         300      4.09395 -0.000300868  2.13521e-06     -34.8616 
         300      4.15624 -0.000300285  2.41196e-06     -34.8616 
         300      4.21895 -0.000299503  2.69827e-06     -34.8616 
         300      4.28217 -0.000298552  2.99051e-06     -34.8617 
         300      4.34582 -0.000297466  3.28108e-06     -34.8617 
         300      4.40998 -0.000296274  3.55935e-06     -34.8617 
         300      4.47457 -0.000294976  3.91917e-06     -34.8617 
         300      4.53968 -0.000293594  4.26836e-06     -34.8617 
         300      4.60525 -0.000292154  4.59068e-06     -34.8617 
         300      4.67125  -0.00029068  4.88934e-06     -34.8617 
         300      4.73777 -0.000289186  5.16759e-06     -34.8617 
         300       4.8047 -0.000287687  5.42707e-06     -34.8617 
         300      4.87216 -0.000286192  5.66955e-06     -34.8617 
         300      4.94003 -0.000284711  5.89522e-06     -34.8617 
         300      5.00843 -0.000283246  6.10425e-06     -34.8617 
         300      5.07724   -0.0002818  6.29544e-06     -34.8617 
         300      5.14658 -0.000280372   6.4676e-06     -34.8617 
         300      5.21639  -0.00027896  6.61862e-06     -34.8617 
         300      5.28661 -0.000277564  6.74618e-06     -34.8617 
         300      5.35736 -0.000276177  6.84827e-06     -34.8617 
         300      5.42852   -0.0002748  6.92282e-06     -34.8617 
         300      5.50021 -0.000273417  6.98106e-06     -34.8617 
         300      5.57231  -0.00027206  7.04209e-06     -34.8617 
         300      5.64493 -0.000270751   7.0815e-06     -34.8617 
         300      5.71803 -0.000269466  7.10162e-06     -34.8617 
         300      5.79154 -0.000268188  7.10806e-06     -34.8617 
         300      5.86558 -0.000266901  7.10741e-06     -34.8617 
         300      5.94003 -0.000265603  7.10544e-06     -34.8617 
         300      6.01501 -0.000264291  7.10566e-06     -34.8617 
         300       6.0904 -0.000262974  7.10855e-06     -34.8617 
         300      6.16632 -0.000261663  7.11133e-06     -34.8617 
         300      6.24271 -0.000260377   7.1084e-06     -34.8617 
         300       6.3195 -0.000259137  7.09268e-06     -34.8617 
         300      6.39683 -0.000257964  7.05773e-06     -34.8617 
         300      6.47457 -0.000256782  7.02019e-06     -34.8617 
         300      6.55284 -0.000255524  7.00239e-06     -34.8617 
         300      6.63152 -0.000254275  6.98744e-06     -34.8617 
         300      6.71073 -0.000253037  6.97156e-06     -34.8617 
         300      6.79034 -0.000251814  6.95247e-06     -34.8617 
         300      6.87049 -0.000250605  6.92901e-06     -34.8617 
         300      6.95111 -0.000249411  6.90105e-06     -34.8617 
         300      7.03214 -0.000248233  6.86913e-06     -34.8617 
         300       7.1137 -0.000247069  6.83424e-06     -34.8617 
         300      7.19566 -0.000245919  6.79772e-06     -34.8617 
         300      7.27816 -0.000244779  6.76089e-06     -34.8617 
         300      7.36106 -0.000243652  6.72509e-06     -34.8617 
         300      7.44451 -0.000242534  6.69132e-06     -34.8617 
         300      7.52842 -0.000241425  6.66028e-06     -34.8617 
         300      7.61273 -0.000240325  6.63223e-06     -34.8617 
         300      7.69758 -0.000239234  6.60691e-06     -34.8617 
         300      7.78283 -0.000238154  6.58361e-06     -34.8617 
         300      7.86862 -0.000237083  6.56116e-06     -34.8617 
         300      7.95481 -0.000236025  6.53808e-06     -34.8617 
         300      8.04155  -0.00023498   6.5127e-06     -34.8617 
         300      8.12868  -0.00023395  6.48345e-06     -34.8617 
         300      8.21635 -0.000232937  6.44909e-06     -34.8617 
         300      8.30449 -0.000231942  6.40916e-06     -34.8617 
         300      8.39303 -0.000230967  6.36449e-06     -34.8617 
         300      8.48211 -0.000230009   6.3176e-06     -34.8617 
         300      8.57159 -0.000229067  6.27741e-06     -34.8617 
         300      8.66161   -0.0002281   6.3203e-06     -34.8617 
         300      8.75203 -0.000227143  6.31897e-06     -34.8617 
         300      8.84299 -0.000226247   6.1899e-06     -34.8617 
         300      8.93443 -0.000225393  6.13199e-06     -34.8617 
         300      9.02626 -0.000224551  6.13397e-06     -34.8617 
         300      9.11863 -0.000223707  6.16154e-06     -34.8617 
         300      9.21139 -0.000222855  6.19072e-06     -34.8617 
         300      9.30471 -0.000221993  6.20644e-06     -34.8617 
         300      9.39841 -0.000221127  6.20092e-06     -34.8617 
         300      9.49267  -0.00022026  6.17229e-06     -34.8617 
         300      9.58739 -0.000219403  6.12252e-06     -34.8617 
         300      9.68251 -0.000218585  6.03757e-06     -34.8617 
         300      9.77817 -0.000217792  5.93873e-06     -34.8617 
         300      9.87422 -0.000217026  5.83569e-06     -34.8617 
         300      9.97083 -0.000216287  5.73762e-06     -34.8617 
         300      10.0678 -0.000215574  5.65275e-06     -34.8617 
         300      10.1654 -0.000214884  5.58692e-06     -34.8617 
         300      10.2633 -0.000214216  5.54348e-06     -34.8617 
         300      10.3618 -0.000213564  5.52252e-06     -34.8617 
         300      10.4607 -0.000212923  5.52106e-06     -34.8617 
         300      10.5601 -0.000212289  5.53308e-06     -34.8617 
         300        10.66 -0.000211657   5.5502e-06     -34.8617 
         300      10.7603 -0.000211022  5.56255e-06     -34.8617 
         300      10.8611  -0.00021038  5.56013e-06     -34.8617 
         300      10.9623 -0.000209732  5.53463e-06     -34.8617 
         300      11.0641 -0.000209079  5.48159e-06     -34.8617 
         300      11.1663 -0.000208429   5.4033e-06     -34.8617 
         300       11.269 -0.000207795   5.3122e-06     -34.8617 
         300      11.3721 -0.000207197  5.23446e-06     -34.8617 
         300      11.4757 -0.000206665  5.21512e-06     -34.8617 
         300      11.5798 -0.000206239  5.32294e-06     -34.8617 
         300      11.6844   -0.0002058  5.14835e-06     -34.8617 
         300      11.7894 -0.000205362  5.07017e-06     -34.8617 
         300       11.895 -0.000204915  5.04613e-06     -34.8617 
         300      12.0009 -0.000204448  5.02763e-06     -34.8617 
         300      12.1073 -0.000203925  5.01871e-06     -34.8617 
         300      12.2142 -0.000203358  5.07805e-06     -34.8617 
         300      12.3216 -0.000202838   5.1063e-06     -34.8617 
         300      12.4294 -0.000202355  5.11292e-06     -34.8617 
         300      12.5378 -0.000201898  5.10542e-06     -34.8617 
         300      12.6465  -0.00020146  5.08951e-06     -34.8617 
         300      12.7558 -0.000201035   5.0693e-06     -34.8617 
         300      12.8656  -0.00020062  5.04757e-06     -34.8617 
         300      12.9757 -0.000200211  5.02599e-06     -34.8617 
         300      13.0864 -0.000199808  5.00523e-06     -34.8617 
         300      13.1975 -0.000199409  4.98529e-06     -34.8617 
         300      13.3092 -0.000199015  4.96558e-06     -34.8617 
         300      13.4212 -0.000198628  4.94521e-06     -34.8617 
         300      13.5338 -0.000198247  4.92301e-06     -34.8617 
         300      13.6468 -0.000197874  4.89784e-06     -34.8617 
         300      13.7603 -0.000197512  4.86865e-06     -34.8616 
         300      13.8743 -0.000197161  4.83453e-06     -34.8616 
         300      13.9886 -0.000196824  4.79497e-06     -34.8616 
         300      14.1036 -0.000196501  4.74973e-06     -34.8616 
         300      14.2189 -0.000196192  4.69911e-06     -34.8616 
         300      14.3348 -0.000195899   4.6437e-06     -34.8616 
         300       14.451  -0.00019562   4.5847e-06     -34.8616 
         300      14.5678 -0.000195354  4.52349e-06     -34.8616 
         300      14.6851 -0.000195102  4.46191e-06     -34.8616 
         300      14.8028  -0.00019486  4.40197e-06     -34.8616 
         300       14.921 -0.000194626  4.34557e-06     -34.8616 
         300      15.0396 -0.000194399  4.29458e-06     -34.8616 
         300      15.1588 -0.000194174  4.25028e-06     -34.8616 
         300      15.2783  -0.00019395  4.21334e-06     -34.8616 
         300      15.3984 -0.000193723  4.18321e-06     -34.8616 
         300       15.519 -0.000193493  4.15787e-06     -34.8616 
         300        15.64 -0.000193257  4.13331e-06     -34.8616 
         300      15.7615 -0.000193016  4.10286e-06     -34.8616 
         300      15.8834 -0.000192771  4.05683e-06     -34.8616 
         300      16.0058 -0.000192526  3.98146e-06     -34.8616 
         300      16.1286 -0.000192289  3.85863e-06     -34.8616 
         300       16.252 -0.000192039  3.74896e-06     -34.8616 
         300      16.3759 -0.000191766  3.78776e-06     -34.8616 
         300      16.5002  -0.00019156  3.75569e-06     -34.8616 
         300       16.625 -0.000191418  3.65815e-06     -34.8616 
         300      16.7501  -0.00019135   3.5065e-06     -34.8616 
         300      16.8759 -0.000191324  3.47074e-06     -34.8616 
         300       17.002 -0.000191189  3.53267e-06     -34.8616 
         300      17.1287 -0.000191029  3.65911e-06     -34.8616 
         300      17.2557 -0.000190866  3.76854e-06     -34.8616 
         300      17.3834 -0.000190566  3.68976e-06     -34.8616 
         300      17.5115 -0.000190319  3.58186e-06     -34.8616 
         300      17.6399 -0.000190115  3.45972e-06     -34.8616 
         300       17.769 -0.000189945  3.33474e-06     -34.8616 
         300      17.8984 -0.000189801   3.2159e-06     -34.8616 
         300      18.0284 -0.000189677  3.10928e-06     -34.8616 
         300      18.1587 -0.000189567  3.01909e-06     -34.8616 
         300      18.2896 -0.000189466  2.94728e-06     -34.8616 
         300       18.421  -0.00018937  2.89442e-06     -34.8616 
         300      18.5528 -0.000189276  2.85966e-06     -34.8616 
         300      18.6851 -0.000189183  2.84099e-06     -34.8616 
         300      18.8178 -0.000189087  2.83568e-06     -34.8616 
         300      18.9511 -0.000188989   2.8404e-06     -34.8616 
         300      19.0847 -0.000188887   2.8515e-06     -34.8616 
         300      19.2189 -0.000188782  2.86523e-06     -34.8616 
         300      19.3535 -0.000188674  2.87792e-06     -34.8616 
         300      19.4886 -0.000188564  2.88622e-06     -34.8616 
         300      19.6242 -0.000188453  2.88718e-06     -34.8616 
         300      19.7602 -0.000188342  2.87847e-06     -34.8616 
         300      19.8968 -0.000188232  2.85843e-06     -34.8616 
         300      20.0337 -0.000188127  2.82624e-06     -34.8616 
         300      20.1712 -0.000188026  2.78183e-06     -34.8616 
         300      20.3091 -0.000187931  2.72611e-06     -34.8616 
         300      20.4475 -0.000187844   2.6607e-06     -34.8616 
         300      20.5864 -0.000187767  2.58814e-06     -34.8616 
         300      20.7257 -0.000187699  2.51171e-06     -34.8616 
         300      20.8655 -0.000187642  2.43511e-06     -34.8616 
         300      21.0058 -0.000187596  2.36265e-06     -34.8615 
         300      21.1465 -0.000187561  2.29863e-06     -34.8615 
         300      21.2877 -0.000187535  2.24744e-06     -34.8615 
         300      21.4294 -0.000187519  2.21287e-06     -34.8615 
         300      21.5716 -0.000187508  2.19805e-06     -34.8615 
         300      21.7142 -0.000187502  2.20477e-06     -34.8615 
         300      21.8573 -0.000187497  2.23306e-06     -34.8615 
         300      22.0008 -0.000187487  2.28058e-06     -34.8615 
         300      22.1449 -0.000187469  2.34205e-06     -34.8615 
         300      22.2893 -0.000187435  2.40833e-06     -34.8615 
         300      22.4344  -0.00018738  2.46594e-06     -34.8615 
         300      22.5797 -0.000187294  2.49576e-06     -34.8615 
         300      22.7257 -0.000187229   2.3244e-06     -34.8615 
         300      22.8721 -0.000187224  2.28886e-06     -34.8615 
         300      23.0189 -0.000187157  2.54429e-06     -34.8615 
         300      23.1663 -0.000186897  2.79867e-06     -34.8615 
         300       23.314 -0.000186629   2.6333e-06     -34.8615 
         300      23.4623 -0.000186436   2.4848e-06     -34.8615 
         300       23.611 -0.000186339  2.34542e-06     -34.8615 
         300      23.7602 -0.000186363  2.22392e-06     -34.8615 
         300        23.91 -0.000186448  2.22437e-06     -34.8615 
         300        24.06 -0.000186507  2.20231e-06     -34.8615 
         300      24.2107 -0.000186546  2.15999e-06     -34.8615 
         300      24.3617 -0.000186571  2.09991e-06     -34.8615 
         300      24.5133 -0.000186585  2.02455e-06     -34.8615 
         300      24.6653 -0.000186593  1.93665e-06     -34.8615 
         300      24.8178 -0.000186596  1.83871e-06     -34.8615 
         300      24.9708 -0.000186597  1.73341e-06     -34.8615 
         300      25.1242 -0.000186597  1.62336e-06     -34.8615 
         300      25.2781 -0.000186596  1.51077e-06     -34.8615 
         300      25.4324 -0.000186596  1.39807e-06     -34.8615 
         300      25.5873 -0.000186597  1.28711e-06     -34.8615 
         300      25.7426 -0.000186597  1.17986e-06     -34.8615 
         300      25.8984 -0.000186598  1.07772e-06     -34.8615 
         300      26.0546 -0.000186598  9.82119e-07     -34.8615 
         300      26.2114 -0.000186597  8.93898e-07     -34.8614 
         300      26.3686 -0.000186594  8.13823e-07     -34.8614 
         300      26.5262 -0.000186589  7.42334e-07     -34.8614 
         300      26.6844 -0.000186581  6.79398e-07     -34.8614 
         300      26.8429  -0.00018657   6.2491e-07     -34.8614 
         300       27.002 -0.000186557  5.78299e-07     -34.8614 
         300      27.1615 -0.000186539  5.38912e-07     -34.8614 
         300      27.3216 -0.000186519  5.05735e-07     -34.8614 
         300      27.4821 -0.000186496  4.77682e-07     -34.8614 
         300       27.643 -0.000186471  4.53522e-07     -34.8614 
         300      27.8044 -0.000186444  4.31906e-07     -34.8614 
         300      27.9663 -0.000186416  4.11564e-07     -34.8614 
         300      28.1287 -0.000186389  3.91247e-07     -34.8614 
         300      28.2914 -0.000186361  3.69949e-07     -34.8614 
         300      28.4548 -0.000186336  3.46879e-07     -34.8614 
         300      28.6185 -0.000186313  3.21716e-07     -34.8614 
         300      28.7828 -0.000186293  2.94587e-07     -34.8614 
         300      28.9475 -0.000186275   2.6635e-07     -34.8614 
         300      29.1126  -0.00018626  2.38685e-07     -34.8614 
         300      29.2784 -0.000186248  2.14202e-07     -34.8614 
         300      29.4444 -0.000186235   1.9677e-07     -34.8614 
         300       29.611  -0.00018622  1.91575e-07     -34.8614 
         300       29.778 -0.000186199  2.05426e-07     -34.8614 
         300      29.9456 -0.000186167  2.46991e-07     -34.8614 
         300      30.1137 -0.000186118  3.26999e-07     -34.8614 
         300      30.2821 -0.000186042  4.58415e-07     -34.8614 
         300      30.4511 -0.000186039  4.89346e-07     -34.8613 
         300      30.6204 -0.000186062  4.40029e-07     -34.8613 
         300      30.7903  -0.00018607  3.80685e-07     -34.8613 
         300      30.9606 -0.000186068  3.14975e-07     -34.8613 
         300      31.1315 -0.000186062  2.46096e-07     -34.8613 
         300      31.3028 -0.000186055  1.77089e-07     -34.8613 
         300      31.4745 -0.000186049  1.10628e-07     -34.8613 
         300      31.6468 -0.000186047  4.88218e-08     -34.8613 
         300      31.8194  -0.00018605 -6.45307e-09     -34.8613 
         300      31.9926 -0.000186058 -5.39664e-08     -34.8613 
         300      32.1662 -0.000186071 -9.27985e-08     -34.8613 
         300      32.3404 -0.000186087 -1.22644e-07     -34.8613 
         300      32.5149 -0.000186106 -1.43559e-07     -34.8613 
         300        32.69 -0.000186125 -1.56135e-07     -34.8613 
         300      32.8655 -0.000186143 -1.61333e-07     -34.8613 
         300      33.0414 -0.000186157 -1.60522e-07     -34.8613 
         300       33.218 -0.000186166 -1.55395e-07     -34.8613 
         300      33.3948 -0.000186167 -1.47909e-07     -34.8613 
         300      33.5723  -0.00018616 -1.40188e-07     -34.8613 
         300        33.75 -0.000186143 -1.34453e-07     -34.8613 
         300      33.9284 -0.000186116 -1.32879e-07     -34.8613 
         300      34.1073 -0.000186079 -1.37497e-07     -34.8612 
         300      34.2865 -0.000186036 -1.50012e-07     -34.8612 
         300      34.4663 -0.000185988 -1.71691e-07     -34.8612 
         300      34.6465  -0.00018594 -2.03098e-07     -34.8612 
         300      34.8272 -0.000185898 -2.28748e-07     -34.8612 
         300      35.0083 -0.000185875 -2.02916e-07     -34.8612 
         300        35.19 -0.000185871 -1.66311e-07     -34.8612 
         300      35.3721 -0.000185881 -1.24905e-07     -34.8612 
         300      35.5546 -0.000185901 -8.31371e-08     -34.8612 
         300      35.7377 -0.000185928 -4.39725e-08     -34.8612 
         300      35.9211 -0.000185957 -9.31731e-09     -34.8612 
         300      36.1052 -0.000185986  2.00305e-08     -34.8612 
         300      36.2895 -0.000186011  4.39609e-08     -34.8612 
         300      36.4745  -0.00018603  6.30267e-08     -34.8612 
         300      36.6598 -0.000186042  7.80686e-08     -34.8612 
         300      36.8457 -0.000186044  9.01102e-08     -34.8612 
         300      37.0321 -0.000186038  1.00026e-07     -34.8612 
         300      37.2188 -0.000186024  1.08337e-07     -34.8612 
         300      37.4062 -0.000186004  1.14962e-07     -34.8612 
         300      37.5938 -0.000185981  1.18909e-07     -34.8611 
         300      37.7821 -0.000185958  1.18034e-07     -34.8611 
         300      37.9707 -0.000185943  1.08733e-07     -34.8611 
         300      38.1599 -0.000185942  8.56251e-08     -34.8611 
         300      38.3496 -0.000185965  4.12744e-08     -34.8611 
         300      38.5396 -0.000186023 -3.40771e-08     -34.8611 
         300      38.7302 -0.000185915  -2.6643e-08     -34.8611 
         300      38.9211 -0.000185822 -2.28339e-08     -34.8611 
         300      39.1127 -0.000185754 -2.63212e-08     -34.8611 
         300      39.3046 -0.000185709 -3.42608e-08     -34.8611 
         300      39.4971 -0.000185683 -4.43253e-08     -34.8611 
         300      39.6899 -0.000185673 -5.46199e-08     -34.8611 
         300      39.8833 -0.000185675 -6.36969e-08     -34.8611 
         300      40.0772 -0.000185688 -7.04592e-08     -34.8611 
         300      40.2714 -0.000185708 -7.41519e-08     -34.8611 
         300      40.4663 -0.000185734 -7.43236e-08     -34.8611 
         300      40.6615 -0.000185763 -7.07744e-08      -34.861 
         300      40.8573 -0.000185794 -6.35186e-08      -34.861 
         300      41.0534 -0.000185823 -5.27711e-08      -34.861 
         300      41.2501 -0.000185851 -3.88678e-08      -34.861 
         300      41.4473 -0.000185876 -2.22847e-08      -34.861 
         300      41.6448 -0.000185897 -3.59105e-09      -34.861 
         300      41.8429 -0.000185913  1.66356e-08      -34.861 
         300      42.0414 -0.000185923  3.77298e-08      -34.861 
         300      42.2405 -0.000185928  5.90906e-08      -34.861 
         300      42.4399 -0.000185926  8.00738e-08      -34.861 
         300      42.6399 -0.000185919  1.00147e-07      -34.861 
         300      42.8404 -0.000185906  1.18791e-07      -34.861 
         300      43.0412 -0.000185888  1.35571e-07      -34.861 
         300      43.2426 -0.000185866   1.5019e-07      -34.861 
         300      43.4444 -0.000185839  1.62403e-07      -34.861 
         300      43.6467 -0.000185811  1.72123e-07     -34.8609 
         300      43.8494  -0.00018578  1.79348e-07     -34.8609 
         300      44.0527 -0.000185749  1.84224e-07     -34.8609 
         300      44.2563 -0.000185719  1.86992e-07     -34.8609 
         300      44.4606 -0.000185691  1.88024e-07     -34.8609 
         300      44.6653 -0.000185666  1.87785e-07     -34.8609 
         300      44.8704 -0.000185645  1.86836e-07     -34.8609 
         300       45.076  -0.00018563  1.85808e-07     -34.8609 
         300       45.282 -0.000185621  1.85384e-07     -34.8609 
         300      45.4886  -0.00018562  1.86271e-07     -34.8609 
         300      45.6955 -0.000185626  1.89168e-07     -34.8609 
         300       45.903 -0.000185641  1.94736e-07     -34.8609 
         300      46.1111 -0.000185665  2.03547e-07     -34.8609 
         300      46.3194 -0.000185696  2.16031e-07     -34.8608 
         300      46.5283 -0.000185735  2.32466e-07     -34.8608 
         300      46.7376 -0.000185779   2.5284e-07     -34.8608 
         300      46.9475 -0.000185827  2.76896e-07     -34.8608 
         300      47.1577 -0.000185876  3.03929e-07     -34.8608 
         300      47.3685 -0.000185924  3.32862e-07     -34.8608 
         300      47.5798 -0.000185935  2.47056e-07     -34.8608 
         300      47.7914 -0.000185879  8.33944e-08     -34.8608 
         300      48.0037 -0.000185731 -7.18946e-08     -34.8608 