Variables = x, y, u, v, p

Zone, I=800, F=POINT
         100            0  1.09015e-20 -1.36312e-25      -26.064 
         100     0.000234  5.29072e-07  1.39443e-11      -26.064 
         100     0.000939  1.86276e-06  3.06796e-10      -26.064 
         100     0.002113  3.28963e-06  1.62205e-09      -26.064 
         100     0.003759   3.8578e-06  5.17864e-09      -26.064 
         100     0.005872  2.64207e-06  1.26064e-08      -26.064 
         100     0.008457 -9.80869e-07  2.59368e-08      -26.064 
         100      0.01151 -7.13614e-06  4.74699e-08      -26.064 
         100     0.015036 -1.54346e-05  7.97904e-08      -26.064 
         100     0.019031  -2.5081e-05  1.25551e-07      -26.064 
         100     0.023493 -3.51967e-05  1.87437e-07      -26.064 
         100     0.028429 -4.52033e-05  2.68216e-07      -26.064 
         100     0.033831 -5.50653e-05  3.70264e-07      -26.064 
         100     0.039706 -6.54045e-05  4.95965e-07      -26.064 
         100     0.046047 -7.71227e-05  6.47082e-07      -26.064 
         100     0.052863 -9.07646e-05  8.25326e-07      -26.064 
         100      0.06015 -0.000105686  1.03161e-06      -26.064 
         100       0.0679 -0.000119989  1.26616e-06      -26.064 
         100     0.076126 -0.000132756  1.52919e-06      -26.064 
         100     0.084816 -0.000149138  1.81954e-06      -26.064 
         100     0.093982 -0.000163565  2.13627e-06      -26.064 
         100     0.103611 -0.000178382  2.47697e-06      -26.064 
         100     0.113718 -0.000193277  2.83948e-06      -26.064 
         100     0.124286 -0.000207946  3.22005e-06      -26.064 
         100     0.135333 -0.000222204   3.6158e-06      -26.064 
         100      0.14685 -0.000235893  4.02256e-06      -26.064 
         100     0.158827 -0.000248912  4.43586e-06      -26.064 
         100     0.171284 -0.000261223  4.85203e-06      -26.064 
         100     0.184201 -0.000272751  5.26593e-06      -26.064 
         100     0.197599 -0.000283445   5.6737e-06      -26.064 
         100     0.211455 -0.000293191  6.07023e-06      -26.064 
         100     0.225792 -0.000301921  6.45218e-06      -26.064 
         100       0.2406 -0.000309649  6.81603e-06      -26.064 
         100     0.255865 -0.000316517  7.15917e-06      -26.064 
         100     0.271613 -0.000322351  7.47621e-06      -26.064 
         100     0.287818 -0.000327264  7.76488e-06      -26.064 
         100     0.304506 -0.000331307  8.02533e-06      -26.064 
         100      0.32165 -0.000334523  8.25666e-06      -26.064 
         100     0.339278 -0.000336974  8.45878e-06      -26.064 
         100     0.357377  -0.00033872  8.63115e-06      -26.064 
         100      0.37593 -0.000339825  8.77363e-06      -26.064 
         100     0.394968 -0.000340353  8.88697e-06      -26.064 
         100     0.414461 -0.000340367  8.97221e-06      -26.064 
         100      0.43444 -0.000339922  9.03159e-06      -26.064 
         100     0.454872 -0.000339068  9.06805e-06      -26.064 
         100     0.475791 -0.000337843  9.08566e-06      -26.064 
         100     0.497163 -0.000336275  9.08906e-06      -26.064 
         100     0.519021 -0.000334379   9.0832e-06      -26.064 
         100      0.54135 -0.000332159  9.07241e-06      -26.064 
         100     0.564131 -0.000329611  9.05921e-06      -26.064 
         100       0.5874 -0.000326716  9.04239e-06      -26.064 
         100     0.611121 -0.000323456  9.01537e-06      -26.064 
         100      0.63533 -0.000319772  9.00723e-06      -26.064 
         100      0.65999 -0.000315727  9.03111e-06      -26.064 
         100     0.685139 -0.000311233  9.08346e-06      -26.064 
         100     0.710759 -0.000306229  9.16187e-06      -26.064 
         100     0.736828 -0.000300674  9.26497e-06      -26.064 
         100     0.763387 -0.000294535  9.39264e-06      -26.064 
         100     0.790396 -0.000287815  9.54524e-06      -26.064 
         100     0.817896 -0.000280517  9.72413e-06      -26.064 
         100     0.845843 -0.000272683  9.93054e-06      -26.064 
         100     0.874283 -0.000264345  1.01664e-05      -26.064 
         100      0.90317 -0.000255577  1.04326e-05      -26.064 
         100     0.932551 -0.000246436  1.07305e-05      -26.064 
         100     0.962401 -0.000237008  1.10598e-05      -26.064 
         100     0.992697 -0.000227385  1.14191e-05      -26.064 
         100      1.02349 -0.000217636  1.18064e-05      -26.064 
         100      1.05472 -0.000207861  1.22171e-05      -26.064 
         100      1.08645 -0.000198119  1.26462e-05      -26.064 
         100      1.11863 -0.000188493  1.30859e-05      -26.064 
         100       1.1513 -0.000179021  1.35287e-05      -26.064 
         100      1.18444 -0.000169747  1.39648e-05     -26.0639 
         100      1.21802 -0.000160699  1.43849e-05     -26.0639 
         100      1.25211  -0.00015186  1.47814e-05     -26.0639 
         100      1.28663 -0.000143228  1.51483e-05     -26.0639 
         100      1.32165 -0.000134753  1.54852e-05     -26.0639 
         100      1.35712 -0.000126401  1.57975e-05     -26.0639 
         100      1.39308 -0.000118111  1.61023e-05     -26.0639 
         100      1.42951 -0.000109844  1.64299e-05     -26.0639 
         100      1.46638 -0.000101585  1.68299e-05     -26.0639 
         100      1.50375 -9.33393e-05  1.73776e-05     -26.0639 
         100      1.54156 -8.48967e-05  1.76187e-05     -26.0639 
         100      1.57987 -7.63229e-05  1.78336e-05     -26.0639 
         100      1.61863 -6.76509e-05  1.80535e-05     -26.0639 
         100      1.65788 -5.88763e-05  1.82778e-05     -26.0639 
         100      1.69757 -5.00264e-05   1.8505e-05     -26.0639 
         100      1.73776 -4.11035e-05   1.8734e-05     -26.0639 
         100      1.77842 -3.21344e-05  1.89632e-05     -26.0639 
         100      1.81952   -2.315e-05  1.91903e-05     -26.0639 
         100      1.86113  -1.4162e-05  1.94137e-05     -26.0639 
         100      1.90316 -5.21443e-06  1.96308e-05     -26.0639 
         100      1.94571  3.67528e-06  1.98395e-05     -26.0639 
         100      1.98869  1.24584e-05  2.00369e-05     -26.0639 
         100      2.03217   2.1113e-05  2.02208e-05     -26.0639 
         100      2.07612  2.95939e-05  2.03881e-05     -26.0639 
         100      2.12051  3.78558e-05  2.05362e-05     -26.0639 
         100       2.1654  4.58721e-05  2.06623e-05     -26.0639 
         100      2.21073  5.35903e-05  2.07636e-05     -26.0639 
         100      2.25656  6.09834e-05  2.08376e-05     -26.0639 
         100      2.30283  6.80013e-05  2.08817e-05     -26.0639 
         100       2.3496  7.46179e-05  2.08937e-05     -26.0639 
         100      2.39685  8.07931e-05  2.08713e-05     -26.0639 
         100      2.44452  8.64903e-05  2.08127e-05     -26.0639 
         100      2.49271  9.16898e-05  2.07165e-05     -26.0639 
         100      2.54132   9.6359e-05  2.05815e-05     -26.0639 
         100      2.59044  0.000100485  2.04069e-05     -26.0639 
         100         2.64  0.000104047  2.01926e-05     -26.0639 
         100      2.69006  0.000107041  1.99386e-05     -26.0639 
         100      2.74056  0.000109459   1.9646e-05     -26.0639 
         100      2.79156  0.000111308  1.93158e-05     -26.0639 
         100      2.84304  0.000112598  1.89502e-05     -26.0639 
         100      2.89494  0.000113346  1.85522e-05     -26.0638 
         100      2.94735  0.000113578  1.81244e-05     -26.0638 
         100       3.0002  0.000113326  1.76715e-05     -26.0638 
         100      3.05355  0.000112629  1.71974e-05     -26.0638 
         100      3.10733  0.000111536   1.6708e-05     -26.0638 
         100      3.16163  0.000110097  1.62085e-05     -26.0638 
         100      3.21639  0.000108372  1.57057e-05     -26.0638 
         100      3.27158  0.000106426  1.52068e-05     -26.0638 
         100      3.32729  0.000104323  1.47184e-05     -26.0638 
         100      3.38342  0.000102132  1.42489e-05     -26.0638 
         100      3.44007  9.99194e-05  1.38052e-05     -26.0638 
         100      3.49714  9.77522e-05  1.33957e-05     -26.0638 
         100      3.55472  9.56863e-05  1.30273e-05     -26.0638 
         100      3.61273  9.37749e-05  1.27077e-05     -26.0638 
         100      3.67125  9.20521e-05  1.24426e-05     -26.0638 
         100      3.73025  9.05391e-05  1.22376e-05     -26.0638 
         100      3.78967  8.90775e-05   1.2327e-05     -26.0638 
         100      3.84961  8.76702e-05  1.24074e-05     -26.0638 
         100      3.90996  8.63656e-05  1.24432e-05     -26.0638 
         100      3.97084  8.51447e-05   1.2515e-05     -26.0638 
         100      4.03214  8.39964e-05  1.26584e-05     -26.0637 
         100      4.09395  8.29078e-05  1.28767e-05     -26.0637 
         100      4.15624  8.18698e-05  1.31511e-05     -26.0637 
         100      4.21895  8.08725e-05  1.34513e-05     -26.0637 
         100      4.28217  7.99028e-05  1.37446e-05     -26.0637 
         100      4.34582  7.89487e-05  1.40015e-05     -26.0637 
         100      4.40998   7.8029e-05  1.42459e-05     -26.0637 
         100      4.47457  7.71321e-05  1.44903e-05     -26.0637 
         100      4.53968  7.62274e-05  1.47243e-05     -26.0637 
         100      4.60525   7.5315e-05  1.49655e-05     -26.0637 
         100      4.67125  7.43964e-05   1.5226e-05     -26.0637 
         100      4.73777  7.34726e-05  1.55022e-05     -26.0637 
         100       4.8047  7.25474e-05  1.57611e-05     -26.0637 
         100      4.87216  7.16208e-05   1.5924e-05     -26.0637 
         100      4.94003  7.07009e-05   1.6126e-05     -26.0637 
         100      5.00843   6.9775e-05  1.63421e-05     -26.0636 
         100      5.07724  6.88491e-05  1.64635e-05     -26.0636 
         100      5.14658  6.79275e-05   1.6585e-05     -26.0636 
         100      5.21639  6.70095e-05  1.67363e-05     -26.0636 
         100      5.28661  6.60932e-05  1.69049e-05     -26.0636 
         100      5.35736  6.51791e-05  1.70576e-05     -26.0636 
         100      5.42852  6.42785e-05  1.71565e-05     -26.0636 
         100      5.50021  6.33176e-05  1.72717e-05     -26.0636 
         100      5.57231  6.23728e-05  1.73654e-05     -26.0636 
         100      5.64493  6.14593e-05  1.74301e-05     -26.0636 
         100      5.71803  6.05736e-05  1.74794e-05     -26.0636 
         100      5.79154   5.9708e-05  1.75285e-05     -26.0636 
         100      5.86558  5.88493e-05  1.75877e-05     -26.0635 
         100      5.94003  5.79843e-05  1.76528e-05     -26.0635 
         100      6.01501   5.7095e-05  1.76935e-05     -26.0635 
         100       6.0904  5.62257e-05   1.7697e-05     -26.0635 
         100      6.16632  5.54363e-05  1.77659e-05     -26.0635 
         100      6.24271  5.46033e-05  1.78058e-05     -26.0635 
         100       6.3195  5.37646e-05  1.78286e-05     -26.0635 
         100      6.39683    5.294e-05  1.78408e-05     -26.0635 
         100      6.47457  5.21395e-05  1.78459e-05     -26.0635 
         100      6.55284  5.13622e-05  1.78467e-05     -26.0635 
         100      6.63152  5.06044e-05  1.78458e-05     -26.0634 
         100      6.71073  4.98578e-05  1.78468e-05     -26.0634 
         100      6.79034  4.91168e-05  1.78536e-05     -26.0634 
         100      6.87049  4.83763e-05  1.78693e-05     -26.0634 
         100      6.95111  4.76369e-05  1.78943e-05     -26.0634 
         100      7.03214   4.6904e-05  1.79224e-05     -26.0634 
         100       7.1137  4.61864e-05  1.79369e-05     -26.0634 
         100      7.19566  4.54993e-05  1.79044e-05     -26.0634 
         100      7.27816  4.47743e-05  1.78982e-05     -26.0634 
         100      7.36106  4.40665e-05  1.78572e-05     -26.0633 
         100      7.44451  4.33982e-05  1.78068e-05     -26.0633 
         100      7.52842  4.27643e-05  1.78398e-05     -26.0633 
         100      7.61273  4.21116e-05    1.797e-05     -26.0633 
         100      7.69758  4.13751e-05  1.78225e-05     -26.0633 
         100      7.78283  4.06711e-05  1.77747e-05     -26.0633 
         100      7.86862   3.9998e-05  1.77852e-05     -26.0633 
         100      7.95481  3.93551e-05   1.7823e-05     -26.0633 
         100      8.04155  3.87386e-05  1.78655e-05     -26.0632 
         100      8.12868  3.81462e-05  1.78975e-05     -26.0632 
         100      8.21635  3.75732e-05  1.79105e-05     -26.0632 
         100      8.30449  3.70164e-05  1.79006e-05     -26.0632 
         100      8.39303  3.64726e-05  1.78683e-05     -26.0632 
         100      8.48211  3.59377e-05   1.7817e-05     -26.0632 
         100      8.57159  3.54097e-05  1.77519e-05     -26.0631 
         100      8.66161   3.4886e-05  1.76791e-05     -26.0631 
         100      8.75203  3.43659e-05  1.76049e-05     -26.0631 
         100      8.84299  3.38485e-05  1.75347e-05     -26.0631 
         100      8.93443  3.33344e-05  1.74727e-05     -26.0631 
         100      9.02626  3.28255e-05   1.7421e-05     -26.0631 
         100      9.11863   3.2323e-05  1.73796e-05     -26.0631 
         100      9.21139    3.183e-05  1.73459e-05      -26.063 
         100      9.30471  3.13486e-05  1.73145e-05      -26.063 
         100      9.39841  3.08823e-05  1.72782e-05      -26.063 
         100      9.49267  3.04325e-05  1.72272e-05      -26.063 
         100      9.58739  3.00007e-05   1.7151e-05      -26.063 
         100      9.68251  2.95868e-05  1.70386e-05     -26.0629 
         100      9.77817  2.90776e-05  1.69691e-05     -26.0629 
         100      9.87422  2.85776e-05  1.69011e-05     -26.0629 
         100      9.97083   2.8131e-05  1.68225e-05     -26.0629 
         100      10.0678  2.77238e-05  1.67504e-05     -26.0629 
         100      10.1654  2.73239e-05  1.66885e-05     -26.0629 
         100      10.2633  2.69356e-05  1.65827e-05     -26.0628 
         100      10.3618  2.65642e-05  1.64786e-05     -26.0628 
         100      10.4607  2.62057e-05  1.63684e-05     -26.0628 
         100      10.5601   2.5857e-05   1.6247e-05     -26.0628 
         100        10.66  2.55143e-05  1.61105e-05     -26.0628 
         100      10.7603  2.51749e-05  1.59576e-05     -26.0627 
         100      10.8611  2.48357e-05  1.57877e-05     -26.0627 
         100      10.9623  2.44944e-05  1.56018e-05     -26.0627 
         100      11.0641  2.41478e-05  1.54015e-05     -26.0627 
         100      11.1663  2.37937e-05  1.51897e-05     -26.0626 
         100       11.269  2.34733e-05  1.50999e-05     -26.0626 
         100      11.3721  2.31715e-05  1.49986e-05     -26.0626 
         100      11.4757  2.28857e-05  1.48884e-05     -26.0626 
         100      11.5798  2.26119e-05  1.47717e-05     -26.0625 
         100      11.6844  2.23473e-05  1.46511e-05     -26.0625 
         100      11.7894  2.20887e-05  1.45285e-05     -26.0625 
         100       11.895   2.1834e-05   1.4406e-05     -26.0625 
         100      12.0009  2.15822e-05  1.42854e-05     -26.0625 
         100      12.1073  2.13327e-05  1.41676e-05     -26.0624 
         100      12.2142  2.10864e-05  1.40536e-05     -26.0624 
         100      12.3216  2.08445e-05  1.39431e-05     -26.0624 
         100      12.4294  2.06095e-05  1.38354e-05     -26.0624 
         100      12.5378  2.03834e-05   1.3729e-05     -26.0623 
         100      12.6465  2.01686e-05  1.36211e-05     -26.0623 
         100      12.7558   1.9966e-05   1.3508e-05     -26.0623 
         100      12.8656  1.97751e-05  1.33846e-05     -26.0622 
         100      12.9757  1.95928e-05  1.32447e-05     -26.0622 
         100      13.0864  1.94115e-05    1.308e-05     -26.0622 
         100      13.1975  1.92191e-05  1.28811e-05     -26.0622 
         100      13.3092  1.90212e-05  1.27361e-05     -26.0621 
         100      13.4212  1.88158e-05  1.26859e-05     -26.0621 
         100      13.5338  1.85905e-05   1.2607e-05     -26.0621 
         100      13.6468   1.8363e-05   1.2501e-05      -26.062 
         100      13.7603  1.81455e-05  1.23739e-05      -26.062 
         100      13.8743   1.7945e-05  1.22337e-05      -26.062 
         100      13.9886   1.7766e-05    1.209e-05     -26.0619 
         100      14.1036    1.761e-05  1.19521e-05     -26.0619 
         100      14.2189  1.74776e-05   1.1828e-05     -26.0619 
         100      14.3348  1.73683e-05  1.17233e-05     -26.0619 
         100       14.451  1.72019e-05  1.16641e-05     -26.0618 
         100      14.5678  1.70172e-05  1.16196e-05     -26.0618 
         100      14.6851  1.68539e-05  1.15746e-05     -26.0618 
         100      14.8028  1.67145e-05  1.15282e-05     -26.0617 
         100       14.921  1.66003e-05  1.14793e-05     -26.0617 
         100      15.0396  1.65117e-05   1.1427e-05     -26.0617 
         100      15.1588  1.64465e-05  1.13706e-05     -26.0616 
         100      15.2783  1.64006e-05  1.13095e-05     -26.0616 
         100      15.3984  1.63675e-05  1.12435e-05     -26.0615 
         100       15.519  1.63389e-05  1.11726e-05     -26.0615 
         100        15.64  1.63052e-05  1.10972e-05     -26.0615 
         100      15.7615  1.62566e-05  1.10175e-05     -26.0614 
         100      15.8834  1.61847e-05  1.09342e-05     -26.0614 
         100      16.0058  1.60841e-05  1.08473e-05     -26.0614 
         100      16.1286  1.59551e-05  1.07569e-05     -26.0613 
         100       16.252  1.58058e-05   1.0662e-05     -26.0613 
         100      16.3759  1.56564e-05   1.0561e-05     -26.0612 
         100      16.5002  1.55423e-05  1.04507e-05     -26.0612 
         100       16.625  1.55185e-05  1.03258e-05     -26.0612 
         100      16.7501  1.54839e-05  1.02775e-05     -26.0611 
         100      16.8759  1.53085e-05  1.03284e-05     -26.0611 
         100       17.002  1.52121e-05   1.0325e-05      -26.061 
         100      17.1287  1.51617e-05  1.02836e-05      -26.061 
         100      17.2557  1.51332e-05  1.02179e-05      -26.061 
         100      17.3834  1.51092e-05  1.01384e-05     -26.0609 
         100      17.5115   1.5079e-05   1.0053e-05     -26.0609 
         100      17.6399  1.50365e-05  9.96778e-06     -26.0608 
         100       17.769  1.49802e-05  9.88624e-06     -26.0608 
         100      17.8984  1.49115e-05  9.81065e-06     -26.0607 
         100      18.0284   1.4834e-05  9.74153e-06     -26.0607 
         100      18.1587  1.47529e-05  9.67856e-06     -26.0607 
         100      18.2896  1.46736e-05  9.62032e-06     -26.0606 
         100       18.421  1.46018e-05    9.565e-06     -26.0606 
         100      18.5528  1.45423e-05   9.5105e-06     -26.0605 
         100      18.6851  1.44987e-05  9.45461e-06     -26.0605 
         100      18.8178  1.44729e-05  9.39555e-06     -26.0604 
         100      18.9511  1.44649e-05   9.3319e-06     -26.0604 
         100      19.0847  1.44724e-05  9.26326e-06     -26.0603 
         100      19.2189  1.44911e-05  9.19004e-06     -26.0603 
         100      19.3535  1.45143e-05  9.11419e-06     -26.0602 
         100      19.4886  1.45338e-05  9.03896e-06     -26.0602 
         100      19.6242  1.45395e-05  8.96951e-06     -26.0601 
         100      19.7602  1.45206e-05  8.91295e-06     -26.0601 
         100      19.8968  1.45156e-05   8.8322e-06       -26.06 
         100      20.0337  1.45033e-05  8.73196e-06       -26.06 
         100      20.1712  1.44316e-05  8.68844e-06     -26.0599 
         100      20.3091   1.4334e-05  8.70031e-06     -26.0599 
         100      20.4475  1.42429e-05  8.74812e-06     -26.0598 
         100      20.5864   1.4189e-05  8.79162e-06     -26.0598 
         100      20.7257   1.4198e-05  8.76679e-06     -26.0597 
         100      20.8655  1.42891e-05  8.58276e-06     -26.0597 
         100      21.0058  1.43956e-05  8.58487e-06     -26.0596 
         100      21.1465  1.44179e-05  8.62629e-06     -26.0595 
         100      21.2877  1.43894e-05  8.59518e-06     -26.0595 
         100      21.4294  1.43342e-05  8.51764e-06     -26.0594 
         100      21.5716  1.42685e-05  8.41406e-06     -26.0594 
         100      21.7142   1.4202e-05  8.29969e-06     -26.0593 
         100      21.8573  1.41388e-05  8.18465e-06     -26.0593 
         100      22.0008  1.40782e-05  8.07513e-06     -26.0592 
         100      22.1449  1.40159e-05  7.97314e-06     -26.0591 
         100      22.2893  1.39451e-05  7.87775e-06     -26.0591 
         100      22.4344  1.38572e-05  7.78496e-06      -26.059 
         100      22.5797  1.37435e-05  7.68888e-06     -26.0589 
         100      22.7257  1.35956e-05  7.58166e-06     -26.0589 
         100      22.8721  1.36653e-05  7.58346e-06     -26.0588 
         100      23.0189  1.37104e-05  7.60491e-06     -26.0588 
         100      23.1663  1.37197e-05   7.6308e-06     -26.0587 
         100       23.314  1.37018e-05  7.65525e-06     -26.0586 
         100      23.4623  1.36654e-05  7.67395e-06     -26.0586 
         100       23.611  1.36194e-05  7.68399e-06     -26.0585 
         100      23.7602  1.35719e-05  7.68387e-06     -26.0584 
         100        23.91  1.35303e-05  7.67329e-06     -26.0584 
         100        24.06  1.35011e-05  7.65295e-06     -26.0583 
         100      24.2107  1.34895e-05  7.62414e-06     -26.0582 
         100      24.3617  1.34992e-05  7.58848e-06     -26.0582 
         100      24.5133  1.35327e-05   7.5472e-06     -26.0581 
         100      24.6653  1.35912e-05  7.50078e-06      -26.058 
         100      24.8178  1.36748e-05  7.44795e-06      -26.058 
         100      24.9708  1.37826e-05  7.38517e-06     -26.0579 
         100      25.1242  1.39132e-05  7.30552e-06     -26.0578 
         100      25.2781  1.40654e-05   7.1975e-06     -26.0577 
         100      25.4324  1.42379e-05  7.04431e-06     -26.0577 
         100      25.5873  1.44314e-05  6.82176e-06     -26.0576 
         100      25.7426  1.44973e-05   6.6664e-06     -26.0575 
         100      25.8984  1.41768e-05  6.91851e-06     -26.0574 
         100      26.0546  1.39557e-05  7.07929e-06     -26.0574 
         100      26.2114  1.38144e-05  7.17137e-06     -26.0573 
         100      26.3686  1.37364e-05  7.21296e-06     -26.0572 
         100      26.5262  1.37068e-05  7.21886e-06     -26.0571 
         100      26.6844  1.37127e-05  7.20068e-06     -26.0571 
         100      26.8429  1.37431e-05  7.16732e-06      -26.057 
         100       27.002  1.37883e-05  7.12526e-06     -26.0569 
         100      27.1615  1.38399e-05  7.07917e-06     -26.0568 
         100      27.3216   1.3891e-05  7.03201e-06     -26.0567 
         100      27.4821  1.39353e-05  6.98568e-06     -26.0567 
         100       27.643  1.39676e-05  6.94123e-06     -26.0566 
         100      27.8044  1.39834e-05  6.89913e-06     -26.0565 
         100      27.9663  1.39788e-05  6.85976e-06     -26.0564 
         100      28.1287  1.39502e-05   6.8235e-06     -26.0563 
         100      28.2914  1.38947e-05  6.79124e-06     -26.0562 
         100      28.4548  1.38095e-05  6.76434e-06     -26.0562 
         100      28.6185  1.36922e-05  6.74511e-06     -26.0561 
         100      28.7828  1.35402e-05   6.7368e-06      -26.056 
         100      28.9475   1.3614e-05  6.66417e-06     -26.0559 
         100      29.1126  1.37437e-05  6.59093e-06     -26.0558 
         100      29.2784  1.38639e-05  6.53717e-06     -26.0557 
         100      29.4444   1.3966e-05  6.50375e-06     -26.0556 
         100       29.611  1.40436e-05  6.48991e-06     -26.0556 
         100       29.778  1.40922e-05  6.49372e-06     -26.0555 
         100      29.9456  1.41106e-05  6.51228e-06     -26.0554 
         100      30.1137     1.41e-05  6.54198e-06     -26.0553 
         100      30.2821  1.40654e-05  6.57883e-06     -26.0552 
         100      30.4511  1.40151e-05  6.61893e-06     -26.0551 
         100      30.6204  1.39615e-05   6.6586e-06      -26.055 
         100      30.7903  1.39214e-05  6.69511e-06     -26.0549 
         100      30.9606  1.39161e-05   6.7268e-06     -26.0548 
         100      31.1315  1.39721e-05  6.75386e-06     -26.0547 
         100      31.3028  1.41213e-05  6.77857e-06     -26.0546 
         100      31.4745  1.44011e-05  6.80604e-06     -26.0545 
         100      31.6468  1.42333e-05  6.66245e-06     -26.0544 
         100      31.8194  1.38445e-05  6.43019e-06     -26.0543 
         100      31.9926  1.36379e-05  6.23314e-06     -26.0542 
         100      32.1662  1.35861e-05  6.08334e-06     -26.0541 
         100      32.3404  1.36416e-05  6.00779e-06      -26.054 
         100      32.5149  1.37338e-05  6.04929e-06     -26.0539 
         100        32.69  1.37649e-05  6.26591e-06     -26.0538 
         100      32.8655  1.37634e-05  6.21647e-06     -26.0537 
         100      33.0414  1.37926e-05  6.01074e-06     -26.0536 
         100       33.218  1.38062e-05  5.90358e-06     -26.0535 
         100      33.3948  1.38083e-05  5.86792e-06     -26.0534 
         100      33.5723  1.38025e-05  5.88111e-06     -26.0533 
         100        33.75  1.37916e-05  5.92477e-06     -26.0532 
         100      33.9284  1.37783e-05  5.98437e-06     -26.0531 
         100      34.1073  1.37644e-05  6.04868e-06      -26.053 
         100      34.2865  1.37514e-05  6.10939e-06     -26.0529 
         100      34.4663  1.37406e-05  6.16093e-06     -26.0528 
         100      34.6465  1.37327e-05  6.19973e-06     -26.0526 
         100      34.8272  1.37283e-05  6.22418e-06     -26.0525 
         100      35.0083  1.37277e-05  6.23406e-06     -26.0524 
         100        35.19   1.3731e-05  6.23033e-06     -26.0523 
         100      35.3721   1.3738e-05  6.21479e-06     -26.0522 
         100      35.5546  1.37485e-05   6.1898e-06     -26.0521 
         100      35.7377  1.37623e-05  6.15798e-06      -26.052 
         100      35.9211  1.37788e-05  6.12208e-06     -26.0518 
         100      36.1052  1.37977e-05  6.08459e-06     -26.0517 
         100      36.2895  1.38185e-05  6.04779e-06     -26.0516 
         100      36.4745  1.38407e-05  6.01336e-06     -26.0515 
         100      36.6598  1.38638e-05  5.98252e-06     -26.0514 
         100      36.8457  1.38874e-05   5.9557e-06     -26.0513 
         100      37.0321   1.3911e-05  5.93268e-06     -26.0511 
         100      37.2188  1.39342e-05  5.91252e-06      -26.051 
         100      37.4062  1.39566e-05  5.89356e-06     -26.0509 
         100      37.5938  1.39779e-05  5.87359e-06     -26.0508 
         100      37.7821  1.39976e-05  5.84986e-06     -26.0506 
         100      37.9707  1.40154e-05   5.8194e-06     -26.0505 
         100      38.1599  1.40308e-05  5.77908e-06     -26.0504 
         100      38.3496  1.40433e-05  5.72602e-06     -26.0503 
         100      38.5396  1.40522e-05  5.65792e-06     -26.0501 
         100      38.7302  1.40567e-05  5.57324e-06       -26.05 
         100      38.9211  1.40558e-05  5.47206e-06     -26.0499 
         100      39.1127  1.40481e-05  5.35604e-06     -26.0498 
         100      39.3046   1.4032e-05  5.22964e-06     -26.0496 
         100      39.4971  1.40054e-05  5.10006e-06     -26.0495 
         100      39.6899  1.39657e-05  4.97872e-06     -26.0494 
         100      39.8833  1.39096e-05  4.88127e-06     -26.0492 
         100      40.0772  1.38334e-05  4.82914e-06     -26.0491 
         100      40.2714  1.37322e-05  4.85008e-06      -26.049 
         100      40.4663  1.36003e-05  4.97935e-06     -26.0488 
         100      40.6615   1.3079e-05  4.50445e-06     -26.0487 
         100      40.8573  1.29748e-05   4.2814e-06     -26.0486 
         100      41.0534  1.29329e-05  4.11967e-06     -26.0484 
         100      41.2501  1.29443e-05  4.01816e-06     -26.0483 
         100      41.4473  1.30752e-05  3.95443e-06     -26.0482 
         100      41.6448  1.32157e-05  3.90686e-06      -26.048 
         100      41.8429  1.33451e-05  3.86929e-06     -26.0479 
         100      42.0414  1.34605e-05  3.83604e-06     -26.0477 
         100      42.2405  1.35602e-05  3.80289e-06     -26.0476 
         100      42.4399  1.36431e-05    3.767e-06     -26.0474 
         100      42.6399   1.3709e-05  3.72658e-06     -26.0473 
         100      42.8404  1.37582e-05  3.68088e-06     -26.0472 
         100      43.0412  1.37917e-05  3.62999e-06      -26.047 
         100      43.2426  1.38109e-05  3.57445e-06     -26.0469 
         100      43.4444  1.38175e-05  3.51552e-06     -26.0467 
         100      43.6467  1.38134e-05  3.45455e-06     -26.0466 
         100      43.8494  1.38008e-05  3.39334e-06     -26.0464 
         100      44.0527  1.37821e-05  3.33355e-06     -26.0463 
         100      44.2563  1.37596e-05  3.27702e-06     -26.0461 
         100      44.4606  1.37355e-05  3.22528e-06      -26.046 
         100      44.6653  1.37121e-05  3.17978e-06     -26.0458 
         100      44.8704  1.36912e-05  3.14169e-06     -26.0457 
         100       45.076  1.36747e-05  3.11176e-06     -26.0455 
         100       45.282   1.3664e-05  3.09046e-06     -26.0454 
         100      45.4886  1.36603e-05  3.07777e-06     -26.0452 
         100      45.6955  1.36641e-05  3.07335e-06     -26.0451 
         100       45.903  1.36758e-05   3.0764e-06     -26.0449 
         100      46.1111  1.36952e-05  3.08577e-06     -26.0448 
         100      46.3194  1.37216e-05  3.09999e-06     -26.0446 
         100      46.5283  1.37538e-05  3.11735e-06     -26.0444 
         100      46.7376  1.37899e-05  3.13593e-06     -26.0443 
         100      46.9475  1.38277e-05  3.15381e-06     -26.0441 
         100      47.1577  1.38644e-05   3.1691e-06      -26.044 
         100      47.3685  1.38965e-05  3.18019e-06     -26.0438 
         100      47.5798  1.39202e-05  3.18588e-06     -26.0436 
         100      47.7914   1.3931e-05  3.18557e-06     -26.0435 
         100      48.0037   1.3924e-05  3.17958e-06     -26.0433 