Variables = x, y, u, v, p

Zone, I=800, F=POINT
         450            0            0            0      8.96679 
         450     0.000234 -8.08247e-07  3.06001e-11      8.96679 
         450     0.000939 -3.09358e-06  4.94751e-10      8.96679 
         450     0.002113 -6.43574e-06  2.50185e-09      8.96679 
         450     0.003759 -1.02635e-05  7.89426e-09      8.96679 
         450     0.005872 -1.39635e-05  1.91842e-08      8.96679 
         450     0.008457 -1.70699e-05  3.95866e-08      8.96679 
         450      0.01151 -1.93545e-05  7.28731e-08      8.96679 
         450     0.015036 -2.09156e-05  1.23462e-07      8.96679 
         450     0.019031 -2.21481e-05  1.96155e-07      8.96679 
         450     0.023493 -2.36511e-05  2.96147e-07      8.96679 
         450     0.028429 -2.60627e-05  4.29184e-07      8.96679 
         450     0.033831 -2.98634e-05  6.00865e-07      8.96679 
         450     0.039706 -3.52457e-05   8.1735e-07      8.96679 
         450     0.046047 -4.20603e-05  1.08435e-06      8.96679 
         450     0.052863 -4.99732e-05  1.40814e-06      8.96679 
         450      0.06015 -5.87254e-05  1.79429e-06      8.96679 
         450       0.0679   -6.848e-05  2.24773e-06      8.96679 
         450     0.076126 -7.99452e-05  2.77423e-06      8.96679 
         450     0.084816  -9.3339e-05  3.37751e-06      8.96679 
         450     0.093982 -0.000107188  4.06234e-06      8.96679 
         450     0.103611 -0.000122508    4.831e-06      8.96679 
         450     0.113718 -0.000139127  5.68719e-06      8.96679 
         450     0.124286  -0.00015683  6.63119e-06      8.96679 
         450     0.135333 -0.000175474  7.66554e-06      8.96679 
         450      0.14685 -0.000194886  8.78953e-06      8.96679 
         450     0.158827 -0.000214902  1.00014e-05      8.96679 
         450     0.171284 -0.000235405  1.13016e-05      8.96679 
         450     0.184201 -0.000256198  1.26858e-05      8.96679 
         450     0.197599 -0.000277129  1.41531e-05      8.96679 
         450     0.211455 -0.000297953  1.56974e-05      8.96679 
         450     0.225792 -0.000318494   1.7317e-05      8.96679 
         450       0.2406 -0.000338585  1.90063e-05      8.96679 
         450     0.255865 -0.000358131  2.07586e-05      8.96679 
         450     0.271613 -0.000376896  2.25716e-05      8.96679 
         450     0.287818 -0.000394771   2.4437e-05      8.96679 
         450     0.304506 -0.000411669  2.63526e-05      8.96679 
         450      0.32165 -0.000427467    2.831e-05      8.96679 
         450     0.339278 -0.000442111  3.03076e-05      8.96679 
         450     0.357377 -0.000455528  3.23391e-05      8.96679 
         450      0.37593 -0.000467667  3.43983e-05      8.96679 
         450     0.394968 -0.000478527  3.64847e-05      8.96679 
         450     0.414461 -0.000488084  3.85917e-05      8.96679 
         450      0.43444 -0.000496365    4.072e-05      8.96679 
         450     0.454872 -0.000503376  4.28638e-05      8.96679 
         450     0.475791  -0.00050916  4.50252e-05      8.96679 
         450     0.497163 -0.000513746  4.71999e-05      8.96679 
         450     0.519021 -0.000517181  4.93908e-05      8.96679 
         450      0.54135 -0.000519503  5.15966e-05      8.96679 
         450     0.564131 -0.000520753  5.38159e-05      8.96679 
         450       0.5874 -0.000520979  5.60531e-05      8.96679 
         450     0.611121 -0.000520222  5.83057e-05      8.96679 
         450      0.63533 -0.000518487  6.05795e-05      8.96679 
         450      0.65999 -0.000515893  6.28731e-05      8.96679 
         450     0.685139 -0.000512438  6.51919e-05      8.96679 
         450     0.710759 -0.000508127  6.75363e-05      8.96679 
         450     0.736828 -0.000502978  6.99059e-05      8.96679 
         450     0.763387 -0.000496998   7.2306e-05      8.96679 
         450     0.790396 -0.000490219  7.47341e-05      8.96679 
         450     0.817896 -0.000482659  7.71949e-05      8.96679 
         450     0.845843 -0.000474366  7.96848e-05      8.96679 
         450     0.874283 -0.000465368  8.22079e-05      8.96679 
         450      0.90317 -0.000455727  8.47594e-05      8.96679 
         450     0.932551 -0.000445484  8.73424e-05      8.96679 
         450     0.962401 -0.000434709  8.99528e-05      8.96679 
         450     0.992697 -0.000423479  9.25858e-05      8.96679 
         450      1.02349 -0.000411851  9.52424e-05      8.96679 
         450      1.05472 -0.000399924  9.79143e-05      8.96679 
         450      1.08645 -0.000387762  0.000100601      8.96679 
         450      1.11863 -0.000375474  0.000103293      8.96679 
         450       1.1513  -0.00036313  0.000105988      8.96679 
         450      1.18444  -0.00035083  0.000108678      8.96679 
         450      1.21802 -0.000338671  0.000111355      8.96679 
         450      1.25211 -0.000326718  0.000114015      8.96679 
         450      1.28663 -0.000315065  0.000116648      8.96679 
         450      1.32165 -0.000303755  0.000119252      8.96679 
         450      1.35712 -0.000292854   0.00012182      8.96679 
         450      1.39308 -0.000282368  0.000124351      8.96679 
         450      1.42951 -0.000272301  0.000126845      8.96679 
         450      1.46638 -0.000262619    0.0001293      8.96679 
         450      1.50375 -0.000253223  0.000131727      8.96679 
         450      1.54156 -0.000244302  0.000134013      8.96679 
         450      1.57987 -0.000235552  0.000136265      8.96679 
         450      1.61863 -0.000226927  0.000138479      8.96679 
         450      1.65788 -0.000218378  0.000140654      8.96679 
         450      1.69757 -0.000209889  0.000142777      8.96679 
         450      1.73776 -0.000201418  0.000144847      8.96679 
         450      1.77842 -0.000192949  0.000146856      8.96679 
         450      1.81952 -0.000184469  0.000148798      8.96679 
         450      1.86113 -0.000175946  0.000150671      8.96679 
         450      1.90316 -0.000167383   0.00015247      8.96679 
         450      1.94571 -0.000158757  0.000154193      8.96679 
         450      1.98869 -0.000150076  0.000155835      8.96679 
         450      2.03217 -0.000141326  0.000157397      8.96679 
         450      2.07612 -0.000132516  0.000158876      8.96679 
         450      2.12051 -0.000123658  0.000160268       8.9668 
         450       2.1654 -0.000114746  0.000161576       8.9668 
         450      2.21073 -0.000105805  0.000162796       8.9668 
         450      2.25656 -9.68361e-05   0.00016393       8.9668 
         450      2.30283 -8.78683e-05  0.000164975       8.9668 
         450       2.3496 -7.89058e-05  0.000165933       8.9668 
         450      2.39685 -6.99748e-05  0.000166802       8.9668 
         450      2.44452  -6.1103e-05  0.000167582       8.9668 
         450      2.49271 -5.22974e-05  0.000168272       8.9668 
         450      2.54132 -4.35933e-05  0.000168872       8.9668 
         450      2.59044 -3.49982e-05  0.000169382       8.9668 
         450         2.64 -2.65464e-05  0.000169798       8.9668 
         450      2.69006 -1.82447e-05  0.000170122       8.9668 
         450      2.74056 -1.01246e-05   0.00017035      8.96681 
         450      2.79156  -2.1905e-06  0.000170481      8.96681 
         450      2.84304   5.5359e-06  0.000170513      8.96681 
         450      2.89494  1.30355e-05  0.000170445      8.96681 
         450      2.94735  2.03091e-05  0.000170274      8.96681 
         450       3.0002  2.73359e-05  0.000169998      8.96681 
         450      3.05355    3.412e-05  0.000169617      8.96681 
         450      3.10733  4.06452e-05  0.000169131      8.96681 
         450      3.16163  4.69177e-05  0.000168539      8.96681 
         450      3.21639  5.29285e-05  0.000167843      8.96682 
         450      3.27158  5.86693e-05  0.000167049      8.96682 
         450      3.32729  6.41442e-05  0.000166162      8.96682 
         450      3.38342  6.93366e-05  0.000165192      8.96682 
         450      3.44007  7.42424e-05  0.000164151      8.96682 
         450      3.49714  7.88351e-05  0.000163059      8.96682 
         450      3.55472  8.30945e-05  0.000161938      8.96682 
         450      3.61273  8.69748e-05  0.000160819      8.96682 
         450      3.67125  9.04278e-05  0.000159741      8.96683 
         450      3.73025  9.33772e-05   0.00015875      8.96683 
         450      3.78967  9.61528e-05  0.000157291      8.96683 
         450      3.84961  9.86896e-05   0.00015557      8.96683 
         450      3.90996  0.000100831   0.00015387      8.96683 
         450      3.97084  0.000102604  0.000152181      8.96683 
         450      4.03214  0.000104032  0.000150502      8.96683 
         450      4.09395  0.000105139  0.000148843      8.96684 
         450      4.15624  0.000105937  0.000147222      8.96684 
         450      4.21895  0.000106454  0.000145576      8.96684 
         450      4.28217  0.000106716  0.000143905      8.96684 
         450      4.34582  0.000106746  0.000142218      8.96684 
         450      4.40998  0.000106569  0.000140516      8.96684 
         450      4.47457  0.000106204  0.000138806      8.96684 
         450      4.53968  0.000105672  0.000137089      8.96684 
         450      4.60525  0.000104989  0.000135368      8.96685 
         450      4.67125  0.000104174  0.000133647      8.96685 
         450      4.73777  0.000103239  0.000131927      8.96685 
         450       4.8047    0.0001022  0.000130211      8.96685 
         450      4.87216  0.000101067    0.0001285      8.96685 
         450      4.94003  9.98536e-05  0.000126795      8.96685 
         450      5.00843  9.85679e-05  0.000125098      8.96685 
         450      5.07724  9.72212e-05   0.00012341      8.96685 
         450      5.14658  9.58198e-05   0.00012173      8.96686 
         450      5.21639  9.43723e-05  0.000120059      8.96686 
         450      5.28661   9.2887e-05  0.000118401      8.96686 
         450      5.35736   9.1368e-05  0.000116752      8.96686 
         450      5.42852  8.98238e-05  0.000115116      8.96686 
         450      5.50021  8.82574e-05  0.000113489      8.96686 
         450      5.57231  8.66766e-05  0.000111875      8.96686 
         450      5.64493  8.50836e-05  0.000110272      8.96686 
         450      5.71803  8.34845e-05  0.000108679      8.96687 
         450      5.79154  8.18848e-05  0.000107099      8.96687 
         450      5.86558  8.02857e-05  0.000105529      8.96687 
         450      5.94003  7.86936e-05   0.00010397      8.96687 
         450      6.01501  7.71089e-05  0.000102419      8.96687 
         450       6.0904  7.55367e-05  0.000100878      8.96687 
         450      6.16632  7.39761e-05  9.93421e-05      8.96687 
         450      6.24271  7.24291e-05   9.7811e-05      8.96687 
         450       6.3195  7.08965e-05  9.62831e-05      8.96688 
         450      6.39683  6.93737e-05  9.47526e-05      8.96688 
         450      6.47457  6.78591e-05  9.32176e-05      8.96688 
         450      6.55284   6.6344e-05  9.16702e-05      8.96688 
         450      6.63152  6.48214e-05  9.01059e-05      8.96688 
         450      6.71073  6.32761e-05   8.8514e-05      8.96688 
         450      6.79034  6.19042e-05  8.70648e-05      8.96688 
         450      6.87049  6.05537e-05  8.56363e-05      8.96688 
         450      6.95111  5.91964e-05  8.41985e-05      8.96688 
         450      7.03214  5.78426e-05  8.27558e-05      8.96689 
         450       7.1137  5.64961e-05  8.13094e-05      8.96689 
         450      7.19566  5.51623e-05  7.98656e-05      8.96689 
         450      7.27816  5.38405e-05  7.84259e-05      8.96689 
         450      7.36106  5.25331e-05  7.69968e-05      8.96689 
         450      7.44451  5.12374e-05  7.55803e-05      8.96689 
         450      7.52842  4.99545e-05  7.41823e-05      8.96689 
         450      7.61273  4.86864e-05  7.28092e-05      8.96689 
         450      7.69758  4.74347e-05  7.14647e-05      8.96689 
         450      7.78283   4.6208e-05  7.01584e-05       8.9669 
         450      7.86862  4.50161e-05  6.88971e-05       8.9669 
         450      7.95481  4.38782e-05  6.76937e-05       8.9669 
         450      8.04155  4.28177e-05  6.65604e-05       8.9669 
         450      8.12868  4.16881e-05  6.53104e-05       8.9669 
         450      8.21635   4.0516e-05  6.39984e-05       8.9669 
         450      8.30449  3.93888e-05  6.27334e-05       8.9669 
         450      8.39303  3.83009e-05  6.15111e-05       8.9669 
         450      8.48211   3.7245e-05  6.03247e-05       8.9669 
         450      8.57159  3.62179e-05  5.91714e-05       8.9669 
         450      8.66161   3.5214e-05   5.8045e-05      8.96691 
         450      8.75203  3.42315e-05  5.69433e-05      8.96691 
         450      8.84299  3.32661e-05  5.58609e-05      8.96691 
         450      8.93443  3.23163e-05  5.47952e-05      8.96691 
         450      9.02626  3.13814e-05  5.37443e-05      8.96691 
         450      9.11863  3.04586e-05   5.2704e-05      8.96691 
         450      9.21139  2.95485e-05  5.16736e-05      8.96691 
         450      9.30471  2.86495e-05  5.06501e-05      8.96691 
         450      9.39841  2.77626e-05  4.96336e-05      8.96691 
         450      9.49267  2.68867e-05  4.86219e-05      8.96691 
         450      9.58739  2.60226e-05  4.76154e-05      8.96692 
         450      9.68251  2.51715e-05  4.66151e-05      8.96692 
         450      9.77817  2.43323e-05  4.56202e-05      8.96692 
         450      9.87422  2.35066e-05  4.46334e-05      8.96692 
         450      9.97083  2.26935e-05  4.36549e-05      8.96692 
         450      10.0678  2.18943e-05  4.26886e-05      8.96692 
         450      10.1654  2.11075e-05  4.17357e-05      8.96692 
         450      10.2633  2.03341e-05  4.08013e-05      8.96692 
         450      10.3618  1.95718e-05  3.98877e-05      8.96692 
         450      10.4607  1.88203e-05  3.90004e-05      8.96692 
         450      10.5601  1.80784e-05  3.81451e-05      8.96692 
         450        10.66  1.73426e-05  3.73264e-05      8.96693 
         450      10.7603  1.66115e-05  3.65518e-05      8.96693 
         450      10.8611  1.58805e-05  3.58271e-05      8.96693 
         450      10.9623  1.51468e-05  3.51611e-05      8.96693 
         450      11.0641  1.45023e-05  3.42956e-05      8.96693 
         450      11.1663  1.38963e-05  3.34463e-05      8.96693 
         450       11.269   1.3313e-05  3.26265e-05      8.96693 
         450      11.3721  1.27395e-05  3.18357e-05      8.96693 
         450      11.4757  1.21659e-05  3.10759e-05      8.96693 
         450      11.5798   1.1583e-05  3.03467e-05      8.96693 
         450      11.6844  1.09863e-05  2.96504e-05      8.96693 
         450      11.7894  1.03738e-05   2.8988e-05      8.96694 
         450       11.895  9.75024e-06  2.83633e-05      8.96694 
         450      12.0009  9.12739e-06  2.77823e-05      8.96694 
         450      12.1073  8.52375e-06   2.7252e-05      8.96694 
         450      12.2142  7.96994e-06  2.67851e-05      8.96694 
         450      12.3216  7.52971e-06  2.62031e-05      8.96694 
         450      12.4294  7.13368e-06  2.54484e-05      8.96694 
         450      12.5378  6.71873e-06  2.47403e-05      8.96694 
         450      12.6465   6.2895e-06  2.40747e-05      8.96694 
         450      12.7558  5.84901e-06  2.34454e-05      8.96694 
         450      12.8656  5.40103e-06  2.28485e-05      8.96694 
         450      12.9757  4.94905e-06  2.22801e-05      8.96694 
         450      13.0864   4.4952e-06  2.17354e-05      8.96695 
         450      13.1975  4.04277e-06  2.12117e-05      8.96695 
         450      13.3092  3.59334e-06  2.07051e-05      8.96695 
         450      13.4212  3.14964e-06  2.02135e-05      8.96695 
         450      13.5338  2.71274e-06  1.97338e-05      8.96695 
         450      13.6468   2.2845e-06  1.92642e-05      8.96695 
         450      13.7603  1.86651e-06  1.88033e-05      8.96695 
         450      13.8743  1.45911e-06  1.83489e-05      8.96695 
         450      13.9886  1.06373e-06  1.79006e-05      8.96695 
         450      14.1036  6.80316e-07  1.74569e-05      8.96695 
         450      14.2189  3.09812e-07  1.70179e-05      8.96695 
         450      14.3348 -4.82245e-08  1.65827e-05      8.96696 
         450       14.451 -3.93267e-07  1.61519e-05      8.96696 
         450      14.5678 -7.26082e-07   1.5725e-05      8.96696 
         450      14.6851 -1.04677e-06  1.53027e-05      8.96696 
         450      14.8028 -1.35563e-06   1.4886e-05      8.96696 
         450       14.921 -1.65379e-06  1.44749e-05      8.96696 
         450      15.0396 -1.94156e-06  1.40708e-05      8.96696 
         450      15.1588 -2.22027e-06  1.36741e-05      8.96696 
         450      15.2783 -2.49042e-06  1.32863e-05      8.96696 
         450      15.3984 -2.75345e-06  1.29077e-05      8.96696 
         450       15.519 -3.01018e-06  1.25396e-05      8.96696 
         450        15.64 -3.26147e-06  1.21831e-05      8.96697 
         450      15.7615 -3.50877e-06  1.18383e-05      8.96697 
         450      15.8834 -3.75271e-06  1.15062e-05      8.96697 
         450      16.0058 -3.99464e-06  1.11867e-05      8.96697 
         450      16.1286 -4.23506e-06  1.08801e-05      8.96697 
         450       16.252 -4.47513e-06  1.05856e-05      8.96697 
         450      16.3759  -4.7153e-06  1.03025e-05      8.96697 
         450      16.5002 -4.95584e-06  1.00299e-05      8.96697 
         450       16.625 -5.19742e-06  9.76524e-06      8.96697 
         450      16.7501 -5.42723e-06   9.5119e-06      8.96697 
         450      16.8759 -5.64994e-06  9.25937e-06      8.96697 
         450       17.002 -5.86492e-06  9.00245e-06      8.96698 
         450      17.1287 -6.06343e-06  8.73697e-06      8.96698 
         450      17.2557 -6.23184e-06  8.45781e-06      8.96698 
         450      17.3834 -6.35201e-06  8.15689e-06      8.96698 
         450      17.5115 -6.46425e-06  7.87584e-06      8.96698 
         450      17.6399 -6.66037e-06  7.73135e-06      8.96698 
         450       17.769  -6.7854e-06   7.6214e-06      8.96698 
         450      17.8984 -6.90666e-06   7.4508e-06      8.96698 
         450      18.0284 -7.03672e-06  7.27203e-06      8.96698 
         450      18.1587 -7.17368e-06  7.08808e-06      8.96699 
         450      18.2896 -7.31611e-06  6.90106e-06      8.96699 
         450       18.421 -7.46232e-06  6.71315e-06      8.96699 
         450      18.5528 -7.61069e-06  6.52622e-06      8.96699 
         450      18.6851 -7.76008e-06  6.34142e-06      8.96699 
         450      18.8178 -7.90895e-06   6.1602e-06      8.96699 
         450      18.9511 -8.05642e-06  5.98316e-06      8.96699 
         450      19.0847 -8.20121e-06  5.81128e-06      8.96699 
         450      19.2189 -8.34271e-06  5.64474e-06      8.96699 
         450      19.3535 -8.47996e-06  5.48406e-06      8.96699 
         450      19.4886 -8.61263e-06  5.32908e-06        8.967 
         450      19.6242 -8.74021e-06   5.1799e-06        8.967 
         450      19.7602 -8.86237e-06  5.03645e-06        8.967 
         450      19.8968 -8.97921e-06  4.89822e-06        8.967 
         450      20.0337 -9.09062e-06  4.76506e-06        8.967 
         450      20.1712 -9.19698e-06  4.63635e-06        8.967 
         450      20.3091 -9.29846e-06  4.51184e-06        8.967 
         450      20.4475 -9.39566e-06  4.39084e-06        8.967 
         450      20.5864 -9.48904e-06  4.27299e-06      8.96701 
         450      20.7257 -9.57913e-06  4.15795e-06      8.96701 
         450      20.8655 -9.66672e-06  4.04513e-06      8.96701 
         450      21.0058 -9.75233e-06  3.93439e-06      8.96701 
         450      21.1465 -9.83671e-06  3.82532e-06      8.96701 
         450      21.2877 -9.92028e-06  3.71796e-06      8.96701 
         450      21.4294 -1.00036e-05  3.61214e-06      8.96701 
         450      21.5716 -1.00869e-05  3.50809e-06      8.96701 
         450      21.7142 -1.01701e-05  3.40621e-06      8.96702 
         450      21.8573  -1.0253e-05   3.3068e-06      8.96702 
         450      22.0008  -1.0335e-05  3.21071e-06      8.96702 
         450      22.1449 -1.04151e-05  3.11868e-06      8.96702 
         450      22.2893 -1.04915e-05  3.03194e-06      8.96702 
         450      22.4344 -1.05621e-05  2.95171e-06      8.96702 
         450      22.5797  -1.0624e-05  2.87968e-06      8.96702 
         450      22.7257 -1.06734e-05  2.81758e-06      8.96702 
         450      22.8721 -1.07055e-05  2.76755e-06      8.96703 
         450      23.0189 -1.07147e-05  2.73195e-06      8.96703 
         450      23.1663 -1.07439e-05  2.67959e-06      8.96703 
         450       23.314 -1.08874e-05  2.52549e-06      8.96703 
         450      23.4623 -1.09811e-05  2.37852e-06      8.96703 
         450       23.611 -1.10371e-05  2.24301e-06      8.96703 
         450      23.7602 -1.10661e-05  2.12083e-06      8.96703 
         450        23.91 -1.10777e-05  2.01256e-06      8.96704 
         450        24.06 -1.10804e-05  1.91733e-06      8.96704 
         450      24.2107  -1.1081e-05  1.83299e-06      8.96704 
         450      24.3617 -1.10855e-05   1.7569e-06      8.96704 
         450      24.5133 -1.10982e-05  1.68566e-06      8.96704 
         450      24.6653 -1.11225e-05  1.61587e-06      8.96704 
         450      24.8178 -1.11603e-05  1.54394e-06      8.96704 
         450      24.9708 -1.12122e-05  1.46674e-06      8.96705 
         450      25.1242 -1.12775e-05  1.38167e-06      8.96705 
         450      25.2781 -1.13546e-05  1.28669e-06      8.96705 
         450      25.4324 -1.14403e-05  1.18099e-06      8.96705 
         450      25.5873 -1.15305e-05  1.06461e-06      8.96705 
         450      25.7426 -1.16196e-05  9.39269e-07      8.96705 
         450      25.8984 -1.17012e-05  8.07783e-07      8.96706 
         450      26.0546 -1.17678e-05  6.74995e-07      8.96706 
         450      26.2114 -1.18109e-05   5.4707e-07      8.96706 
         450      26.3686 -1.18209e-05  4.32313e-07      8.96706 
         450      26.5262 -1.18607e-05  4.64317e-07      8.96706 
         450      26.6844 -1.18998e-05  5.23485e-07      8.96706 
         450      26.8429 -1.19228e-05  5.57516e-07      8.96707 
         450       27.002  -1.1937e-05  5.66148e-07      8.96707 
         450      27.1615 -1.19483e-05  5.50701e-07      8.96707 
         450      27.3216 -1.19615e-05  5.13929e-07      8.96707 
         450      27.4821 -1.19802e-05  4.59818e-07      8.96707 
         450       27.643 -1.20066e-05  3.93315e-07      8.96707 
         450      27.8044 -1.20418e-05  3.19772e-07      8.96708 
         450      27.9663 -1.20856e-05  2.44955e-07      8.96708 
         450      28.1287 -1.21367e-05  1.74154e-07      8.96708 
         450      28.2914 -1.21922e-05  1.12169e-07      8.96708 
         450      28.4548 -1.22487e-05  6.23291e-08      8.96708 
         450      28.6185 -1.23012e-05  2.62912e-08      8.96709 
         450      28.7828  -1.2344e-05  3.06982e-09      8.96709 
         450      28.9475 -1.23704e-05 -1.14489e-08      8.96709 
         450      29.1126 -1.23731e-05 -2.54008e-08      8.96709 
         450      29.2784 -1.23439e-05 -5.17942e-08      8.96709 
         450      29.4444 -1.22745e-05 -1.09309e-07       8.9671 
         450       29.611 -1.22154e-05 -9.05727e-08       8.9671 
         450       29.778 -1.22037e-05  -8.7827e-08       8.9671 
         450      29.9456 -1.22136e-05 -1.19719e-07       8.9671 
         450      30.1137  -1.2232e-05 -1.63855e-07       8.9671 
         450      30.2821 -1.22503e-05 -2.04988e-07      8.96711 
         450      30.4511 -1.22638e-05 -2.33933e-07      8.96711 
         450      30.6204 -1.22706e-05 -2.46205e-07      8.96711 
         450      30.7903 -1.22711e-05 -2.41092e-07      8.96711 
         450      30.9606 -1.22672e-05 -2.20579e-07      8.96711 
         450      31.1315 -1.22617e-05 -1.88399e-07      8.96712 
         450      31.3028 -1.22578e-05 -1.49296e-07      8.96712 
         450      31.4745 -1.22587e-05 -1.08265e-07      8.96712 
         450      31.6468 -1.22667e-05 -6.98159e-08      8.96712 
         450      31.8194 -1.22838e-05 -3.76843e-08      8.96712 
         450      31.9926 -1.23105e-05 -1.42204e-08      8.96713 
         450      32.1662 -1.23463e-05 -3.28616e-10      8.96713 
         450      32.3404 -1.23894e-05  4.79543e-09      8.96713 
         450      32.5149 -1.24366e-05  3.54471e-09      8.96713 
         450        32.69 -1.24841e-05 -2.41004e-10      8.96714 
         450      32.8655 -1.25268e-05 -1.62603e-09      8.96714 
         450      33.0414 -1.25597e-05  4.89078e-09      8.96714 
         450       33.218 -1.25777e-05  2.47011e-08      8.96714 
         450      33.3948 -1.25766e-05  6.21347e-08      8.96714 
         450      33.5723  -1.2554e-05  1.19511e-07      8.96715 
         450        33.75   -1.251e-05  1.95594e-07      8.96715 
         450      33.9284 -1.24484e-05  2.84434e-07      8.96715 
         450      34.1073  -1.2378e-05  3.73222e-07      8.96715 
         450      34.2865 -1.23141e-05  4.40485e-07      8.96716 
         450      34.4663   -1.228e-05  4.54001e-07      8.96716 
         450      34.6465  -1.2309e-05  3.68046e-07      8.96716 
         450      34.8272 -1.24461e-05  1.20529e-07      8.96716 
         450      35.0083 -1.25329e-05 -3.92384e-07      8.96717 
         450        35.19 -1.23886e-05 -1.00948e-08      8.96717 
         450      35.3721 -1.23015e-05  2.55337e-07      8.96717 
         450      35.5546 -1.22562e-05  4.26748e-07      8.96717 
         450      35.7377   -1.224e-05  5.24587e-07      8.96718 
         450      35.9211 -1.22429e-05  5.66262e-07      8.96718 
         450      36.1052  -1.2257e-05   5.6699e-07      8.96718 
         450      36.2895 -1.22765e-05  5.39633e-07      8.96718 
         450      36.4745 -1.22973e-05  4.94915e-07      8.96719 
         450      36.6598 -1.23168e-05  4.41715e-07      8.96719 
         450      36.8457 -1.23335e-05  3.86977e-07      8.96719 
         450      37.0321 -1.23468e-05  3.36141e-07       8.9672 
         450      37.2188  -1.2357e-05  2.93166e-07       8.9672 
         450      37.4062 -1.23647e-05  2.60599e-07       8.9672 
         450      37.5938 -1.23712e-05  2.39943e-07       8.9672 
         450      37.7821 -1.23777e-05  2.31619e-07      8.96721 
         450      37.9707 -1.23855e-05  2.35241e-07      8.96721 
         450      38.1599 -1.23956e-05  2.49712e-07      8.96721 
         450      38.3496 -1.24092e-05  2.73374e-07      8.96722 
         450      38.5396 -1.24268e-05   3.0413e-07      8.96722 
         450      38.7302 -1.24487e-05   3.3968e-07      8.96722 
         450      38.9211 -1.24746e-05  3.77487e-07      8.96722 
         450      39.1127 -1.25041e-05  4.15119e-07      8.96723 
         450      39.3046 -1.25359e-05  4.50142e-07      8.96723 
         450      39.4971 -1.25689e-05  4.80475e-07      8.96723 
         450      39.6899 -1.26012e-05  5.04286e-07      8.96724 
         450      39.8833  -1.2631e-05  5.20289e-07      8.96724 
         450      40.0772 -1.26563e-05  5.27701e-07      8.96724 
         450      40.2714 -1.26752e-05  5.26423e-07      8.96725 
         450      40.4663 -1.26862e-05  5.17096e-07      8.96725 
         450      40.6615 -1.26885e-05  5.01197e-07      8.96725 
         450      40.8573  -1.2682e-05  4.81062e-07      8.96725 
         450      41.0534 -1.26678e-05  4.60033e-07      8.96726 
         450      41.2501 -1.26488e-05  4.42401e-07      8.96726 
         450      41.4473 -1.26298e-05  4.33556e-07      8.96726 
         450      41.6448 -1.26181e-05   4.3994e-07      8.96727 
         450      41.8429 -1.26239e-05  4.69112e-07      8.96727 
         450      42.0414 -1.26613e-05  5.29673e-07      8.96727 
         450      42.2405 -1.27484e-05  6.31473e-07      8.96728 
         450      42.4399 -1.28103e-05  7.42948e-07      8.96728 
         450      42.6399 -1.26004e-05  6.97992e-07      8.96728 
         450      42.8404 -1.24312e-05  6.05888e-07      8.96729 
         450      43.0412 -1.23146e-05  4.90575e-07      8.96729 
         450      43.2426 -1.22606e-05  3.78746e-07      8.96729 
         450      43.4444 -1.22777e-05  3.00492e-07       8.9673 
         450      43.6467 -1.23732e-05  2.88691e-07       8.9673 
         450      43.8494 -1.25087e-05  3.11108e-07      8.96731 
         450      44.0527 -1.25623e-05  2.43688e-07      8.96731 
         450      44.2563 -1.25994e-05   2.0654e-07      8.96731 
         450      44.4606 -1.26229e-05  1.95186e-07      8.96732 
         450      44.6653 -1.26354e-05  2.05168e-07      8.96732 
         450      44.8704 -1.26388e-05  2.31918e-07      8.96732 
         450       45.076 -1.26349e-05  2.70937e-07      8.96733 
         450       45.282  -1.2625e-05  3.17661e-07      8.96733 
         450      45.4886 -1.26106e-05  3.67731e-07      8.96733 
         450      45.6955  -1.2593e-05  4.16747e-07      8.96734 
         450       45.903 -1.25736e-05  4.60615e-07      8.96734 
         450      46.1111  -1.2554e-05  4.95306e-07      8.96735 
         450      46.3194 -1.25362e-05  5.17052e-07      8.96735 
         450      46.5283 -1.25318e-05  5.14164e-07      8.96735 
         450      46.7376  -1.2603e-05  4.42983e-07      8.96736 
         450      46.9475 -1.26649e-05  3.84354e-07      8.96736 
         450      47.1577 -1.27164e-05  3.37892e-07      8.96736 
         450      47.3685 -1.27574e-05  3.02858e-07      8.96737 
         450      47.5798 -1.27877e-05  2.78469e-07      8.96737 
         450      47.7914 -1.28079e-05  2.63779e-07      8.96738 
         450      48.0037 -1.28188e-05  2.57711e-07      8.96738 