Variables = x, y, u, v, p

Zone, I=800, F=POINT
         -50            0            0            0      21.4862 
         -50     0.000234 -6.35734e-06  1.75932e-10      21.4862 
         -50     0.000939 -2.39958e-05  6.05794e-10      21.4862 
         -50     0.002113 -4.87256e-05  1.00516e-09      21.4862 
         -50     0.003759 -7.49527e-05  9.56594e-10      21.4862 
         -50     0.005872 -9.69892e-05  -2.2237e-11      21.4862 
         -50     0.008457 -0.000110867 -2.40625e-09      21.4862 
         -50      0.01151 -0.000115233 -6.59133e-09      21.4862 
         -50     0.015036 -0.000111778 -1.28721e-08      21.4862 
         -50     0.019031 -0.000104525 -2.14131e-08      21.4862 
         -50     0.023493 -9.82857e-05 -3.22908e-08      21.4862 
         -50     0.028429 -9.66447e-05 -4.55694e-08      21.4862 
         -50     0.033831 -0.000100278  -6.1292e-08      21.4862 
         -50     0.039706 -0.000106418 -7.95937e-08      21.4862 
         -50     0.046047  -0.00011025 -1.00612e-07      21.4862 
         -50     0.052863 -0.000108328 -1.24547e-07      21.4862 
         -50      0.06015 -0.000102637 -1.51561e-07      21.4862 
         -50       0.0679 -0.000101544  -1.8198e-07      21.4862 
         -50     0.076126 -0.000109797 -2.17043e-07      21.4862 
         -50     0.084816 -0.000103056  -2.5919e-07      21.4861 
         -50     0.093982 -0.000105024  -3.0361e-07      21.4861 
         -50     0.103611 -0.000105309 -3.53199e-07      21.4861 
         -50     0.113718  -0.00010471 -4.08551e-07      21.4861 
         -50     0.124286 -0.000103803  -4.6994e-07      21.4861 
         -50     0.135333 -0.000102909 -5.37778e-07      21.4861 
         -50      0.14685 -0.000102121  -6.1239e-07      21.4861 
         -50     0.158827 -0.000101357 -6.94331e-07      21.4861 
         -50     0.171284 -0.000100459 -7.84789e-07      21.4861 
         -50     0.184201 -9.93158e-05 -8.85248e-07      21.4861 
         -50     0.197599 -9.79511e-05 -9.98122e-07      21.4861 
         -50     0.211455 -9.65584e-05 -1.12591e-06      21.4861 
         -50     0.225792 -9.53645e-05 -1.27143e-06      21.4861 
         -50       0.2406 -9.42438e-05 -1.43604e-06      21.4861 
         -50     0.255865 -9.26284e-05 -1.62278e-06      21.4861 
         -50     0.271613  -9.1329e-05 -1.83757e-06      21.4861 
         -50     0.287818 -9.00003e-05 -2.07075e-06      21.4861 
         -50     0.304506 -8.86712e-05 -2.31673e-06      21.4861 
         -50      0.32165 -8.73688e-05 -2.56823e-06      21.4861 
         -50     0.339278 -8.61104e-05 -2.81837e-06      21.4861 
         -50     0.357377 -8.49104e-05 -3.06003e-06      21.4861 
         -50      0.37593 -8.37781e-05 -3.28717e-06      21.4861 
         -50     0.394968 -8.27153e-05 -3.49626e-06      21.4861 
         -50     0.414461 -8.17243e-05 -3.68575e-06      21.4861 
         -50      0.43444 -8.08026e-05 -3.85794e-06      21.4861 
         -50     0.454872 -7.99502e-05 -4.01814e-06      21.4861 
         -50     0.475791 -7.91649e-05 -4.17557e-06      21.4861 
         -50     0.497163  -7.8449e-05 -4.34149e-06      21.4861 
         -50     0.519021 -7.78037e-05 -4.52846e-06       21.486 
         -50      0.54135  -7.7232e-05 -4.74651e-06       21.486 
         -50     0.564131 -7.67334e-05 -4.99872e-06       21.486 
         -50       0.5874  -7.6297e-05 -5.27538e-06       21.486 
         -50     0.611121 -7.59044e-05 -5.52025e-06       21.486 
         -50      0.63533 -7.56383e-05  -5.5436e-06       21.486 
         -50      0.65999 -7.54234e-05 -5.62204e-06       21.486 
         -50     0.685139 -7.52567e-05 -5.74752e-06       21.486 
         -50     0.710759 -7.51366e-05 -5.91222e-06       21.486 
         -50     0.736828 -7.50622e-05 -6.10854e-06      21.4859 
         -50     0.763387 -7.50328e-05 -6.32988e-06      21.4859 
         -50     0.790396 -7.50488e-05  -6.5695e-06      21.4859 
         -50     0.817896 -7.51111e-05 -6.82189e-06      21.4859 
         -50     0.845843 -7.52208e-05 -7.08133e-06      21.4859 
         -50     0.874283   -7.538e-05 -7.34352e-06      21.4859 
         -50      0.90317 -7.55905e-05 -7.60384e-06      21.4858 
         -50     0.932551 -7.58547e-05  -7.8591e-06      21.4858 
         -50     0.962401 -7.61745e-05 -8.10593e-06      21.4858 
         -50     0.992697 -7.65515e-05 -8.34157e-06      21.4858 
         -50      1.02349 -7.69875e-05 -8.56425e-06      21.4858 
         -50      1.05472 -7.74825e-05 -8.77194e-06      21.4857 
         -50      1.08645  -7.8037e-05 -8.96377e-06      21.4857 
         -50      1.11863 -7.86485e-05  -9.1387e-06      21.4857 
         -50       1.1513 -7.93151e-05 -9.29679e-06      21.4857 
         -50      1.18444 -8.00319e-05 -9.43834e-06      21.4856 
         -50      1.21802  -8.0792e-05 -9.56445e-06      21.4856 
         -50      1.25211 -8.15887e-05 -9.67753e-06      21.4856 
         -50      1.28663 -8.24106e-05 -9.78088e-06      21.4855 
         -50      1.32165 -8.32476e-05 -9.87991e-06      21.4855 
         -50      1.35712 -8.40848e-05 -9.98194e-06      21.4855 
         -50      1.39308 -8.49089e-05 -1.00976e-05      21.4854 
         -50      1.42951 -8.57037e-05  -1.0241e-05      21.4854 
         -50      1.46638 -8.64527e-05 -1.04313e-05      21.4854 
         -50      1.50375 -8.71423e-05 -1.06943e-05      21.4853 
         -50      1.54156 -8.77192e-05 -1.07363e-05      21.4853 
         -50      1.57987 -8.84905e-05  -1.0778e-05      21.4852 
         -50      1.61863 -8.94334e-05 -1.08343e-05      21.4852 
         -50      1.65788  -9.0515e-05 -1.08993e-05      21.4852 
         -50      1.69757 -9.17006e-05 -1.09673e-05      21.4851 
         -50      1.73776 -9.29611e-05 -1.10337e-05      21.4851 
         -50      1.77842  -9.4266e-05  -1.1094e-05       21.485 
         -50      1.81952  -9.5587e-05 -1.11446e-05       21.485 
         -50      1.86113 -9.69009e-05 -1.11823e-05      21.4849 
         -50      1.90316 -9.81827e-05 -1.12046e-05      21.4848 
         -50      1.94571  -9.9414e-05 -1.12095e-05      21.4848 
         -50      1.98869 -0.000100575 -1.11957e-05      21.4847 
         -50      2.03217 -0.000101652 -1.11621e-05      21.4847 
         -50      2.07612 -0.000102632 -1.11085e-05      21.4846 
         -50      2.12051 -0.000103503 -1.10348e-05      21.4845 
         -50       2.1654  -0.00010426 -1.09416e-05      21.4845 
         -50      2.21073 -0.000104898 -1.08297e-05      21.4844 
         -50      2.25656 -0.000105416 -1.07002e-05      21.4843 
         -50      2.30283 -0.000105813 -1.05546e-05      21.4842 
         -50       2.3496 -0.000106093 -1.03944e-05      21.4842 
         -50      2.39685 -0.000106262 -1.02213e-05      21.4841 
         -50      2.44452 -0.000106328 -1.00373e-05       21.484 
         -50      2.49271   -0.0001063 -9.84415e-06      21.4839 
         -50      2.54132 -0.000106191 -9.64382e-06      21.4838 
         -50      2.59044 -0.000106014 -9.43778e-06      21.4837 
         -50         2.64 -0.000105784 -9.22798e-06      21.4837 
         -50      2.69006 -0.000105515 -9.01555e-06      21.4836 
         -50      2.74056 -0.000105224  -8.8021e-06      21.4835 
         -50      2.79156 -0.000104927 -8.58839e-06      21.4834 
         -50      2.84304  -0.00010464  -8.3755e-06      21.4833 
         -50      2.89494 -0.000104379 -8.16434e-06      21.4832 
         -50      2.94735 -0.000104158 -7.95524e-06      21.4831 
         -50       3.0002 -0.000103989 -7.74916e-06      21.4829 
         -50      3.05355 -0.000103881 -7.54649e-06      21.4828 
         -50      3.10733 -0.000103843 -7.34852e-06      21.4827 
         -50      3.16163 -0.000103877 -7.15633e-06      21.4826 
         -50      3.21639 -0.000103985 -6.97215e-06      21.4825 
         -50      3.27158 -0.000104159 -6.79914e-06      21.4823 
         -50      3.32729 -0.000104391 -6.64138e-06      21.4822 
         -50      3.38342 -0.000104662 -6.50518e-06      21.4821 
         -50      3.44007  -0.00010495 -6.39861e-06      21.4819 
         -50      3.49714 -0.000105223 -6.33291e-06      21.4818 
         -50      3.55472 -0.000105443  -6.3225e-06      21.4817 
         -50      3.61273 -0.000105561  -6.3861e-06      21.4815 
         -50      3.67125  -0.00010552 -6.54759e-06      21.4814 
         -50      3.73025 -0.000105251 -6.83681e-06      21.4812 
         -50      3.78967  -0.00010526 -6.46079e-06      21.4811 
         -50      3.84961 -0.000105595 -5.98652e-06      21.4809 
         -50      3.90996 -0.000105964 -5.60615e-06      21.4807 
         -50      3.97084 -0.000105756 -6.34875e-06      21.4806 
         -50      4.03214 -0.000105473 -7.09451e-06      21.4804 
         -50      4.09395 -0.000105215 -7.67064e-06      21.4802 
         -50      4.15624  -0.00010499 -8.09513e-06        21.48 
         -50      4.21895 -0.000104799  -8.3939e-06      21.4798 
         -50      4.28217 -0.000104636 -8.59788e-06      21.4797 
         -50      4.34582 -0.000104495 -8.73865e-06      21.4795 
         -50      4.40998 -0.000104366 -8.84706e-06      21.4793 
         -50      4.47457 -0.000104241 -8.94977e-06      21.4791 
         -50      4.53968  -0.00010411 -9.06799e-06      21.4789 
         -50      4.60525 -0.000103969 -9.21514e-06      21.4787 
         -50      4.67125 -0.000103814 -9.39587e-06      21.4784 
         -50      4.73777 -0.000103645 -9.60606e-06      21.4782 
         -50       4.8047 -0.000103468 -9.83191e-06       21.478 
         -50      4.87216 -0.000103289 -1.00523e-05      21.4778 
         -50      4.94003 -0.000103121 -1.02391e-05      21.4775 
         -50      5.00843 -0.000102976  -1.0362e-05      21.4773 
         -50      5.07724 -0.000102866  -1.0391e-05      21.4771 
         -50      5.14658 -0.000102805  -1.0303e-05      21.4768 
         -50      5.21639 -0.000102795 -1.00886e-05      21.4766 
         -50      5.28661 -0.000102836 -9.76079e-06      21.4763 
         -50      5.35736 -0.000102908 -9.36473e-06       21.476 
         -50      5.42852 -0.000102974 -8.99186e-06      21.4758 
         -50      5.50021  -0.00010297 -8.79252e-06      21.4755 
         -50      5.57231 -0.000102799 -8.99478e-06      21.4752 
         -50      5.64493 -0.000102315 -9.92319e-06      21.4749 
         -50      5.71803 -0.000102446 -8.74548e-06      21.4747 
         -50      5.79154 -0.000102434 -8.28364e-06      21.4744 
         -50      5.86558 -0.000102346 -8.23291e-06      21.4741 
         -50      5.94003 -0.000102223 -8.39357e-06      21.4738 
         -50      6.01501 -0.000102089 -8.64253e-06      21.4735 
         -50       6.0904 -0.000101949 -8.90913e-06      21.4731 
         -50      6.16632 -0.000101798 -9.15719e-06      21.4728 
         -50      6.24271 -0.000101624 -9.36959e-06      21.4725 
         -50       6.3195 -0.000101416 -9.54119e-06      21.4722 
         -50      6.39683 -0.000101178 -9.67824e-06      21.4718 
         -50      6.47457 -0.000100934 -9.80465e-06      21.4715 
         -50      6.55284  -0.00010075 -9.97915e-06      21.4711 
         -50      6.63152 -0.000100744 -1.03207e-05      21.4708 
         -50      6.71073  -0.00010111 -1.10476e-05      21.4704 
         -50      6.79034 -0.000100736 -1.11907e-05        21.47 
         -50      6.87049  -0.00010012  -1.1101e-05      21.4696 
         -50      6.95111 -9.97295e-05 -1.11877e-05      21.4693 
         -50      7.03214 -9.95055e-05  -1.1384e-05      21.4689 
         -50       7.1137 -9.93996e-05 -1.16336e-05      21.4685 
         -50      7.19566 -9.93751e-05 -1.18897e-05      21.4681 
         -50      7.27816 -9.94029e-05  -1.2117e-05      21.4677 
         -50      7.36106 -9.94603e-05  -1.2291e-05      21.4672 
         -50      7.44451 -9.95292e-05 -1.24003e-05      21.4668 
         -50      7.52842 -9.95945e-05 -1.24476e-05      21.4664 
         -50      7.61273 -9.96434e-05  -1.2452e-05       21.466 
         -50      7.69758  -9.9665e-05 -1.24514e-05      21.4655 
         -50      7.78283   -9.965e-05 -1.25059e-05      21.4651 
         -50      7.86862 -9.95916e-05 -1.27014e-05      21.4646 
         -50      7.95481 -9.94867e-05 -1.31534e-05      21.4641 
         -50      8.04155 -9.93375e-05 -1.40141e-05      21.4637 
         -50      8.12868  -9.8839e-05 -1.39589e-05      21.4632 
         -50      8.21635 -9.83298e-05 -1.37787e-05      21.4627 
         -50      8.30449 -9.79176e-05 -1.37728e-05      21.4622 
         -50      8.39303 -9.76032e-05 -1.38658e-05      21.4617 
         -50      8.48211 -9.73834e-05 -1.40016e-05      21.4612 
         -50      8.57159  -9.7252e-05 -1.41421e-05      21.4607 
         -50      8.66161 -9.71986e-05 -1.42664e-05      21.4601 
         -50      8.75203 -9.72094e-05 -1.43687e-05      21.4596 
         -50      8.84299 -9.72672e-05 -1.44563e-05      21.4591 
         -50      8.93443 -9.73521e-05 -1.45465e-05      21.4585 
         -50      9.02626 -9.74423e-05 -1.46636e-05       21.458 
         -50      9.11863 -9.75156e-05 -1.48348e-05      21.4574 
         -50      9.21139 -9.75504e-05 -1.50848e-05      21.4568 
         -50      9.30471 -9.75279e-05 -1.54313e-05      21.4562 
         -50      9.39841 -9.72601e-05 -1.53866e-05      21.4556 
         -50      9.49267  -9.6961e-05 -1.49817e-05       21.455 
         -50      9.58739 -9.68161e-05 -1.46819e-05      21.4544 
         -50      9.68251 -9.67702e-05   -1.447e-05      21.4538 
         -50      9.77817 -9.67766e-05 -1.43288e-05      21.4532 
         -50      9.87422 -9.67967e-05 -1.42431e-05      21.4526 
         -50      9.97083 -9.67998e-05 -1.41983e-05      21.4519 
         -50      10.0678 -9.67629e-05 -1.41823e-05      21.4513 
         -50      10.1654 -9.66703e-05 -1.41845e-05      21.4506 
         -50      10.2633 -9.65134e-05 -1.41967e-05      21.4499 
         -50      10.3618 -9.62898e-05 -1.42133e-05      21.4493 
         -50      10.4607 -9.60032e-05 -1.42311e-05      21.4486 
         -50      10.5601 -9.56629e-05 -1.42492e-05      21.4479 
         -50        10.66 -9.52821e-05 -1.42693e-05      21.4472 
         -50      10.7603 -9.48786e-05 -1.42953e-05      21.4464 
         -50      10.8611  -9.4472e-05 -1.43332e-05      21.4457 
         -50      10.9623 -9.40852e-05 -1.43903e-05       21.445 
         -50      11.0641 -9.37403e-05 -1.44751e-05      21.4442 
         -50      11.1663 -9.34601e-05 -1.45965e-05      21.4435 
         -50       11.269 -9.32654e-05 -1.47628e-05      21.4427 
         -50      11.3721 -9.31731e-05 -1.49814e-05       21.442 
         -50      11.4757 -9.31958e-05 -1.52565e-05      21.4412 
         -50      11.5798 -9.33392e-05 -1.55895e-05      21.4404 
         -50      11.6844 -9.36003e-05 -1.59756e-05      21.4396 
         -50      11.7894 -9.39664e-05 -1.64041e-05      21.4388 
         -50       11.895 -9.44111e-05 -1.68546e-05      21.4379 
         -50      12.0009 -9.48928e-05 -1.72958e-05      21.4371 
         -50      12.1073 -9.53534e-05 -1.76841e-05      21.4363 
         -50      12.2142 -9.57132e-05 -1.79586e-05      21.4354 
         -50      12.3216 -9.58703e-05 -1.80407e-05      21.4346 
         -50      12.4294 -9.56957e-05 -1.78293e-05      21.4337 
         -50      12.5378 -9.50308e-05 -1.71974e-05      21.4328 
         -50      12.6465 -9.36962e-05 -1.72086e-05      21.4319 
         -50      12.7558 -9.15135e-05 -1.96205e-05       21.431 
         -50      12.8656 -9.11759e-05 -1.81689e-05      21.4301 
         -50      12.9757 -9.11786e-05 -1.79653e-05      21.4292 
         -50      13.0864 -9.19485e-05 -1.91075e-05      21.4282 
         -50      13.1975 -9.24923e-05 -1.99984e-05      21.4273 
         -50      13.3092 -9.28546e-05  -2.0679e-05      21.4263 
         -50      13.4212 -9.30735e-05 -2.11841e-05      21.4254 
         -50      13.5338 -9.31832e-05 -2.15469e-05      21.4244 
         -50      13.6468 -9.32127e-05 -2.17961e-05      21.4234 
         -50      13.7603 -9.31862e-05 -2.19577e-05      21.4224 
         -50      13.8743 -9.31237e-05 -2.20549e-05      21.4214 
         -50      13.9886 -9.30406e-05 -2.21075e-05      21.4204 
         -50      14.1036  -9.2948e-05 -2.21329e-05      21.4193 
         -50      14.2189 -9.28537e-05 -2.21458e-05      21.4183 
         -50      14.3348 -9.27613e-05 -2.21582e-05      21.4172 
         -50       14.451 -9.26716e-05 -2.21799e-05      21.4162 
         -50      14.5678 -9.25827e-05 -2.22184e-05      21.4151 
         -50      14.6851 -9.24903e-05  -2.2279e-05       21.414 
         -50      14.8028 -9.23887e-05  -2.2365e-05      21.4129 
         -50       14.921  -9.2271e-05 -2.24779e-05      21.4118 
         -50      15.0396 -9.21302e-05 -2.26171e-05      21.4106 
         -50      15.1588 -9.19593e-05 -2.27808e-05      21.4095 
         -50      15.2783 -9.17532e-05 -2.29647e-05      21.4084 
         -50      15.3984 -9.15086e-05  -2.3164e-05      21.4072 
         -50       15.519 -9.12257e-05 -2.33713e-05       21.406 
         -50        15.64 -9.09094e-05 -2.35783e-05      21.4048 
         -50      15.7615 -9.05693e-05 -2.37753e-05      21.4036 
         -50      15.8834 -9.02231e-05 -2.39507e-05      21.4024 
         -50      16.0058 -8.98956e-05  -2.4092e-05      21.4012 
         -50      16.1286 -8.96224e-05 -2.41845e-05         21.4 
         -50       16.252   -8.945e-05 -2.42127e-05      21.3987 
         -50      16.3759 -8.94385e-05 -2.41587e-05      21.3975 
         -50      16.5002 -8.96627e-05 -2.40034e-05      21.3962 
         -50       16.625 -9.02151e-05 -2.37255e-05      21.3949 
         -50      16.7501 -9.03833e-05 -2.37798e-05      21.3937 
         -50      16.8759 -8.99177e-05 -2.41944e-05      21.3923 
         -50       17.002 -8.96532e-05  -2.4421e-05       21.391 
         -50      17.1287 -8.95034e-05 -2.45065e-05      21.3897 
         -50      17.2557 -8.94061e-05 -2.44917e-05      21.3884 
         -50      17.3834  -8.9319e-05 -2.44127e-05       21.387 
         -50      17.5115 -8.92167e-05 -2.43005e-05      21.3856 
         -50      17.6399 -8.90881e-05 -2.41818e-05      21.3843 
         -50       17.769 -8.89321e-05 -2.40786e-05      21.3829 
         -50      17.8984 -8.87559e-05  -2.4009e-05      21.3815 
         -50      18.0284 -8.85714e-05  -2.3987e-05      21.3801 
         -50      18.1587 -8.83935e-05 -2.40233e-05      21.3786 
         -50      18.2896 -8.82368e-05  -2.4125e-05      21.3772 
         -50       18.421 -8.81145e-05 -2.42959e-05      21.3757 
         -50      18.5528 -8.80359e-05 -2.45368e-05      21.3743 
         -50      18.6851 -8.80053e-05 -2.48464e-05      21.3728 
         -50      18.8178 -8.80206e-05 -2.52197e-05      21.3713 
         -50      18.9511 -8.80726e-05 -2.56506e-05      21.3698 
         -50      19.0847 -8.81446e-05 -2.61294e-05      21.3683 
         -50      19.2189 -8.82121e-05  -2.6646e-05      21.3668 
         -50      19.3535 -8.82436e-05 -2.71867e-05      21.3652 
         -50      19.4886 -8.82011e-05 -2.77375e-05      21.3637 
         -50      19.6242 -8.80417e-05 -2.82817e-05      21.3621 
         -50      19.7602 -8.77197e-05 -2.88009e-05      21.3605 
         -50      19.8968 -8.71883e-05 -2.92764e-05      21.3589 
         -50      20.0337 -8.64044e-05 -2.96863e-05      21.3573 
         -50      20.1712 -8.53295e-05 -3.00086e-05      21.3557 
         -50      20.3091 -8.41883e-05 -3.01111e-05      21.3541 
         -50      20.4475 -8.39012e-05 -3.00055e-05      21.3524 
         -50      20.5864 -8.38362e-05 -3.01647e-05      21.3508 
         -50      20.7257 -8.39893e-05  -3.0481e-05      21.3491 
         -50      20.8655 -8.43581e-05 -3.08249e-05      21.3474 
         -50      21.0058 -8.49421e-05 -3.10403e-05      21.3457 
         -50      21.1465 -8.57456e-05 -3.09427e-05       21.344 
         -50      21.2877 -8.57248e-05  -3.0704e-05      21.3423 
         -50      21.4294 -8.47591e-05 -3.00952e-05      21.3405 
         -50      21.5716 -8.43166e-05 -2.92505e-05      21.3388 
         -50      21.7142 -8.44689e-05 -2.88851e-05       21.337 
         -50      21.8573  -8.5311e-05 -2.95118e-05      21.3353 
         -50      22.0008 -8.63763e-05  -3.0766e-05      21.3335 
         -50      22.1449 -8.62493e-05 -3.09315e-05      21.3317 
         -50      22.2893 -8.58005e-05 -3.09684e-05      21.3299 
         -50      22.4344 -8.51267e-05 -3.09273e-05       21.328 
         -50      22.5797 -8.43328e-05 -3.08476e-05      21.3262 
         -50      22.7257 -8.35187e-05 -3.07596e-05      21.3243 
         -50      22.8721 -8.27753e-05 -3.06861e-05      21.3225 
         -50      23.0189 -8.21762e-05  -3.0644e-05      21.3206 
         -50      23.1663 -8.17709e-05 -3.06451e-05      21.3187 
         -50       23.314 -8.15853e-05 -3.06976e-05      21.3168 
         -50      23.4623 -8.16169e-05  -3.0807e-05      21.3149 
         -50       23.611 -8.18367e-05 -3.09761e-05      21.3129 
         -50      23.7602 -8.21917e-05 -3.12063e-05       21.311 
         -50        23.91 -8.26084e-05 -3.14966e-05       21.309 
         -50        24.06 -8.30001e-05 -3.18437e-05      21.3071 
         -50      24.2107 -8.32769e-05 -3.22424e-05      21.3051 
         -50      24.3617 -8.33563e-05 -3.26825e-05      21.3031 
         -50      24.5133 -8.31787e-05 -3.31503e-05      21.3011 
         -50      24.6653 -8.27247e-05  -3.3624e-05      21.2991 
         -50      24.8178 -8.20347e-05 -3.40745e-05       21.297 
         -50      24.9708 -8.12343e-05 -3.44603e-05       21.295 
         -50      25.1242  -8.0561e-05 -3.47258e-05      21.2929 
         -50      25.2781 -8.03927e-05 -3.47985e-05      21.2908 
         -50      25.4324 -8.12848e-05 -3.45837e-05      21.2888 
         -50      25.5873 -8.17006e-05 -3.37252e-05      21.2867 
         -50      25.7426 -8.16571e-05 -3.32567e-05      21.2846 
         -50      25.8984 -8.13506e-05 -3.31506e-05      21.2824 
         -50      26.0546 -8.08758e-05 -3.33164e-05      21.2803 
         -50      26.2114 -8.03238e-05 -3.36607e-05      21.2781 
         -50      26.3686 -7.97798e-05 -3.40883e-05       21.276 
         -50      26.5262 -7.93164e-05 -3.45082e-05      21.2738 
         -50      26.6844 -7.89839e-05 -3.48418e-05      21.2716 
         -50      26.8429 -7.88019e-05 -3.50321e-05      21.2694 
         -50       27.002 -7.87437e-05 -3.50596e-05      21.2672 
         -50      27.1615 -7.87224e-05 -3.49585e-05       21.265 
         -50      27.3216 -7.85709e-05  -3.4838e-05      21.2627 
         -50      27.4821 -7.80205e-05 -3.49078e-05      21.2605 
         -50       27.643 -7.78622e-05 -3.51368e-05      21.2582 
         -50      27.8044 -7.80848e-05 -3.52254e-05       21.256 
         -50      27.9663 -7.81896e-05 -3.52634e-05      21.2537 
         -50      28.1287 -7.81948e-05 -3.52733e-05      21.2514 
         -50      28.2914 -7.81165e-05 -3.52731e-05      21.2491 
         -50      28.4548 -7.79691e-05 -3.52763e-05      21.2467 
         -50      28.6185  -7.7766e-05 -3.52922e-05      21.2444 
         -50      28.7828 -7.75186e-05 -3.53273e-05       21.242 
         -50      28.9475 -7.72374e-05 -3.53846e-05      21.2397 
         -50      29.1126 -7.69318e-05 -3.54648e-05      21.2373 
         -50      29.2784 -7.66095e-05 -3.55666e-05      21.2349 
         -50      29.4444 -7.62781e-05  -3.5687e-05      21.2325 
         -50       29.611 -7.59431e-05 -3.58219e-05      21.2301 
         -50       29.778 -7.56104e-05 -3.59658e-05      21.2277 
         -50      29.9456 -7.52839e-05 -3.61134e-05      21.2253 
         -50      30.1137 -7.49676e-05 -3.62588e-05      21.2228 
         -50      30.2821  -7.4665e-05 -3.63962e-05      21.2204 
         -50      30.4511 -7.43781e-05 -3.65205e-05      21.2179 
         -50      30.6204 -7.41092e-05 -3.66269e-05      21.2154 
         -50      30.7903 -7.38594e-05 -3.67117e-05      21.2129 
         -50      30.9606 -7.36301e-05 -3.67723e-05      21.2104 
         -50      31.1315 -7.34214e-05 -3.68072e-05      21.2079 
         -50      31.3028 -7.32336e-05 -3.68163e-05      21.2054 
         -50      31.4745 -7.30662e-05 -3.68006e-05      21.2028 
         -50      31.6468 -7.29183e-05 -3.67629e-05      21.2003 
         -50      31.8194 -7.27886e-05 -3.67072e-05      21.1977 
         -50      31.9926 -7.26751e-05 -3.66386e-05      21.1951 
         -50      32.1662 -7.25754e-05 -3.65637e-05      21.1926 
         -50      32.3404 -7.24864e-05 -3.64899e-05        21.19 
         -50      32.5149 -7.24043e-05 -3.64253e-05      21.1874 
         -50        32.69 -7.23243e-05 -3.63786e-05      21.1847 
         -50      32.8655 -7.22411e-05 -3.63584e-05      21.1821 
         -50      33.0414 -7.21482e-05 -3.63729e-05      21.1795 
         -50       33.218 -7.20375e-05 -3.64297e-05      21.1768 
         -50      33.3948 -7.19003e-05 -3.65345e-05      21.1742 
         -50      33.5723 -7.17257e-05 -3.66915e-05      21.1715 
         -50        33.75 -7.15017e-05 -3.69012e-05      21.1688 
         -50      33.9284 -7.12137e-05 -3.71613e-05      21.1661 
         -50      34.1073 -7.08452e-05 -3.74644e-05      21.1634 
         -50      34.2865 -7.03779e-05 -3.77973e-05      21.1607 
         -50      34.4663 -6.97894e-05 -3.81408e-05       21.158 
         -50      34.6465 -6.90558e-05  -3.8467e-05      21.1552 
         -50      34.8272  -6.8148e-05 -3.87395e-05      21.1525 
         -50      35.0083 -6.81949e-05 -3.82903e-05      21.1497 
         -50        35.19 -6.90034e-05 -3.76004e-05       21.147 
         -50      35.3721 -6.97208e-05 -3.72763e-05      21.1442 
         -50      35.5546 -7.00454e-05 -3.74179e-05      21.1414 
         -50      35.7377 -6.89591e-05 -3.78769e-05      21.1386 
         -50      35.9211 -6.80362e-05 -3.81664e-05      21.1358 
         -50      36.1052 -6.72799e-05 -3.83122e-05       21.133 
         -50      36.2895 -6.66961e-05   -3.834e-05      21.1302 
         -50      36.4745 -6.62882e-05 -3.82761e-05      21.1273 
         -50      36.6598 -6.60604e-05 -3.81472e-05      21.1245 
         -50      36.8457 -6.60399e-05 -3.80053e-05      21.1216 
         -50      37.0321 -6.64687e-05 -3.82583e-05      21.1188 
         -50      37.2188 -6.67991e-05 -3.84661e-05      21.1159 
         -50      37.4062 -6.70281e-05 -3.86281e-05       21.113 
         -50      37.5938 -6.71554e-05 -3.87437e-05      21.1101 
         -50      37.7821 -6.71849e-05 -3.88134e-05      21.1072 
         -50      37.9707 -6.71228e-05 -3.88381e-05      21.1043 
         -50      38.1599 -6.69778e-05 -3.88195e-05      21.1014 
         -50      38.3496 -6.67601e-05 -3.87596e-05      21.0985 
         -50      38.5396 -6.64814e-05 -3.86615e-05      21.0955 
         -50      38.7302 -6.61536e-05 -3.85282e-05      21.0926 
         -50      38.9211 -6.57895e-05  -3.8364e-05      21.0896 
         -50      39.1127  -6.5401e-05 -3.81728e-05      21.0867 
         -50      39.3046 -6.50005e-05 -3.79598e-05      21.0837 
         -50      39.4971 -6.45984e-05 -3.77298e-05      21.0807 
         -50      39.6899 -6.42051e-05 -3.74885e-05      21.0777 
         -50      39.8833 -6.38287e-05 -3.72413e-05      21.0747 
         -50      40.0772 -6.34764e-05 -3.69941e-05      21.0717 
         -50      40.2714 -6.31537e-05 -3.67529e-05      21.0687 
         -50      40.4663 -6.28635e-05 -3.65232e-05      21.0657 
         -50      40.6615 -6.26079e-05 -3.63108e-05      21.0627 
         -50      40.8573 -6.23864e-05 -3.61208e-05      21.0596 
         -50      41.0534 -6.21974e-05 -3.59581e-05      21.0566 
         -50      41.2501 -6.20371e-05 -3.58269e-05      21.0535 
         -50      41.4473 -6.19007e-05 -3.57308e-05      21.0505 
         -50      41.6448 -6.17823e-05 -3.56724e-05      21.0474 
         -50      41.8429 -6.16752e-05 -3.56531e-05      21.0443 
         -50      42.0414 -6.15725e-05 -3.56732e-05      21.0413 
         -50      42.2405 -6.14672e-05 -3.57314e-05      21.0382 
         -50      42.4399 -6.13537e-05 -3.58245e-05      21.0351 
         -50      42.6399 -6.12274e-05 -3.59478e-05       21.032 
         -50      42.8404 -6.10862e-05 -3.60941e-05      21.0289 
         -50      43.0412 -6.09314e-05 -3.62535e-05      21.0258 
         -50      43.2426  -6.0768e-05  -3.6414e-05      21.0226 
         -50      43.4444 -6.06067e-05 -3.65598e-05      21.0195 
         -50      43.6467 -6.04642e-05 -3.66723e-05      21.0164 
         -50      43.8494 -6.03653e-05  -3.6729e-05      21.0132 
         -50      44.0527 -6.03437e-05 -3.67034e-05      21.0101 
         -50      44.2563 -6.04437e-05 -3.65703e-05      21.0069 
         -50      44.4606 -6.05208e-05 -3.65644e-05      21.0038 
         -50      44.6653 -6.04319e-05 -3.64811e-05      21.0006 
         -50      44.8704 -6.02103e-05 -3.63529e-05      20.9974 
         -50       45.076 -5.98844e-05 -3.62097e-05      20.9942 
         -50       45.282 -5.94803e-05 -3.60782e-05      20.9911 
         -50      45.4886 -5.90208e-05 -3.59806e-05      20.9879 
         -50      45.6955 -5.85296e-05 -3.59339e-05      20.9847 
         -50       45.903 -5.80294e-05 -3.59488e-05      20.9815 
         -50      46.1111 -5.75461e-05 -3.60287e-05      20.9783 
         -50      46.3194  -5.7109e-05 -3.61687e-05       20.975 
         -50      46.5283 -5.67516e-05 -3.63549e-05      20.9718 
         -50      46.7376 -5.65156e-05 -3.65629e-05      20.9686 
         -50      46.9475 -5.64502e-05 -3.67575e-05      20.9654 
         -50      47.1577 -5.66159e-05 -3.68912e-05      20.9621 
         -50      47.3685 -5.68177e-05 -3.67025e-05      20.9589 
         -50      47.5798  -5.6675e-05 -3.62279e-05      20.9557 
         -50      47.7914 -5.65287e-05 -3.58842e-05      20.9524 
         -50      48.0037 -5.63772e-05 -3.56485e-05      20.9492 