Variables = x, y, u, v, p

Zone, I=800, F=POINT
         750            0            0            0    -0.892428 
         750     0.000234  2.14727e-06  4.31822e-11    -0.892428 
         750     0.000939    8.079e-06  6.89197e-10    -0.892428 
         750     0.002113  1.63079e-05   3.4775e-09    -0.892428 
         750     0.003759  2.48397e-05  1.09671e-08    -0.892428 
         750     0.005872  3.16368e-05  2.66524e-08    -0.892428 
         750     0.008457  3.52417e-05  5.50148e-08    -0.892428 
         750      0.01151  3.50924e-05  1.01326e-07    -0.892428 
         750     0.015036   3.1651e-05  1.71785e-07    -0.892428 
         750     0.019031  2.61536e-05  2.73158e-07    -0.892428 
         750     0.023493  2.00565e-05  4.12812e-07    -0.892428 
         750     0.028429  1.43259e-05  5.98947e-07    -0.892428 
         750     0.033831  8.89573e-06  8.39636e-07    -0.892428 
         750     0.039706  2.49699e-06  1.14384e-06    -0.892428 
         750     0.046047 -6.75294e-06  1.52001e-06    -0.892428 
         750     0.052863 -2.01361e-05  1.97753e-06    -0.892428 
         750      0.06015 -3.68617e-05  2.52495e-06    -0.892428 
         750       0.0679 -5.39053e-05  3.17011e-06    -0.892428 
         750     0.076126 -7.00655e-05  3.92222e-06    -0.892428 
         750     0.084816 -9.51062e-05  4.78785e-06    -0.892428 
         750     0.093982 -0.000117889   5.7752e-06    -0.892428 
         750     0.103611  -0.00014407  6.88919e-06    -0.892428 
         750     0.113718 -0.000173102   8.1371e-06    -0.892428 
         750     0.124286 -0.000204467  9.52144e-06    -0.892428 
         750     0.135333 -0.000237881  1.10482e-05    -0.892428 
         750      0.14685 -0.000273102  1.27189e-05    -0.892428 
         750     0.158827 -0.000309968  1.45335e-05    -0.892428 
         750     0.171284 -0.000348427  1.64956e-05    -0.892428 
         750     0.184201 -0.000388253  1.86016e-05    -0.892428 
         750     0.197599 -0.000429229  2.08533e-05    -0.892428 
         750     0.211455 -0.000470885  2.32444e-05    -0.892428 
         750     0.225792  -0.00051286  2.57756e-05    -0.892428 
         750       0.2406 -0.000554952  2.84406e-05    -0.892428 
         750     0.255865 -0.000597236  3.12317e-05    -0.892428 
         750     0.271613 -0.000638912  3.41487e-05    -0.892428 
         750     0.287818 -0.000679926  3.71805e-05    -0.892428 
         750     0.304506 -0.000720082   4.0325e-05    -0.892428 
         750      0.32165 -0.000759075  4.35702e-05    -0.892428 
         750     0.339278 -0.000796752  4.69143e-05    -0.892428 
         750     0.357377 -0.000832894  5.03478e-05    -0.892428 
         750      0.37593 -0.000867311  5.38606e-05    -0.892428 
         750     0.394968 -0.000899933  5.74517e-05    -0.892428 
         750     0.414461 -0.000930607  6.11092e-05    -0.892428 
         750      0.43444  -0.00095931  6.48325e-05    -0.892428 
         750     0.454872 -0.000985948  6.86098e-05    -0.892428 
         750     0.475791  -0.00101054  7.24419e-05    -0.892428 
         750     0.497163  -0.00103304  7.63177e-05    -0.892428 
         750     0.519021   -0.0010535  8.02387e-05    -0.892428 
         750      0.54135  -0.00107191  8.41988e-05    -0.892428 
         750     0.564131  -0.00108832  8.81923e-05    -0.892428 
         750       0.5874   -0.0011028  9.22245e-05    -0.892428 
         750     0.611121  -0.00111541  9.62902e-05    -0.892428 
         750      0.63533  -0.00112621   0.00010039    -0.892428 
         750      0.65999  -0.00113524  0.000104514    -0.892429 
         750     0.685139  -0.00114259  0.000108673    -0.892429 
         750     0.710759  -0.00114831  0.000112864    -0.892429 
         750     0.736828  -0.00115246  0.000117088    -0.892429 
         750     0.763387  -0.00115508  0.000121353    -0.892429 
         750     0.790396   -0.0011562  0.000125657    -0.892429 
         750     0.817896  -0.00115585  0.000130006    -0.892429 
         750     0.845843  -0.00115405  0.000134398    -0.892429 
         750     0.874283  -0.00115081  0.000138841    -0.892429 
         750      0.90317  -0.00114614  0.000143331    -0.892429 
         750     0.932551  -0.00114005  0.000147877    -0.892429 
         750     0.962401  -0.00113253  0.000152477    -0.892429 
         750     0.992697  -0.00112361  0.000157129    -0.892429 
         750      1.02349  -0.00111326  0.000161842    -0.892429 
         750      1.05472  -0.00110153   0.00016661    -0.892429 
         750      1.08645  -0.00108842   0.00017144     -0.89243 
         750      1.11863  -0.00107398  0.000176325     -0.89243 
         750       1.1513  -0.00105824  0.000181273     -0.89243 
         750      1.18444  -0.00104127  0.000186278     -0.89243 
         750      1.21802  -0.00102316  0.000191333     -0.89243 
         750      1.25211  -0.00100399  0.000196445     -0.89243 
         750      1.28663 -0.000983901    0.0002016     -0.89243 
         750      1.32165  -0.00096299    0.0002068     -0.89243 
         750      1.35712 -0.000941435  0.000212027     -0.89243 
         750      1.39308 -0.000919348  0.000217279    -0.892429 
         750      1.42951 -0.000896893  0.000222537    -0.892429 
         750      1.46638 -0.000874221   0.00022778    -0.892429 
         750      1.50375   -0.0008514  0.000232994    -0.892429 
         750      1.54156 -0.000828022  0.000238263    -0.892429 
         750      1.57987 -0.000805184  0.000243503    -0.892429 
         750      1.61863 -0.000782911  0.000248694    -0.892429 
         750      1.65788 -0.000761093   0.00025384    -0.892429 
         750      1.69757 -0.000739694  0.000258927    -0.892428 
         750      1.73776  -0.00071861  0.000263962    -0.892428 
         750      1.77842  -0.00069779  0.000268935    -0.892428 
         750      1.81952  -0.00067719  0.000273837    -0.892428 
         750      1.86113 -0.000656715  0.000278673    -0.892427 
         750      1.90316 -0.000636343  0.000283429    -0.892427 
         750      1.94571  -0.00061599  0.000288109    -0.892426 
         750      1.98869 -0.000595641  0.000292701    -0.892426 
         750      2.03217 -0.000575222  0.000297206    -0.892426 
         750      2.07612 -0.000554713  0.000301617    -0.892425 
         750      2.12051 -0.000534098  0.000305925    -0.892424 
         750       2.1654 -0.000513317  0.000310132    -0.892424 
         750      2.21073 -0.000492384  0.000314226    -0.892423 
         750      2.25656 -0.000471249   0.00031821    -0.892423 
         750      2.30283 -0.000449936  0.000322072    -0.892422 
         750       2.3496 -0.000428408  0.000325813    -0.892421 
         750      2.39685 -0.000406682  0.000329426     -0.89242 
         750      2.44452 -0.000384783  0.000332903    -0.892419 
         750      2.49271 -0.000362689  0.000336247    -0.892419 
         750      2.54132 -0.000340451  0.000339446    -0.892418 
         750      2.59044 -0.000318055  0.000342503    -0.892417 
         750         2.64 -0.000295563  0.000345409    -0.892416 
         750      2.69006  -0.00027297  0.000348165    -0.892415 
         750      2.74056 -0.000250345  0.000350762    -0.892413 
         750      2.79156 -0.000227691  0.000353203    -0.892412 
         750      2.84304 -0.000205064  0.000355482    -0.892411 
         750      2.89494 -0.000182525  0.000357595     -0.89241 
         750      2.94735 -0.000160082  0.000359543    -0.892409 
         750       3.0002 -0.000137815  0.000361321    -0.892407 
         750      3.05355 -0.000115734   0.00036293    -0.892406 
         750      3.10733 -9.39195e-05  0.000364364    -0.892404 
         750      3.16163 -7.23809e-05  0.000365626    -0.892403 
         750      3.21639 -5.11785e-05  0.000366712    -0.892401 
         750      3.27158 -3.03693e-05  0.000367621      -0.8924 
         750      3.32729 -9.95767e-06  0.000368351    -0.892398 
         750      3.38342  9.98994e-06  0.000368901    -0.892397 
         750      3.44007  2.94748e-05  0.000369269    -0.892395 
         750      3.49714  4.84411e-05  0.000369453    -0.892393 
         750      3.55472  6.68986e-05  0.000369451    -0.892392 
         750      3.61273  8.48042e-05  0.000369258     -0.89239 
         750      3.67125  0.000102177  0.000368872    -0.892388 
         750      3.73025  0.000119002  0.000368285    -0.892386 
         750      3.78967  0.000135358  0.000367681    -0.892384 
         750      3.84961  0.000151017  0.000366959    -0.892382 
         750      3.90996   0.00016587  0.000366039    -0.892381 
         750      3.97084  0.000179946  0.000364932    -0.892379 
         750      4.03214   0.00019323  0.000363652    -0.892377 
         750      4.09395  0.000205749  0.000362207    -0.892375 
         750      4.15624  0.000217502   0.00036061    -0.892373 
         750      4.21895  0.000228489  0.000358873    -0.892371 
         750      4.28217   0.00023874  0.000357003    -0.892369 
         750      4.34582   0.00024825  0.000355012    -0.892367 
         750      4.40998  0.000257049  0.000352905    -0.892365 
         750      4.47457  0.000265136  0.000350695    -0.892363 
         750      4.53968   0.00027254  0.000348384    -0.892361 
         750      4.60525  0.000279272  0.000345984    -0.892359 
         750      4.67125  0.000285346  0.000343501    -0.892357 
         750      4.73777  0.000290789  0.000340939    -0.892354 
         750       4.8047  0.000295614  0.000338308    -0.892352 
         750      4.87216  0.000299849  0.000335609     -0.89235 
         750      4.94003  0.000303508  0.000332851    -0.892348 
         750      5.00843  0.000306621  0.000330035    -0.892346 
         750      5.07724  0.000309206   0.00032717    -0.892344 
         750      5.14658  0.000311291  0.000324256    -0.892342 
         750      5.21639  0.000312899  0.000321299     -0.89234 
         750      5.28661  0.000314053  0.000318304    -0.892338 
         750      5.35736  0.000314781  0.000315272    -0.892336 
         750      5.42852  0.000315108   0.00031221    -0.892334 
         750      5.50021   0.00031506  0.000309117    -0.892332 
         750      5.57231  0.000314663  0.000306001     -0.89233 
         750      5.64493  0.000313943   0.00030286    -0.892329 
         750      5.71803  0.000312926    0.0002997    -0.892327 
         750      5.79154  0.000311639  0.000296527    -0.892325 
         750      5.86558  0.000310104  0.000293339    -0.892323 
         750      5.94003   0.00030835  0.000290145    -0.892321 
         750      6.01501  0.000306396  0.000286942    -0.892319 
         750       6.0904  0.000304269   0.00028374    -0.892317 
         750      6.16632  0.000301987  0.000280536    -0.892316 
         750      6.24271  0.000299573  0.000277336    -0.892314 
         750       6.3195  0.000297049  0.000274147    -0.892312 
         750      6.39683  0.000294382  0.000270985     -0.89231 
         750      6.47457  0.000291633  0.000267839    -0.892309 
         750      6.55284  0.000288826  0.000264697    -0.892307 
         750      6.63152   0.00028598  0.000261565    -0.892305 
         750      6.71073    0.0002831  0.000258439    -0.892304 
         750      6.79034  0.000280198  0.000255322    -0.892302 
         750      6.87049  0.000277277  0.000252211      -0.8923 
         750      6.95111  0.000274343  0.000249108    -0.892299 
         750      7.03214  0.000271399  0.000246014    -0.892297 
         750       7.1137   0.00026844  0.000242926    -0.892296 
         750      7.19566  0.000265467  0.000239847    -0.892294 
         750      7.27816   0.00026247  0.000236773    -0.892293 
         750      7.36106  0.000259444  0.000233708    -0.892291 
         750      7.44451  0.000256374  0.000230647     -0.89229 
         750      7.52842  0.000253246  0.000227594    -0.892288 
         750      7.61273  0.000250047  0.000224549    -0.892287 
         750      7.69758  0.000247043  0.000221658    -0.892286 
         750      7.78283  0.000244097    0.0002188    -0.892284 
         750      7.86862  0.000241144  0.000215932    -0.892283 
         750      7.95481  0.000238199  0.000213065    -0.892282 
         750      8.04155  0.000235265  0.000210202    -0.892281 
         750      8.12868  0.000232355  0.000207353    -0.892279 
         750      8.21635  0.000229471  0.000204521    -0.892278 
         750      8.30449  0.000226622  0.000201712    -0.892277 
         750      8.39303  0.000223813  0.000198934    -0.892276 
         750      8.48211  0.000221044  0.000196188    -0.892275 
         750      8.57159  0.000218321  0.000193481    -0.892274 
         750      8.66161  0.000215641  0.000190812    -0.892273 
         750      8.75203  0.000213009  0.000188188    -0.892272 
         750      8.84299   0.00021038  0.000185569    -0.892271 
         750      8.93443  0.000207694  0.000182887     -0.89227 
         750      9.02626   0.00020508  0.000180263    -0.892269 
         750      9.11863  0.000202522  0.000177686    -0.892268 
         750      9.21139  0.000200012  0.000175156    -0.892267 
         750      9.30471  0.000197536  0.000172661    -0.892266 
         750      9.39841  0.000195088  0.000170202    -0.892265 
         750      9.49267   0.00019266   0.00016777    -0.892264 
         750      9.58739  0.000190246  0.000165361    -0.892264 
         750      9.68251  0.000187848  0.000162975    -0.892263 
         750      9.77817  0.000185459  0.000160604    -0.892262 
         750      9.87422  0.000183085   0.00015825    -0.892261 
         750      9.97083  0.000180725  0.000155908    -0.892261 
         750      10.0678  0.000178386   0.00015358     -0.89226 
         750      10.1654  0.000176071  0.000151264    -0.892259 
         750      10.2633  0.000173787  0.000148962    -0.892259 
         750      10.3618  0.000171537  0.000146674    -0.892258 
         750      10.4607  0.000169328  0.000144403    -0.892258 
         750      10.5601  0.000167164  0.000142153    -0.892257 
         750        10.66  0.000165042  0.000139925    -0.892257 
         750      10.7603  0.000162962  0.000137726    -0.892256 
         750      10.8611  0.000160913  0.000135555    -0.892256 
         750      10.9623  0.000158881   0.00013342    -0.892256 
         750      11.0641  0.000156839   0.00013132    -0.892255 
         750      11.1663  0.000154756   0.00012926    -0.892255 
         750       11.269  0.000152586  0.000127243    -0.892255 
         750      11.3721  0.000150458  0.000125253    -0.892254 
         750      11.4757  0.000148683  0.000123254    -0.892254 
         750      11.5798  0.000146852  0.000121266    -0.892254 
         750      11.6844  0.000144988  0.000119293    -0.892254 
         750      11.7894  0.000143105  0.000117337    -0.892254 
         750       11.895  0.000141219  0.000115401    -0.892254 
         750      12.0009  0.000139342  0.000113489    -0.892253 
         750      12.1073  0.000137482    0.0001116    -0.892253 
         750      12.2142   0.00013565  0.000109739    -0.892253 
         750      12.3216  0.000133846  0.000107903    -0.892253 
         750      12.4294  0.000132079  0.000106096    -0.892254 
         750      12.5378  0.000130346  0.000104313    -0.892254 
         750      12.6465  0.000128652  0.000102558    -0.892254 
         750      12.7558  0.000126992  0.000100825    -0.892254 
         750      12.8656  0.000125367  9.91158e-05    -0.892254 
         750      12.9757  0.000123772  9.74292e-05    -0.892254 
         750      13.0864  0.000122202  9.57613e-05    -0.892254 
         750      13.1975  0.000120654   9.4114e-05    -0.892255 
         750      13.3092  0.000119119  9.24848e-05    -0.892255 
         750      13.4212  0.000117592  9.08776e-05    -0.892255 
         750      13.5338  0.000116064  8.92929e-05    -0.892256 
         750      13.6468  0.000114527  8.77373e-05    -0.892256 
         750      13.7603  0.000113026  8.60696e-05    -0.892256 
         750      13.8743  0.000111556  8.44165e-05    -0.892257 
         750      13.9886   0.00011012  8.28049e-05    -0.892257 
         750      14.1036   0.00010872  8.12331e-05    -0.892258 
         750      14.2189  0.000107359  7.97045e-05    -0.892258 
         750      14.3348  0.000106034  7.82175e-05    -0.892259 
         750       14.451  0.000104742  7.67753e-05    -0.892259 
         750      14.5678  0.000103479  7.53758e-05     -0.89226 
         750      14.6851  0.000102239  7.40193e-05    -0.892261 
         750      14.8028  0.000101019   7.2705e-05    -0.892261 
         750       14.921  9.98137e-05  7.14272e-05    -0.892262 
         750      15.0396   9.8625e-05  7.01822e-05    -0.892263 
         750      15.1588  9.74545e-05  6.89594e-05    -0.892264 
         750      15.2783  9.63133e-05  6.77487e-05    -0.892264 
         750      15.3984  9.52167e-05  6.65319e-05    -0.892265 
         750       15.519  9.41923e-05  6.52887e-05    -0.892266 
         750        15.64   9.3264e-05  6.40045e-05    -0.892267 
         750      15.7615  9.19698e-05      6.3e-05    -0.892268 
         750      15.8834  9.07222e-05  6.19586e-05    -0.892269 
         750      16.0058  8.95155e-05  6.08882e-05     -0.89227 
         750      16.1286  8.83485e-05  5.97983e-05    -0.892271 
         750       16.252  8.72162e-05  5.86946e-05    -0.892272 
         750      16.3759  8.61168e-05  5.75839e-05    -0.892273 
         750      16.5002  8.50488e-05  5.64723e-05    -0.892274 
         750       16.625   8.4008e-05  5.53626e-05    -0.892275 
         750      16.7501  8.29942e-05  5.42602e-05    -0.892276 
         750      16.8759  8.20039e-05  5.31663e-05    -0.892277 
         750       17.002  8.10371e-05   5.2085e-05    -0.892279 
         750      17.1287  8.00909e-05  5.10165e-05     -0.89228 
         750      17.2557  7.91655e-05   4.9964e-05    -0.892281 
         750      17.3834  7.82585e-05  4.89267e-05    -0.892283 
         750      17.5115  7.73697e-05  4.79064e-05    -0.892284 
         750      17.6399  7.64991e-05  4.69042e-05    -0.892285 
         750       17.769  7.56447e-05  4.59192e-05    -0.892287 
         750      17.8984  7.48074e-05  4.49531e-05    -0.892288 
         750      18.0284  7.39856e-05  4.40047e-05     -0.89229 
         750      18.1587  7.31803e-05  4.30761e-05    -0.892291 
         750      18.2896    7.239e-05  4.21663e-05    -0.892293 
         750       18.421  7.16153e-05  4.12769e-05    -0.892294 
         750      18.5528  7.08568e-05  4.04096e-05    -0.892296 
         750      18.6851  7.01134e-05  3.95646e-05    -0.892297 
         750      18.8178  6.93862e-05   3.8745e-05    -0.892299 
         750      18.9511  6.86742e-05  3.79518e-05    -0.892301 
         750      19.0847  6.79766e-05  3.71577e-05    -0.892303 
         750      19.2189  6.72879e-05  3.63307e-05    -0.892304 
         750      19.3535  6.66101e-05  3.55282e-05    -0.892306 
         750      19.4886  6.59407e-05  3.47478e-05    -0.892308 
         750      19.6242  6.52792e-05   3.3989e-05     -0.89231 
         750      19.7602  6.46254e-05  3.32516e-05    -0.892312 
         750      19.8968  6.39777e-05  3.25334e-05    -0.892314 
         750      20.0337  6.33373e-05  3.18348e-05    -0.892315 
         750      20.1712  6.27033e-05  3.11541e-05    -0.892317 
         750      20.3091  6.20775e-05  3.04917e-05    -0.892319 
         750      20.4475  6.14598e-05  2.98463e-05    -0.892322 
         750      20.5864  6.08519e-05  2.92179e-05    -0.892324 
         750      20.7257  6.02558e-05   2.8607e-05    -0.892326 
         750      20.8655   5.9672e-05  2.80124e-05    -0.892328 
         750      21.0058  5.91029e-05   2.7435e-05     -0.89233 
         750      21.1465  5.85491e-05  2.68739e-05    -0.892332 
         750      21.2877  5.80126e-05  2.63301e-05    -0.892334 
         750      21.4294  5.74932e-05  2.58028e-05    -0.892337 
         750      21.5716  5.69917e-05  2.52923e-05    -0.892339 
         750      21.7142  5.65077e-05   2.4799e-05    -0.892341 
         750      21.8573  5.60389e-05  2.43217e-05    -0.892344 
         750      22.0008  5.55829e-05  2.38608e-05    -0.892346 
         750      22.1449  5.51345e-05  2.34148e-05    -0.892349 
         750      22.2893   5.4688e-05  2.29831e-05    -0.892351 
         750      22.4344   5.4234e-05  2.25634e-05    -0.892354 
         750      22.5797   5.3777e-05  2.21406e-05    -0.892356 
         750      22.7257     5.34e-05  2.16377e-05    -0.892359 
         750      22.8721  5.30172e-05  2.11439e-05    -0.892361 
         750      23.0189  5.26311e-05  2.06589e-05    -0.892364 
         750      23.1663   5.2243e-05  2.01813e-05    -0.892367 
         750       23.314   5.1855e-05  1.97112e-05    -0.892369 
         750      23.4623  5.14675e-05  1.92475e-05    -0.892372 
         750       23.611  5.10817e-05  1.87906e-05    -0.892375 
         750      23.7602  5.06974e-05  1.83393e-05    -0.892378 
         750        23.91  5.03148e-05  1.78939e-05    -0.892381 
         750        24.06   4.9934e-05  1.74546e-05    -0.892383 
         750      24.2107   4.9554e-05  1.70207e-05    -0.892386 
         750      24.3617  4.91746e-05  1.65931e-05    -0.892389 
         750      24.5133  4.87945e-05  1.61712e-05    -0.892392 
         750      24.6653  4.84133e-05  1.57562e-05    -0.892395 
         750      24.8178  4.80295e-05  1.53479e-05    -0.892398 
         750      24.9708  4.76423e-05  1.49471e-05    -0.892401 
         750      25.1242   4.7251e-05  1.45548e-05    -0.892404 
         750      25.2781  4.68541e-05  1.41714e-05    -0.892408 
         750      25.4324  4.64513e-05  1.37983e-05    -0.892411 
         750      25.5873  4.61729e-05  1.34224e-05    -0.892414 
         750      25.7426  4.60197e-05  1.30576e-05    -0.892417 
         750      25.8984   4.5857e-05  1.27181e-05    -0.892421 
         750      26.0546  4.56851e-05  1.24004e-05    -0.892424 
         750      26.2114  4.55038e-05  1.21004e-05    -0.892427 
         750      26.3686  4.53136e-05  1.18152e-05    -0.892431 
         750      26.5262  4.51153e-05  1.15421e-05    -0.892434 
         750      26.6844  4.49094e-05  1.12783e-05    -0.892438 
         750      26.8429  4.46969e-05  1.10222e-05    -0.892441 
         750       27.002  4.44786e-05  1.07717e-05    -0.892445 
         750      27.1615  4.42559e-05   1.0526e-05    -0.892448 
         750      27.3216  4.40297e-05  1.02839e-05    -0.892452 
         750      27.4821  4.38015e-05  1.00449e-05    -0.892456 
         750       27.643  4.35727e-05  9.80909e-06     -0.89246 
         750      27.8044  4.33444e-05  9.57612e-06    -0.892463 
         750      27.9663  4.31182e-05  9.34671e-06    -0.892467 
         750      28.1287  4.28952e-05  9.12106e-06    -0.892471 
         750      28.2914   4.2677e-05  8.90024e-06    -0.892475 
         750      28.4548  4.24643e-05  8.68474e-06    -0.892479 
         750      28.6185  4.22587e-05  8.47579e-06    -0.892483 
         750      28.7828  4.20608e-05  8.27394e-06    -0.892486 
         750      28.9475  4.18715e-05  8.08011e-06     -0.89249 
         750      29.1126  4.16914e-05  7.89506e-06    -0.892495 
         750      29.2784  4.15207e-05  7.71882e-06    -0.892499 
         750      29.4444  4.13596e-05   7.5516e-06    -0.892503 
         750       29.611  4.12075e-05   7.3926e-06    -0.892507 
         750       29.778  4.10641e-05  7.24092e-06    -0.892511 
         750      29.9456   4.0928e-05  7.09443e-06    -0.892515 
         750      30.1137  4.07978e-05  6.95049e-06     -0.89252 
         750      30.2821  4.06717e-05  6.80541e-06    -0.892524 
         750      30.4511  4.05468e-05  6.65395e-06    -0.892528 
         750      30.6204  4.04202e-05  6.49002e-06    -0.892533 
         750      30.7903   4.0288e-05   6.3054e-06    -0.892537 
         750      30.9606  4.01457e-05  6.09075e-06    -0.892542 
         750      31.1315  3.99831e-05  5.95917e-06    -0.892546 
         750      31.3028  3.98255e-05  5.86709e-06    -0.892551 
         750      31.4745  3.96794e-05  5.75635e-06    -0.892555 
         750      31.6468  3.95433e-05  5.63071e-06     -0.89256 
         750      31.8194   3.9416e-05  5.49392e-06    -0.892565 
         750      31.9926  3.92962e-05  5.34889e-06     -0.89257 
         750      32.1662  3.91831e-05  5.19859e-06    -0.892574 
         750      32.3404  3.90757e-05  5.04517e-06    -0.892579 
         750      32.5149  3.89734e-05  4.89093e-06    -0.892584 
         750        32.69  3.88756e-05  4.73734e-06    -0.892589 
         750      32.8655  3.87818e-05  4.58594e-06    -0.892594 
         750      33.0414  3.86916e-05  4.43798e-06    -0.892599 
         750       33.218  3.86047e-05  4.29408e-06    -0.892604 
         750      33.3948  3.85208e-05  4.15511e-06    -0.892609 
         750      33.5723  3.84397e-05  4.02124e-06    -0.892614 
         750        33.75  3.83612e-05  3.89287e-06    -0.892619 
         750      33.9284  3.82851e-05  3.76981e-06    -0.892625 
         750      34.1073  3.82113e-05  3.65201e-06     -0.89263 
         750      34.2865  3.81397e-05  3.53926e-06    -0.892635 
         750      34.4663  3.80701e-05  3.43095e-06    -0.892641 
         750      34.6465  3.80024e-05  3.32672e-06    -0.892646 
         750      34.8272  3.79364e-05  3.22581e-06    -0.892651 
         750      35.0083   3.7872e-05  3.12769e-06    -0.892657 
         750        35.19  3.78088e-05  3.03149e-06    -0.892662 
         750      35.3721  3.77467e-05  2.93652e-06    -0.892668 
         750      35.5546  3.76855e-05  2.84211e-06    -0.892674 
         750      35.7377  3.76247e-05  2.74737e-06    -0.892679 
         750      35.9211  3.75641e-05  2.65171e-06    -0.892685 
         750      36.1052  3.75033e-05  2.55431e-06    -0.892691 
         750      36.2895  3.74418e-05  2.45471e-06    -0.892697 
         750      36.4745  3.73792e-05  2.35223e-06    -0.892702 
         750      36.6598  3.73152e-05  2.24657e-06    -0.892708 
         750      36.8457  3.72491e-05  2.13724e-06    -0.892714 
         750      37.0321  3.71805e-05   2.0241e-06     -0.89272 
         750      37.2188  3.71091e-05  1.90718e-06    -0.892726 
         750      37.4062  3.70342e-05  1.78636e-06    -0.892733 
         750      37.5938  3.69557e-05  1.66207e-06    -0.892739 
         750      37.7821   3.6873e-05  1.53451e-06    -0.892745 
         750      37.9707  3.67861e-05  1.40446e-06    -0.892751 
         750      38.1599  3.66945e-05   1.2725e-06    -0.892757 
         750      38.3496  3.65983e-05  1.13968e-06    -0.892764 
         750      38.5396  3.64977e-05  1.00728e-06     -0.89277 
         750      38.7302  3.64104e-05  9.09676e-07    -0.892777 
         750      38.9211  3.64066e-05  9.76226e-07    -0.892783 
         750      39.1127     3.64e-05  1.03936e-06     -0.89279 
         750      39.3046  3.63915e-05   1.0962e-06    -0.892796 
         750      39.4971  3.63819e-05  1.14377e-06    -0.892803 
         750      39.6899  3.63715e-05  1.17874e-06     -0.89281 
         750      39.8833  3.63606e-05  1.19763e-06    -0.892816 
         750      40.0772   3.6349e-05  1.19669e-06    -0.892823 
         750      40.2714  3.63363e-05  1.17199e-06     -0.89283 
         750      40.4663  3.63213e-05  1.11935e-06    -0.892837 
         750      40.6615  3.63028e-05  1.03453e-06    -0.892844 
         750      40.8573  3.62785e-05   9.1291e-07    -0.892851 
         750      41.0534  3.62457e-05  7.50066e-07    -0.892858 
         750      41.2501  3.62274e-05  6.87589e-07    -0.892865 
         750      41.4473  3.62295e-05  7.70016e-07    -0.892873 
         750      41.6448  3.62228e-05  8.29605e-07     -0.89288 
         750      41.8429  3.62086e-05  8.65298e-07    -0.892887 
         750      42.0414  3.61879e-05  8.76184e-07    -0.892894 
         750      42.2405  3.61615e-05  8.61697e-07    -0.892902 
         750      42.4399  3.61299e-05  8.21536e-07    -0.892909 
         750      42.6399  3.60933e-05  7.55546e-07    -0.892917 
         750      42.8404  3.60522e-05   6.6388e-07    -0.892925 
         750      43.0412  3.60066e-05  5.46969e-07    -0.892932 
         750      43.2426  3.59567e-05  4.05136e-07     -0.89294 
         750      43.4444  3.59073e-05  3.07849e-07    -0.892948 
         750      43.6467  3.58757e-05  3.21063e-07    -0.892955 
         750      43.8494  3.58579e-05  3.29789e-07    -0.892963 
         750      44.0527  3.58514e-05  3.34097e-07    -0.892971 
         750      44.2563  3.58539e-05  3.34042e-07    -0.892979 
         750      44.4606  3.58631e-05  3.29703e-07    -0.892987 
         750      44.6653  3.58771e-05  3.21179e-07    -0.892996 
         750      44.8704  3.58937e-05   3.0861e-07    -0.893004 
         750       45.076  3.59115e-05  2.92136e-07    -0.893012 
         750       45.282  3.59287e-05  2.71984e-07     -0.89302 
         750      45.4886  3.59442e-05   2.4836e-07    -0.893029 
         750      45.6955  3.59569e-05  2.21583e-07    -0.893037 
         750       45.903  3.59658e-05  1.91936e-07    -0.893046 
         750      46.1111  3.59703e-05   1.5981e-07    -0.893054 
         750      46.3194  3.59702e-05  1.25651e-07    -0.893063 
         750      46.5283  3.59651e-05  8.98604e-08    -0.893071 
         750      46.7376  3.59551e-05  5.29944e-08     -0.89308 
         750      46.9475  3.59406e-05  1.55281e-08    -0.893089 
         750      47.1577   3.5922e-05 -2.19134e-08    -0.893098 
         750      47.3685     3.59e-05 -5.87996e-08    -0.893107 
         750      47.5798  3.58753e-05  -9.4493e-08    -0.893116 
         750      47.7914  3.58489e-05 -1.28352e-07    -0.893125 
         750      48.0037  3.58219e-05 -1.59819e-07    -0.893134 