Variables = x, y, u, v, p

Zone, I=800, F=POINT
         300            0            0            0      18.5828 
         300     0.000234  3.65748e-06  6.85478e-12      18.5828 
         300     0.000939  1.37226e-05   1.0983e-10      18.5828 
         300     0.002113   2.7562e-05  5.52977e-10      18.5828 
         300     0.003759  4.16577e-05  1.73669e-09      18.5828 
         300     0.005872  5.24606e-05  4.19676e-09      18.5828 
         300     0.008457  5.75127e-05  8.60224e-09      18.5828 
         300      0.01151  5.60451e-05  1.57124e-08      18.5828 
         300     0.015036    4.922e-05  2.63837e-08      18.5828 
         300     0.019031  3.97012e-05  4.15002e-08      18.5828 
         300     0.023493  3.06473e-05  6.19648e-08      18.5828 
         300     0.028429  2.44091e-05  8.87173e-08      18.5828 
         300     0.033831  2.14664e-05  1.22583e-07      18.5828 
         300     0.039706  2.00303e-05  1.64409e-07      18.5828 
         300     0.046047  1.69357e-05  2.14856e-07      18.5828 
         300     0.052863  9.78921e-06  2.74596e-07      18.5828 
         300      0.06015 -3.59888e-07  3.44067e-07      18.5828 
         300       0.0679 -8.23681e-06  4.23508e-07      18.5828 
         300     0.076126 -1.03074e-05   5.1321e-07      18.5828 
         300     0.084816 -2.08375e-05  6.13039e-07      18.5828 
         300     0.093982 -2.74477e-05     7.23e-07      18.5828 
         300     0.103611 -3.48415e-05  8.42626e-07      18.5828 
         300     0.113718  -4.2688e-05   9.7164e-07      18.5828 
         300     0.124286 -5.07138e-05  1.10925e-06      18.5828 
         300     0.135333 -5.87659e-05    1.255e-06      18.5828 
         300      0.14685 -6.67592e-05  1.40802e-06      18.5828 
         300     0.158827 -7.46769e-05  1.56735e-06      18.5828 
         300     0.171284 -8.25552e-05  1.73238e-06      18.5828 
         300     0.184201 -9.03956e-05  1.90197e-06      18.5828 
         300     0.197599 -9.81798e-05  2.07549e-06      18.5828 
         300     0.211455 -0.000105807  2.25176e-06      18.5828 
         300     0.225792 -0.000113191  2.43028e-06      18.5828 
         300       0.2406 -0.000120348  2.61023e-06      18.5828 
         300     0.255865  -0.00012747  2.79095e-06      18.5828 
         300     0.271613 -0.000134294  2.97172e-06      18.5828 
         300     0.287818 -0.000140918  3.15178e-06      18.5828 
         300     0.304506 -0.000147348  3.33126e-06      18.5828 
         300      0.32165 -0.000153571  3.50965e-06      18.5828 
         300     0.339278   -0.0001596  3.68707e-06      18.5828 
         300     0.357377 -0.000165434  3.86325e-06      18.5828 
         300      0.37593 -0.000171074  4.03795e-06      18.5828 
         300     0.394968 -0.000176537  4.21147e-06      18.5828 
         300     0.414461 -0.000181822  4.38369e-06      18.5828 
         300      0.43444 -0.000186946  4.55515e-06      18.5828 
         300     0.454872 -0.000191904  4.72604e-06      18.5828 
         300     0.475791  -0.00019671  4.89727e-06      18.5828 
         300     0.497163 -0.000201355  5.06936e-06      18.5828 
         300     0.519021 -0.000205845  5.24348e-06      18.5828 
         300      0.54135 -0.000210167  5.42048e-06      18.5828 
         300     0.564131 -0.000214309  5.60104e-06      18.5828 
         300       0.5874 -0.000218265  5.78605e-06      18.5828 
         300     0.611121 -0.000222011  5.97523e-06      18.5828 
         300      0.63533 -0.000225506  6.17293e-06      18.5828 
         300      0.65999  -0.00022877  6.38232e-06      18.5828 
         300     0.685139 -0.000231758  6.60463e-06      18.5828 
         300     0.710759 -0.000234421  6.84099e-06      18.5828 
         300     0.736828 -0.000236708  7.09277e-06      18.5828 
         300     0.763387 -0.000238576  7.36224e-06      18.5828 
         300     0.790396  -0.00023998  7.65107e-06      18.5828 
         300     0.817896 -0.000240881  7.96189e-06      18.5828 
         300     0.845843 -0.000241241  8.29645e-06      18.5828 
         300     0.874283  -0.00024103  8.65751e-06      18.5828 
         300      0.90317 -0.000240224  9.04652e-06      18.5828 
         300     0.932551 -0.000238804  9.46591e-06      18.5828 
         300     0.962401 -0.000236761  9.91678e-06      18.5828 
         300     0.992697 -0.000234097  1.03997e-05      18.5828 
         300      1.02349 -0.000230816  1.09158e-05      18.5828 
         300      1.05472 -0.000226942   1.1464e-05      18.5828 
         300      1.08645 -0.000222498  1.20442e-05      18.5828 
         300      1.11863  -0.00021753  1.26538e-05      18.5828 
         300       1.1513 -0.000212077  1.32914e-05      18.5828 
         300      1.18444 -0.000206201  1.39534e-05      18.5828 
         300      1.21802 -0.000199971  1.46357e-05      18.5828 
         300      1.25211 -0.000193447  1.53356e-05      18.5828 
         300      1.28663  -0.00018671   1.6048e-05      18.5828 
         300      1.32165 -0.000179821  1.67709e-05      18.5828 
         300      1.35712 -0.000172856  1.75006e-05      18.5828 
         300      1.39308 -0.000165858  1.82379e-05      18.5828 
         300      1.42951 -0.000158866  1.89842e-05      18.5828 
         300      1.46638 -0.000151895  1.97447e-05      18.5828 
         300      1.50375 -0.000144905  2.05318e-05      18.5828 
         300      1.54156 -0.000137971  2.12606e-05      18.5828 
         300      1.57987 -0.000131043  2.19809e-05      18.5828 
         300      1.61863 -0.000124115  2.26965e-05      18.5828 
         300      1.65788 -0.000117167  2.34077e-05      18.5828 
         300      1.69757   -0.0001102  2.41123e-05      18.5828 
         300      1.73776 -0.000103196  2.48105e-05      18.5828 
         300      1.77842 -9.61577e-05  2.55007e-05      18.5828 
         300      1.81952 -8.90867e-05  2.61812e-05      18.5828 
         300      1.86113 -8.19707e-05  2.68522e-05      18.5828 
         300      1.90316 -7.48223e-05  2.75114e-05      18.5828 
         300      1.94571 -6.76325e-05  2.81589e-05      18.5828 
         300      1.98869 -6.04175e-05  2.87923e-05      18.5828 
         300      2.03217 -5.31718e-05  2.94118e-05      18.5828 
         300      2.07612  -4.5909e-05  3.00157e-05      18.5828 
         300      2.12051 -3.86441e-05  3.06026e-05      18.5828 
         300       2.1654 -3.13762e-05  3.11723e-05      18.5828 
         300      2.21073 -2.41285e-05  3.17232e-05      18.5828 
         300      2.25656 -1.69023e-05  3.22552e-05      18.5828 
         300      2.30283  -9.7225e-06  3.27668e-05      18.5828 
         300       2.3496 -2.59217e-06   3.3258e-05      18.5828 
         300      2.39685  4.46861e-06  3.37278e-05      18.5828 
         300      2.44452  1.14394e-05  3.41756e-05      18.5828 
         300      2.49271  1.83163e-05  3.46017e-05      18.5828 
         300      2.54132  2.50743e-05  3.50051e-05      18.5828 
         300      2.59044  3.17101e-05  3.53865e-05      18.5828 
         300         2.64  3.81997e-05  3.57454e-05      18.5828 
         300      2.69006  4.45412e-05  3.60826e-05      18.5828 
         300      2.74056  5.07134e-05  3.63978e-05      18.5828 
         300      2.79156  5.67161e-05  3.66922e-05      18.5828 
         300      2.84304  6.25359e-05  3.69662e-05      18.5828 
         300      2.89494  6.81617e-05  3.72204e-05      18.5828 
         300      2.94735  7.35972e-05   3.7456e-05      18.5828 
         300       3.0002  7.88301e-05  3.76739e-05      18.5828 
         300      3.05355  8.38669e-05  3.78754e-05      18.5828 
         300      3.10733  8.86991e-05  3.80614e-05      18.5828 
         300      3.16163  9.33352e-05  3.82334e-05      18.5828 
         300      3.21639  9.77732e-05  3.83924e-05      18.5828 
         300      3.27158  0.000102012  3.85395e-05      18.5828 
         300      3.32729  0.000106061  3.86758e-05      18.5828 
         300      3.38342  0.000109916  3.88018e-05      18.5828 
         300      3.44007  0.000113583  3.89185e-05      18.5828 
         300      3.49714  0.000117055  3.90255e-05      18.5828 
         300      3.55472   0.00012033  3.91229e-05      18.5828 
         300      3.61273  0.000123395  3.92095e-05      18.5828 
         300      3.67125  0.000126235  3.92839e-05      18.5828 
         300      3.73025  0.000128823  3.93434e-05      18.5828 
         300      3.78967  0.000131278   3.9467e-05      18.5828 
         300      3.84961  0.000133573  3.95942e-05      18.5828 
         300      3.90996  0.000135635  3.96903e-05      18.5828 
         300      3.97084  0.000137466  3.97625e-05      18.5828 
         300      4.03214  0.000139059  3.98128e-05      18.5828 
         300      4.09395  0.000140415  3.98402e-05      18.5828 
         300      4.15624  0.000141532  3.98408e-05      18.5828 
         300      4.21895   0.00014241  3.98084e-05      18.5828 
         300      4.28217  0.000143051  3.97352e-05      18.5828 
         300      4.34582  0.000143461  3.96118e-05      18.5828 
         300      4.40998  0.000143648  3.94262e-05      18.5828 
         300      4.47457   0.00014358   3.9188e-05      18.5828 
         300      4.53968  0.000143285  3.88859e-05      18.5828 
         300      4.60525  0.000142787  3.85189e-05      18.5828 
         300      4.67125  0.000142107  3.80902e-05      18.5828 
         300      4.73777  0.000141265  3.76029e-05      18.5828 
         300       4.8047  0.000140285  3.70624e-05      18.5828 
         300      4.87216  0.000139189  3.64731e-05      18.5828 
         300      4.94003  0.000138001  3.58416e-05      18.5828 
         300      5.00843  0.000136741  3.51733e-05      18.5828 
         300      5.07724  0.000135431   3.4476e-05      18.5828 
         300      5.14658  0.000134087  3.37556e-05      18.5828 
         300      5.21639  0.000132724  3.30203e-05      18.5828 
         300      5.28661  0.000131351  3.22786e-05      18.5828 
         300      5.35736  0.000129972  3.15382e-05      18.5828 
         300      5.42852  0.000128586  3.08094e-05      18.5828 
         300      5.50021  0.000127207  3.00792e-05      18.5828 
         300      5.57231   0.00012584  2.93232e-05      18.5828 
         300      5.64493  0.000124466  2.85879e-05      18.5828 
         300      5.71803  0.000123125  2.78749e-05      18.5828 
         300      5.79154  0.000121838  2.71828e-05      18.5828 
         300      5.86558  0.000120609  2.65072e-05      18.5828 
         300      5.94003  0.000119431   2.5846e-05      18.5828 
         300      6.01501  0.000118286  2.51961e-05      18.5828 
         300       6.0904  0.000117158  2.45583e-05      18.5828 
         300      6.16632  0.000116029  2.39329e-05      18.5828 
         300      6.24271    0.0001149  2.33232e-05      18.5828 
         300       6.3195  0.000113795  2.27327e-05      18.5828 
         300      6.39683  0.000112775  2.21617e-05      18.5828 
         300      6.47457   0.00011183  2.16126e-05      18.5828 
         300      6.55284  0.000110821  2.10756e-05      18.5828 
         300      6.63152  0.000109818   2.0545e-05      18.5828 
         300      6.71073  0.000108832  2.00212e-05      18.5828 
         300      6.79034  0.000107873  1.95065e-05      18.5828 
         300      6.87049  0.000106944   1.9002e-05      18.5828 
         300      6.95111  0.000106048    1.851e-05      18.5828 
         300      7.03214  0.000105185  1.80322e-05      18.5828 
         300       7.1137  0.000104351  1.75687e-05      18.5828 
         300      7.19566  0.000103544  1.71206e-05      18.5828 
         300      7.27816  0.000102756  1.66866e-05      18.5828 
         300      7.36106  0.000101984  1.62659e-05      18.5828 
         300      7.44451  0.000101222  1.58557e-05      18.5828 
         300      7.52842  0.000100465  1.54536e-05      18.5828 
         300      7.61273  9.97099e-05  1.50568e-05      18.5828 
         300      7.69758  9.89529e-05  1.46614e-05      18.5828 
         300      7.78283  9.81944e-05  1.42653e-05      18.5828 
         300      7.86862  9.74346e-05  1.38662e-05      18.5828 
         300      7.95481  9.66785e-05  1.34645e-05      18.5828 
         300      8.04155  9.59311e-05  1.30624e-05      18.5828 
         300      8.12868   9.5203e-05  1.26668e-05      18.5828 
         300      8.21635  9.45052e-05  1.22884e-05      18.5828 
         300      8.30449  9.38535e-05   1.1945e-05      18.5828 
         300      8.39303  9.32667e-05  1.16626e-05      18.5828 
         300      8.48211  9.27649e-05  1.14763e-05      18.5828 
         300      8.57159  9.23542e-05   1.1418e-05      18.5828 
         300      8.66161  9.15427e-05  1.09244e-05      18.5828 
         300      8.75203  9.09757e-05  1.02559e-05      18.5828 
         300      8.84299   9.0314e-05  9.91288e-06      18.5828 
         300      8.93443   8.9673e-05  9.68127e-06      18.5828 
         300      9.02626  8.90867e-05  9.46008e-06      18.5828 
         300      9.11863  8.85335e-05  9.24141e-06      18.5828 
         300      9.21139  8.79988e-05  9.02049e-06      18.5828 
         300      9.30471  8.74713e-05  8.79388e-06      18.5828 
         300      9.39841  8.69454e-05  8.56042e-06      18.5828 
         300      9.49267  8.64172e-05  8.31944e-06      18.5828 
         300      9.58739  8.58877e-05  8.07068e-06      18.5828 
         300      9.68251  8.53875e-05  7.78653e-06      18.5828 
         300      9.77817  8.48936e-05  7.48994e-06      18.5828 
         300      9.87422  8.44053e-05  7.19086e-06      18.5828 
         300      9.97083  8.39212e-05  6.89845e-06      18.5828 
         300      10.0678  8.34423e-05   6.6215e-06      18.5828 
         300      10.1654  8.29689e-05  6.36545e-06      18.5828 
         300      10.2633  8.25031e-05  6.13334e-06      18.5828 
         300      10.3618  8.20459e-05  5.92368e-06      18.5828 
         300      10.4607  8.15995e-05  5.73181e-06      18.5828 
         300      10.5601  8.11655e-05  5.54965e-06      18.5828 
         300        10.66  8.07439e-05  5.36624e-06      18.5828 
         300      10.7603   8.0335e-05  5.17023e-06      18.5828 
         300      10.8611  7.99362e-05   4.9507e-06      18.5828 
         300      10.9623  7.95442e-05  4.70117e-06      18.5828 
         300      11.0641  7.91518e-05  4.42152e-06      18.5828 
         300      11.1663  7.87497e-05  4.12355e-06      18.5828 
         300       11.269  7.83246e-05  3.83537e-06      18.5828 
         300      11.3721  7.78577e-05  3.60649e-06      18.5828 
         300      11.4757  7.73263e-05  3.51609e-06      18.5828 
         300      11.5798  7.66997e-05  3.67963e-06      18.5828 
         300      11.6844  7.65707e-05  3.11786e-06      18.5828 
         300      11.7894  7.63381e-05  2.76206e-06      18.5828 
         300       11.895  7.59904e-05  2.55622e-06      18.5828 
         300      12.0009  7.55497e-05  2.39725e-06      18.5828 
         300      12.1073  7.51153e-05  2.24565e-06      18.5828 
         300      12.2142   7.4844e-05  2.18524e-06      18.5828 
         300      12.3216  7.45619e-05  2.06061e-06      18.5828 
         300      12.4294   7.4272e-05  1.89424e-06      18.5828 
         300      12.5378  7.39759e-05  1.70401e-06      18.5828 
         300      12.6465   7.3676e-05  1.50462e-06      18.5828 
         300      12.7558  7.33735e-05  1.30672e-06      18.5828 
         300      12.8656  7.30701e-05  1.11844e-06      18.5828 
         300      12.9757  7.27672e-05  9.45228e-07      18.5828 
         300      13.0864  7.24654e-05    7.898e-07      18.5828 
         300      13.1975  7.21663e-05  6.53474e-07      18.5828 
         300      13.3092  7.18701e-05  5.35511e-07      18.5828 
         300      13.4212  7.15781e-05  4.34328e-07      18.5828 
         300      13.5338  7.12905e-05  3.47057e-07      18.5828 
         300      13.6468  7.10082e-05  2.70455e-07      18.5828 
         300      13.7603  7.07321e-05  2.00909e-07      18.5828 
         300      13.8743  7.04621e-05  1.34568e-07      18.5828 
         300      13.9886  7.01993e-05  6.79709e-08      18.5828 
         300      14.1036  6.99437e-05  -2.1826e-09      18.5828 
         300      14.2189   6.9696e-05 -7.84166e-08      18.5828 
         300      14.3348  6.94563e-05 -1.62792e-07      18.5828 
         300       14.451   6.9225e-05 -2.56311e-07      18.5828 
         300      14.5678  6.90018e-05 -3.59393e-07      18.5828 
         300      14.6851  6.87869e-05 -4.71361e-07      18.5828 
         300      14.8028  6.85801e-05 -5.90665e-07      18.5828 
         300       14.921  6.83803e-05 -7.15296e-07      18.5828 
         300      15.0396  6.81869e-05 -8.42255e-07      18.5828 
         300      15.1588  6.79982e-05 -9.68561e-07      18.5828 
         300      15.2783  6.78125e-05 -1.09073e-06      18.5828 
         300      15.3984  6.76269e-05 -1.20593e-06      18.5828 
         300       15.519  6.74383e-05 -1.31174e-06      18.5828 
         300        15.64  6.72427e-05 -1.40697e-06      18.5828 
         300      15.7615  6.70344e-05  -1.4925e-06      18.5828 
         300      15.8834  6.68076e-05 -1.57146e-06      18.5828 
         300      16.0058   6.6554e-05 -1.65059e-06      18.5828 
         300      16.1286   6.6265e-05 -1.74065e-06      18.5828 
         300       16.252  6.59537e-05  -1.8307e-06      18.5828 
         300      16.3759    6.572e-05  -1.8545e-06      18.5828 
         300      16.5002  6.55548e-05 -1.86044e-06      18.5828 
         300       16.625   6.5472e-05 -1.82753e-06      18.5828 
         300      16.7501  6.54082e-05 -1.77751e-06      18.5828 
         300      16.8759  6.50135e-05 -2.07846e-06      18.5828 
         300       17.002  6.49244e-05 -2.12863e-06      18.5828 
         300      17.1287  6.49926e-05 -2.03639e-06      18.5828 
         300      17.2557  6.50564e-05 -1.96725e-06      18.5828 
         300      17.3834  6.47597e-05 -2.08962e-06      18.5828 
         300      17.5115   6.4519e-05 -2.24278e-06      18.5828 
         300      17.6399  6.43202e-05 -2.41059e-06      18.5828 
         300       17.769  6.41506e-05 -2.58049e-06      18.5828 
         300      17.8984  6.40011e-05 -2.74226e-06      18.5828 
         300      18.0284  6.38636e-05 -2.88884e-06      18.5828 
         300      18.1587  6.37325e-05 -3.01502e-06      18.5828 
         300      18.2896  6.36035e-05 -3.11814e-06      18.5828 
         300       18.421  6.34738e-05 -3.19704e-06      18.5828 
         300      18.5528   6.3342e-05 -3.25223e-06      18.5828 
         300      18.6851  6.32071e-05 -3.28568e-06      18.5828 
         300      18.8178  6.30695e-05 -3.30025e-06      18.5828 
         300      18.9511  6.29295e-05 -3.29976e-06      18.5828 
         300      19.0847  6.27886e-05 -3.28856e-06      18.5828 
         300      19.2189  6.26478e-05 -3.27136e-06      18.5828 
         300      19.3535  6.25087e-05 -3.25307e-06      18.5828 
         300      19.4886  6.23724e-05 -3.23846e-06      18.5828 
         300      19.6242  6.22402e-05 -3.23212e-06      18.5828 
         300      19.7602  6.21132e-05 -3.23815e-06      18.5828 
         300      19.8968  6.19916e-05 -3.26006e-06      18.5828 
         300      20.0337  6.18757e-05 -3.30058e-06      18.5828 
         300      20.1712  6.17652e-05 -3.36162e-06      18.5828 
         300      20.3091  6.16593e-05 -3.44394e-06      18.5828 
         300      20.4475  6.15568e-05 -3.54745e-06      18.5828 
         300      20.5864  6.14561e-05 -3.67068e-06      18.5828 
         300      20.7257  6.13554e-05 -3.81093e-06      18.5828 
         300      20.8655  6.12525e-05  -3.9646e-06      18.5828 
         300      21.0058  6.11455e-05 -4.12645e-06      18.5828 
         300      21.1465  6.10321e-05 -4.29057e-06      18.5828 
         300      21.2877  6.09111e-05 -4.44946e-06      18.5828 
         300      21.4294  6.07812e-05 -4.59519e-06      18.5828 
         300      21.5716  6.06427e-05 -4.71861e-06      18.5828 
         300      21.7142  6.04969e-05 -4.81005e-06      18.5828 
         300      21.8573  6.03469e-05 -4.85966e-06      18.5828 
         300      22.0008  6.01981e-05  -4.8573e-06      18.5828 
         300      22.1449  6.00584e-05 -4.79311e-06      18.5828 
         300      22.2893  5.99396e-05 -4.65799e-06      18.5828 
         300      22.4344  5.98567e-05 -4.44353e-06      18.5828 
         300      22.5797    5.983e-05 -4.14343e-06      18.5828 
         300      22.7257  5.98504e-05  -4.3804e-06      18.5828 
         300      22.8721  5.97888e-05 -4.64163e-06      18.5828 
         300      23.0189  5.97857e-05 -4.86841e-06      18.5828 
         300      23.1663  5.98705e-05 -4.81595e-06      18.5828 
         300       23.314  5.98064e-05  -4.6016e-06      18.5828 
         300      23.4623   5.9676e-05 -4.46622e-06      18.5828 
         300       23.611  5.94737e-05 -4.39679e-06      18.5828 
         300      23.7602  5.92269e-05 -4.38405e-06      18.5828 
         300        23.91  5.92142e-05 -4.46201e-06      18.5828 
         300        24.06  5.91942e-05 -4.52864e-06      18.5828 
         300      24.2107  5.91684e-05 -4.58485e-06      18.5828 
         300      24.3617  5.91379e-05  -4.6312e-06      18.5828 
         300      24.5133  5.91039e-05 -4.66831e-06      18.5828 
         300      24.6653  5.90673e-05 -4.69657e-06      18.5828 
         300      24.8178  5.90288e-05 -4.71639e-06      18.5828 
         300      24.9708   5.8989e-05 -4.72806e-06      18.5828 
         300      25.1242  5.89485e-05 -4.73186e-06      18.5828 
         300      25.2781  5.89077e-05 -4.72803e-06      18.5828 
         300      25.4324   5.8867e-05 -4.71684e-06      18.5828 
         300      25.5873  5.88265e-05 -4.69849e-06      18.5828 
         300      25.7426  5.87866e-05 -4.67329e-06      18.5828 
         300      25.8984  5.87472e-05 -4.64148e-06      18.5828 
         300      26.0546  5.87086e-05 -4.60343e-06      18.5828 
         300      26.2114  5.86707e-05 -4.55945e-06      18.5828 
         300      26.3686  5.86337e-05 -4.50998e-06      18.5828 
         300      26.5262  5.85975e-05 -4.45556e-06      18.5828 
         300      26.6844  5.85622e-05  -4.3966e-06      18.5828 
         300      26.8429  5.85278e-05  -4.3338e-06      18.5828 
         300       27.002  5.84944e-05 -4.26768e-06      18.5828 
         300      27.1615   5.8462e-05 -4.19904e-06      18.5828 
         300      27.3216  5.84306e-05 -4.12846e-06      18.5828 
         300      27.4821  5.84005e-05 -4.05677e-06      18.5828 
         300       27.643  5.83717e-05 -3.98476e-06      18.5828 
         300      27.8044  5.83444e-05 -3.91309e-06      18.5828 
         300      27.9663  5.83189e-05 -3.84259e-06      18.5828 
         300      28.1287  5.82954e-05 -3.77384e-06      18.5828 
         300      28.2914  5.82742e-05 -3.70755e-06      18.5828 
         300      28.4548  5.82556e-05  -3.6441e-06      18.5828 
         300      28.6185  5.82399e-05 -3.58396e-06      18.5828 
         300      28.7828  5.82275e-05 -3.52721e-06      18.5828 
         300      28.9475  5.82188e-05 -3.47382e-06      18.5828 
         300      29.1126  5.82142e-05 -3.42353e-06      18.5828 
         300      29.2784   5.8214e-05 -3.37557e-06      18.5828 
         300      29.4444  5.82186e-05 -3.32899e-06      18.5828 
         300       29.611  5.82283e-05 -3.28221e-06      18.5828 
         300       29.778  5.82433e-05 -3.23328e-06      18.5828 
         300      29.9456   5.8264e-05 -3.17951e-06      18.5828 
         300      30.1137  5.82902e-05 -3.11763e-06      18.5828 
         300      30.2821  5.83221e-05 -3.04365e-06      18.5828 
         300      30.4511  5.82264e-05 -3.02717e-06      18.5828 
         300      30.6204  5.80921e-05 -3.05645e-06      18.5828 
         300      30.7903  5.79847e-05 -3.09999e-06      18.5828 
         300      30.9606  5.79011e-05 -3.15547e-06      18.5828 
         300      31.1315   5.7838e-05 -3.21982e-06      18.5828 
         300      31.3028  5.77925e-05 -3.28915e-06      18.5828 
         300      31.4745  5.77613e-05 -3.35913e-06      18.5828 
         300      31.6468  5.77416e-05 -3.42543e-06      18.5828 
         300      31.8194  5.77302e-05 -3.48355e-06      18.5828 
         300      31.9926  5.77243e-05 -3.52944e-06      18.5828 
         300      32.1662  5.77211e-05 -3.55941e-06      18.5828 
         300      32.3404  5.77182e-05 -3.57059e-06      18.5828 
         300      32.5149  5.77133e-05 -3.56098e-06      18.5828 
         300        32.69  5.77043e-05 -3.52968e-06      18.5828 
         300      32.8655  5.76898e-05 -3.47711e-06      18.5828 
         300      33.0414  5.76688e-05 -3.40523e-06      18.5828 
         300       33.218  5.76409e-05 -3.31747e-06      18.5828 
         300      33.3948  5.76064e-05 -3.21929e-06      18.5828 
         300      33.5723  5.75665e-05 -3.11776e-06      18.5828 
         300        33.75  5.75237e-05 -3.02235e-06      18.5828 
         300      33.9284  5.74815e-05 -2.94434e-06      18.5828 
         300      34.1073  5.74447e-05  -2.8975e-06      18.5828 
         300      34.2865  5.74199e-05 -2.89782e-06      18.5828 
         300      34.4663  5.74156e-05 -2.96366e-06      18.5828 
         300      34.6465  5.74421e-05 -3.11565e-06      18.5828 
         300      34.8272  5.74819e-05 -3.25173e-06      18.5828 
         300      35.0083  5.74571e-05 -3.09743e-06      18.5828 
         300        35.19  5.74388e-05 -2.98303e-06      18.5828 
         300      35.3721  5.74268e-05 -2.89985e-06      18.5828 
         300      35.5546  5.74205e-05 -2.84078e-06      18.5828 
         300      35.7377   5.7419e-05 -2.80009e-06      18.5828 
         300      35.9211  5.74214e-05 -2.77355e-06      18.5828 
         300      36.1052  5.74268e-05 -2.75801e-06      18.5828 
         300      36.2895  5.74343e-05 -2.75134e-06      18.5828 
         300      36.4745  5.74433e-05 -2.75213e-06      18.5828 
         300      36.6598  5.74533e-05 -2.75952e-06      18.5828 
         300      36.8457   5.7464e-05 -2.77293e-06      18.5828 
         300      37.0321  5.74757e-05 -2.79176e-06      18.5828 
         300      37.2188  5.74886e-05 -2.81513e-06      18.5828 
         300      37.4062  5.75036e-05 -2.84164e-06      18.5828 
         300      37.5938  5.75217e-05 -2.86887e-06      18.5828 
         300      37.7821  5.75444e-05 -2.89323e-06      18.5828 
         300      37.9707  5.75733e-05 -2.90942e-06      18.5828 
         300      38.1599  5.76103e-05 -2.91016e-06      18.5828 
         300      38.3496  5.76573e-05 -2.88566e-06      18.5828 
         300      38.5396  5.77165e-05 -2.82333e-06      18.5828 
         300      38.7302  5.76299e-05 -2.86253e-06      18.5828 
         300      38.9211  5.75542e-05 -2.89776e-06      18.5828 
         300      39.1127  5.74956e-05 -2.92326e-06      18.5828 
         300      39.3046  5.74506e-05 -2.94133e-06      18.5828 
         300      39.4971   5.7416e-05 -2.95398e-06      18.5828 
         300      39.6899  5.73892e-05 -2.96279e-06      18.5828 
         300      39.8833  5.73684e-05 -2.96905e-06      18.5828 
         300      40.0772  5.73518e-05 -2.97376e-06      18.5828 
         300      40.2714  5.73383e-05 -2.97764e-06      18.5828 
         300      40.4663  5.73269e-05 -2.98122e-06      18.5828 
         300      40.6615  5.73171e-05  -2.9848e-06      18.5828 
         300      40.8573  5.73084e-05 -2.98855e-06      18.5828 
         300      41.0534  5.73005e-05 -2.99247e-06      18.5828 
         300      41.2501  5.72935e-05  -2.9965e-06      18.5828 
         300      41.4473  5.72872e-05 -3.00044e-06      18.5828 
         300      41.6448  5.72818e-05 -3.00407e-06      18.5828 
         300      41.8429  5.72772e-05 -3.00711e-06      18.5828 
         300      42.0414  5.72736e-05 -3.00929e-06      18.5828 
         300      42.2405  5.72711e-05  -3.0103e-06      18.5828 
         300      42.4399  5.72696e-05 -3.00989e-06      18.5828 
         300      42.6399  5.72691e-05 -3.00778e-06      18.5828 
         300      42.8404  5.72695e-05 -3.00379e-06      18.5828 
         300      43.0412  5.72706e-05 -2.99774e-06      18.5828 
         300      43.2426  5.72721e-05 -2.98952e-06      18.5828 
         300      43.4444  5.72736e-05 -2.97907e-06      18.5829 
         300      43.6467   5.7275e-05 -2.96639e-06      18.5829 
         300      43.8494  5.72756e-05 -2.95151e-06      18.5829 
         300      44.0527  5.72752e-05 -2.93451e-06      18.5829 
         300      44.2563  5.72734e-05 -2.91552e-06      18.5829 
         300      44.4606  5.72697e-05 -2.89463e-06      18.5829 
         300      44.6653  5.72641e-05 -2.87199e-06      18.5829 
         300      44.8704  5.72565e-05 -2.84769e-06      18.5829 
         300       45.076  5.72472e-05 -2.82175e-06      18.5829 
         300       45.282  5.72366e-05 -2.79415e-06      18.5829 
         300      45.4886  5.72257e-05  -2.7647e-06      18.5829 
         300      45.6955  5.72159e-05 -2.73311e-06      18.5829 
         300       45.903  5.72092e-05  -2.6988e-06      18.5829 
         300      46.1111  5.72082e-05 -2.66099e-06      18.5829 
         300      46.3194  5.72164e-05 -2.61862e-06      18.5829 
         300      46.5283  5.72383e-05 -2.57014e-06      18.5829 
         300      46.7376  5.72794e-05 -2.51371e-06      18.5829 
         300      46.9475  5.73464e-05 -2.44678e-06      18.5829 
         300      47.1577  5.74475e-05 -2.36644e-06      18.5829 
         300      47.3685  5.75926e-05 -2.26884e-06      18.5829 
         300      47.5798  5.76925e-05 -2.31088e-06      18.5829 
         300      47.7914  5.76378e-05  -2.5213e-06      18.5829 
         300      48.0037  5.74039e-05 -2.89041e-06      18.5829 