Variables = x, y, u, v, p

Zone, I=800, F=POINT
           0            0 -8.88108e-19  1.31246e-18     -39.2708 
           0     0.000234  -6.6353e-05  4.20234e-05     -39.2709 
           0     0.000939 -0.000248137  0.000156837      -39.271 
           0     0.002113 -0.000495586  0.000312091     -39.2713 
           0     0.003759 -0.000742905  0.000465071     -39.2716 
           0     0.005872 -0.000925323  0.000573951      -39.272 
           0     0.008457  -0.00100061  0.000611805     -39.2724 
           0      0.01151  -0.00096038   0.00057411     -39.2728 
           0     0.015036 -0.000833519  0.000480862     -39.2732 
           0     0.019031 -0.000676215  0.000370053     -39.2736 
           0     0.023493 -0.000550658  0.000283479      -39.274 
           0     0.028429 -0.000498871  0.000249335     -39.2743 
           0     0.033831 -0.000522214  0.000268407     -39.2747 
           0     0.039706 -0.000576779   0.00031064     -39.2752 
           0     0.046047 -0.000595307  0.000329212     -39.2756 
           0     0.052863  -0.00053514  0.000292256     -39.2761 
           0      0.06015 -0.000432384  0.000219825     -39.2766 
           0       0.0679 -0.000408336  0.000192011      -39.277 
           0     0.076126 -0.000519113   0.00025837     -39.2775 
           0     0.084816 -0.000398481  0.000202673      -39.278 
           0     0.093982 -0.000425256  0.000207653     -39.2785 
           0     0.103611 -0.000426293  0.000203901      -39.279 
           0     0.113718 -0.000415316  0.000196158     -39.2795 
           0     0.124286 -0.000402109  0.000187818       -39.28 
           0     0.135333 -0.000392045  0.000180732     -39.2805 
           0      0.14685 -0.000386474  0.000175367      -39.281 
           0     0.158827 -0.000383753  0.000171141     -39.2815 
           0     0.171284 -0.000380963  0.000167018     -39.2821 
           0     0.184201 -0.000375921  0.000162218     -39.2826 
           0     0.197599 -0.000368836  0.000156779     -39.2831 
           0     0.211455 -0.000362734  0.000151746     -39.2837 
           0     0.225792 -0.000361128  0.000148387     -39.2842 
           0       0.2406 -0.000361102  0.000145875     -39.2847 
           0     0.255865 -0.000354364  0.000141225     -39.2853 
           0     0.271613 -0.000352062   0.00013797     -39.2858 
           0     0.287818 -0.000349005  0.000134686     -39.2864 
           0     0.304506 -0.000346475  0.000131672     -39.2869 
           0      0.32165 -0.000343802  0.000128687     -39.2875 
           0     0.339278 -0.000341388  0.000125894     -39.2881 
           0     0.357377 -0.000339061  0.000123205     -39.2886 
           0      0.37593 -0.000336815  0.000120625     -39.2892 
           0     0.394968 -0.000334652  0.000118157     -39.2897 
           0     0.414461 -0.000332574  0.000115787     -39.2903 
           0      0.43444 -0.000330567  0.000113506     -39.2909 
           0     0.454872 -0.000328617  0.000111314     -39.2914 
           0     0.475791 -0.000326718  0.000109203      -39.292 
           0     0.497163 -0.000324873  0.000107169     -39.2926 
           0     0.519021 -0.000323062  0.000105204     -39.2931 
           0      0.54135 -0.000321279  0.000103315     -39.2937 
           0     0.564131 -0.000319517  0.000101486     -39.2943 
           0       0.5874 -0.000317765  9.97229e-05     -39.2949 
           0     0.611121 -0.000316016  9.80204e-05     -39.2954 
           0      0.63533 -0.000314256  9.63711e-05      -39.296 
           0      0.65999 -0.000312477  9.47768e-05     -39.2966 
           0     0.685139 -0.000310666  9.32337e-05     -39.2971 
           0     0.710759 -0.000308817   9.1741e-05     -39.2977 
           0     0.736828 -0.000306925  9.02971e-05     -39.2983 
           0     0.763387 -0.000304982  8.88963e-05     -39.2988 
           0     0.790396 -0.000302983  8.75373e-05     -39.2994 
           0     0.817896  -0.00030092   8.6226e-05        -39.3 
           0     0.845843 -0.000298796  8.49542e-05     -39.3005 
           0     0.874283  -0.00029661  8.37175e-05     -39.3011 
           0      0.90317 -0.000294364  8.25174e-05     -39.3017 
           0     0.932551  -0.00029206  8.13514e-05     -39.3022 
           0     0.962401 -0.000289706  8.02192e-05     -39.3028 
           0     0.992697 -0.000287307  7.91189e-05     -39.3034 
           0      1.02349 -0.000284865  7.80469e-05     -39.3039 
           0      1.05472 -0.000282389  7.70032e-05     -39.3045 
           0      1.08645 -0.000279881  7.59844e-05      -39.305 
           0      1.11863  -0.00027735  7.49904e-05     -39.3056 
           0       1.1513 -0.000274796    7.402e-05     -39.3062 
           0      1.18444 -0.000272226  7.30716e-05     -39.3067 
           0      1.21802 -0.000269646  7.21437e-05     -39.3073 
           0      1.25211 -0.000267053  7.12339e-05     -39.3078 
           0      1.28663 -0.000264452  7.03444e-05     -39.3084 
           0      1.32165 -0.000261843  6.94716e-05     -39.3089 
           0      1.35712 -0.000259244  6.86107e-05     -39.3095 
           0      1.39308 -0.000256651  6.77652e-05       -39.31 
           0      1.42951 -0.000254079  6.69328e-05     -39.3105 
           0      1.46638 -0.000251545  6.61126e-05     -39.3111 
           0      1.50375 -0.000249059  6.52971e-05     -39.3116 
           0      1.54156 -0.000246648  6.44921e-05     -39.3122 
           0      1.57987 -0.000244317  6.36946e-05     -39.3127 
           0      1.61863 -0.000242083  6.29035e-05     -39.3132 
           0      1.65788 -0.000239958  6.21165e-05     -39.3137 
           0      1.69757  -0.00023796  6.13354e-05     -39.3143 
           0      1.73776 -0.000236102  6.05601e-05     -39.3148 
           0      1.77842 -0.000234389  5.97914e-05     -39.3153 
           0      1.81952 -0.000232811  5.90269e-05     -39.3158 
           0      1.86113 -0.000231322  5.82544e-05     -39.3163 
           0      1.90316 -0.000229979  5.74995e-05     -39.3169 
           0      1.94571 -0.000228768  5.67619e-05     -39.3174 
           0      1.98869 -0.000227615   5.6018e-05     -39.3179 
           0      2.03217 -0.000226527  5.52748e-05     -39.3184 
           0      2.07612 -0.000225508  5.45388e-05     -39.3189 
           0      2.12051 -0.000224562  5.38105e-05     -39.3194 
           0       2.1654 -0.000223721    5.309e-05     -39.3199 
           0      2.21073 -0.000222992  5.23572e-05     -39.3204 
           0      2.25656 -0.000222382  5.15976e-05     -39.3208 
           0      2.30283 -0.000221911  5.08053e-05     -39.3213 
           0       2.3496 -0.000221597  4.99722e-05     -39.3218 
           0      2.39685 -0.000221454  4.90928e-05     -39.3223 
           0      2.44452 -0.000221492  4.81625e-05     -39.3228 
           0      2.49271 -0.000221716  4.71772e-05     -39.3232 
           0      2.54132 -0.000222124   4.6139e-05     -39.3237 
           0      2.59044 -0.000222702  4.50523e-05     -39.3242 
           0         2.64 -0.000223426  4.39321e-05     -39.3246 
           0      2.69006 -0.000224255     4.28e-05     -39.3251 
           0      2.74056 -0.000225129  4.16942e-05     -39.3255 
           0      2.79156 -0.000225992  4.05896e-05      -39.326 
           0      2.84304 -0.000226814   3.9522e-05     -39.3264 
           0      2.89494 -0.000227555  3.85379e-05     -39.3269 
           0      2.94735 -0.000228181  3.76437e-05     -39.3273 
           0       3.0002  -0.00022865  3.68514e-05     -39.3278 
           0      3.05355 -0.000228924   3.6172e-05     -39.3282 
           0      3.10733 -0.000228964  3.56202e-05     -39.3286 
           0      3.16163 -0.000228743  3.52089e-05      -39.329 
           0      3.21639 -0.000228245  3.49516e-05     -39.3295 
           0      3.27158 -0.000227413  3.48188e-05     -39.3299 
           0      3.32729 -0.000226295  3.48027e-05     -39.3303 
           0      3.38342 -0.000224999  3.49187e-05     -39.3307 
           0      3.44007 -0.000223587  3.51488e-05     -39.3311 
           0      3.49714 -0.000222118  3.54686e-05     -39.3315 
           0      3.55472 -0.000220645  3.58502e-05     -39.3319 
           0      3.61273 -0.000219215  3.62616e-05     -39.3323 
           0      3.67125 -0.000217862   3.6672e-05     -39.3327 
           0      3.73025 -0.000216609   3.7052e-05      -39.333 
           0      3.78967  -0.00021547  3.73786e-05     -39.3334 
           0      3.84961 -0.000214442  3.76401e-05     -39.3338 
           0      3.90996 -0.000213522  3.78398e-05     -39.3342 
           0      3.97084 -0.000212699  3.80036e-05     -39.3345 
           0      4.03214  -0.00021197  3.81858e-05     -39.3349 
           0      4.09395 -0.000211123  3.81765e-05     -39.3353 
           0      4.15624 -0.000210326  3.81509e-05     -39.3356 
           0      4.21895 -0.000209585  3.81273e-05      -39.336 
           0      4.28217 -0.000208886  3.80972e-05     -39.3363 
           0      4.34582 -0.000208224  3.80528e-05     -39.3366 
           0      4.40998 -0.000207595  3.79877e-05      -39.337 
           0      4.47457 -0.000206999  3.78973e-05     -39.3373 
           0      4.53968 -0.000206437  3.77788e-05     -39.3376 
           0      4.60525 -0.000205907  3.76315e-05     -39.3379 
           0      4.67125 -0.000205411  3.74569e-05     -39.3383 
           0      4.73777 -0.000204945  3.72577e-05     -39.3386 
           0       4.8047 -0.000204505  3.70387e-05     -39.3389 
           0      4.87216 -0.000204084  3.68044e-05     -39.3392 
           0      4.94003 -0.000203674  3.65598e-05     -39.3395 
           0      5.00843 -0.000203264  3.63074e-05     -39.3398 
           0      5.07724 -0.000202846  3.60475e-05     -39.3401 
           0      5.14658  -0.00020241   3.5774e-05     -39.3403 
           0      5.21639 -0.000201952   3.5474e-05     -39.3406 
           0      5.28661 -0.000201477  3.51241e-05     -39.3409 
           0      5.35736 -0.000200997  3.46864e-05     -39.3412 
           0      5.42852 -0.000200543  3.41062e-05     -39.3414 
           0      5.50021 -0.000200099  3.36534e-05     -39.3417 
           0      5.57231  -0.00019971   3.3223e-05     -39.3419 
           0      5.64493 -0.000199411  3.27773e-05     -39.3422 
           0      5.71803 -0.000198958  3.24975e-05     -39.3424 
           0      5.79154 -0.000198517  3.22078e-05     -39.3427 
           0      5.86558 -0.000197934  3.19126e-05     -39.3429 
           0      5.94003 -0.000197524  3.15121e-05     -39.3431 
           0      6.01501 -0.000197215  3.10511e-05     -39.3433 
           0       6.0904 -0.000196954  3.05641e-05     -39.3436 
           0      6.16632 -0.000196706  3.00739e-05     -39.3438 
           0      6.24271  -0.00019645  2.95959e-05      -39.344 
           0       6.3195 -0.000196177  2.91381e-05     -39.3442 
           0      6.39683 -0.000195884  2.87017e-05     -39.3444 
           0      6.47457 -0.000195576  2.82851e-05     -39.3446 
           0      6.55284 -0.000195259  2.78822e-05     -39.3448 
           0      6.63152 -0.000194943  2.74866e-05     -39.3449 
           0      6.71073 -0.000194634  2.70903e-05     -39.3451 
           0      6.79034  -0.00019434  2.66867e-05     -39.3453 
           0      6.87049 -0.000194061  2.62693e-05     -39.3454 
           0      6.95111 -0.000193798  2.58349e-05     -39.3456 
           0      7.03214 -0.000193546  2.53825e-05     -39.3458 
           0       7.1137 -0.000193299  2.49128e-05     -39.3459 
           0      7.19566  -0.00019305  2.44305e-05     -39.3461 
           0      7.27816 -0.000192791  2.39411e-05     -39.3462 
           0      7.36106 -0.000192523  2.34528e-05     -39.3463 
           0      7.44451 -0.000192254  2.29729e-05     -39.3465 
           0      7.52842 -0.000192005  2.25083e-05     -39.3466 
           0      7.61273 -0.000191862  2.20258e-05     -39.3467 
           0      7.69758 -0.000191868  2.14869e-05     -39.3468 
           0      7.78283 -0.000191878  2.09671e-05     -39.3469 
           0      7.86862 -0.000191869  2.04497e-05      -39.347 
           0      7.95481 -0.000191825  1.99285e-05     -39.3471 
           0      8.04155 -0.000191738  1.94031e-05     -39.3472 
           0      8.12868 -0.000191604  1.88795e-05     -39.3473 
           0      8.21635 -0.000191425  1.83653e-05     -39.3473 
           0      8.30449  -0.00019121  1.78705e-05     -39.3474 
           0      8.39303 -0.000190972  1.74046e-05     -39.3475 
           0      8.48211 -0.000190725  1.69737e-05     -39.3475 
           0      8.57159  -0.00019049   1.6581e-05     -39.3476 
           0      8.66161 -0.000190288  1.62234e-05     -39.3477 
           0      8.75203 -0.000190143  1.58919e-05     -39.3477 
           0      8.84299 -0.000190079  1.55685e-05     -39.3477 
           0      8.93443 -0.000190123  1.52269e-05     -39.3478 
           0      9.02626 -0.000190301  1.48314e-05     -39.3478 
           0      9.11863  -0.00019045  1.44016e-05     -39.3478 
           0      9.21139 -0.000190173  1.41194e-05     -39.3478 
           0      9.30471 -0.000189948  1.38432e-05     -39.3478 
           0      9.39841 -0.000189783  1.35609e-05     -39.3478 
           0      9.49267 -0.000189681   1.3263e-05     -39.3478 
           0      9.58739 -0.000189639  1.29439e-05     -39.3478 
           0      9.68251 -0.000189648  1.26005e-05     -39.3478 
           0      9.77817 -0.000189689  1.22307e-05     -39.3478 
           0      9.87422 -0.000189735  1.18342e-05     -39.3478 
           0      9.97083 -0.000189746  1.14091e-05     -39.3477 
           0      10.0678  -0.00018967  1.09522e-05     -39.3477 
           0      10.1654 -0.000189438  1.04544e-05     -39.3477 
           0      10.2633 -0.000189488  1.01002e-05     -39.3476 
           0      10.3618 -0.000189519  9.81545e-06     -39.3475 
           0      10.4607 -0.000189438  9.53628e-06     -39.3475 
           0      10.5601 -0.000189285  9.24971e-06     -39.3474 
           0        10.66 -0.000189092   8.9464e-06     -39.3473 
           0      10.7603 -0.000188884  8.62178e-06     -39.3473 
           0      10.8611 -0.000188681  8.27351e-06     -39.3472 
           0      10.9623 -0.000188497  7.90294e-06     -39.3471 
           0      11.0641 -0.000188342  7.51237e-06      -39.347 
           0      11.1663  -0.00018822  7.10644e-06     -39.3469 
           0       11.269 -0.000188133  6.69074e-06     -39.3468 
           0      11.3721 -0.000188078  6.27018e-06     -39.3467 
           0      11.4757 -0.000188049  5.85074e-06     -39.3465 
           0      11.5798  -0.00018804  5.43628e-06     -39.3464 
           0      11.6844 -0.000188041  5.03062e-06     -39.3463 
           0      11.7894 -0.000188042  4.63443e-06     -39.3461 
           0       11.895 -0.000188033  4.24701e-06      -39.346 
           0      12.0009 -0.000188002  3.86479e-06     -39.3458 
           0      12.1073 -0.000187939  3.48007e-06     -39.3457 
           0      12.2142 -0.000187835  3.08272e-06     -39.3455 
           0      12.3216 -0.000187854  2.84597e-06     -39.3454 
           0      12.4294 -0.000187906  2.62787e-06     -39.3452 
           0      12.5378 -0.000187941  2.38273e-06      -39.345 
           0      12.6465  -0.00018795  2.11086e-06     -39.3448 
           0      12.7558 -0.000187928  1.81271e-06     -39.3446 
           0      12.8656 -0.000187873  1.49073e-06     -39.3444 
           0      12.9757 -0.000187793  1.14908e-06     -39.3442 
           0      13.0864 -0.000187703  7.92967e-07      -39.344 
           0      13.1975 -0.000187633  4.30821e-07     -39.3438 
           0      13.3092 -0.000187627   7.2161e-08     -39.3435 
           0      13.4212 -0.000187636 -3.05156e-07     -39.3433 
           0      13.5338 -0.000187255  -7.5586e-07     -39.3431 
           0      13.6468 -0.000187056 -1.08358e-06     -39.3428 
           0      13.7603 -0.000186984 -1.36195e-06     -39.3426 
           0      13.8743 -0.000186985 -1.65019e-06     -39.3423 
           0      13.9886 -0.000187001 -1.99302e-06      -39.342 
           0      14.1036 -0.000186974 -2.42427e-06     -39.3418 
           0      14.2189 -0.000186843 -2.96644e-06     -39.3415 
           0      14.3348 -0.000186896 -3.39602e-06     -39.3412 
           0       14.451 -0.000186966 -3.76601e-06     -39.3409 
           0      14.5678 -0.000187038 -4.09852e-06     -39.3406 
           0      14.6851  -0.00018711 -4.40462e-06     -39.3403 
           0      14.8028 -0.000187178 -4.69381e-06       -39.34 
           0       14.921 -0.000187236 -4.97423e-06     -39.3397 
           0      15.0396  -0.00018728 -5.25079e-06     -39.3393 
           0      15.1588 -0.000187305 -5.52681e-06      -39.339 
           0      15.2783 -0.000187307 -5.80232e-06     -39.3387 
           0      15.3984 -0.000187285 -6.07596e-06     -39.3383 
           0       15.519 -0.000187238 -6.34385e-06      -39.338 
           0        15.64 -0.000187169 -6.60082e-06     -39.3376 
           0      15.7615 -0.000187082 -6.84186e-06     -39.3373 
           0      15.8834 -0.000186984 -7.06167e-06     -39.3369 
           0      16.0058 -0.000186882  -7.2575e-06     -39.3365 
           0      16.1286 -0.000186786 -7.42927e-06     -39.3361 
           0       16.252 -0.000186704 -7.58264e-06     -39.3357 
           0      16.3759 -0.000186645 -7.73013e-06     -39.3353 
           0      16.5002 -0.000186615 -7.89397e-06     -39.3349 
           0       16.625 -0.000186616 -8.10928e-06     -39.3345 
           0      16.7501 -0.000186644 -8.42608e-06     -39.3341 
           0      16.8759 -0.000186654 -8.80838e-06     -39.3337 
           0       17.002 -0.000186568 -8.85361e-06     -39.3332 
           0      17.1287 -0.000186517 -8.91419e-06     -39.3328 
           0      17.2557 -0.000186479 -9.01205e-06     -39.3324 
           0      17.3834 -0.000186442  -9.1585e-06     -39.3319 
           0      17.5115 -0.000186401 -9.35578e-06     -39.3314 
           0      17.6399 -0.000186354 -9.59906e-06      -39.331 
           0       17.769 -0.000186307  -9.8791e-06     -39.3305 
           0      17.8984 -0.000186262 -1.01826e-05       -39.33 
           0      18.0284 -0.000186226 -1.04953e-05     -39.3295 
           0      18.1587 -0.000186204 -1.08023e-05      -39.329 
           0      18.2896 -0.000186197 -1.10902e-05     -39.3285 
           0       18.421 -0.000186207 -1.13477e-05      -39.328 
           0      18.5528 -0.000186231 -1.15666e-05     -39.3275 
           0      18.6851 -0.000186265 -1.17434e-05      -39.327 
           0      18.8178 -0.000186302 -1.18783e-05     -39.3265 
           0      18.9511 -0.000186331 -1.19772e-05     -39.3259 
           0      19.0847 -0.000186344 -1.20503e-05     -39.3254 
           0      19.2189 -0.000186333 -1.21128e-05     -39.3248 
           0      19.3535 -0.000186291 -1.21836e-05     -39.3243 
           0      19.4886 -0.000186218 -1.22851e-05     -39.3237 
           0      19.6242 -0.000186122 -1.24416e-05     -39.3231 
           0      19.7602 -0.000186049 -1.26058e-05     -39.3226 
           0      19.8968 -0.000185996 -1.27613e-05      -39.322 
           0      20.0337 -0.000185943 -1.29748e-05     -39.3214 
           0      20.1712 -0.000185904 -1.32063e-05     -39.3208 
           0      20.3091 -0.000185882 -1.33844e-05     -39.3202 
           0      20.4475 -0.000185861 -1.34041e-05     -39.3195 
           0      20.5864 -0.000185806 -1.31214e-05     -39.3189 
           0      20.7257 -0.000185656 -1.23506e-05     -39.3183 
           0      20.8655 -0.000185457 -1.29847e-05     -39.3176 
           0      21.0058 -0.000185338 -1.36557e-05      -39.317 
           0      21.1465 -0.000185268 -1.41312e-05     -39.3163 
           0      21.2877 -0.000185225 -1.44639e-05     -39.3157 
           0      21.4294 -0.000185189  -1.4699e-05      -39.315 
           0      21.5716  -0.00018515 -1.48727e-05     -39.3143 
           0      21.7142 -0.000185099 -1.50139e-05     -39.3136 
           0      21.8573 -0.000185033 -1.51451e-05      -39.313 
           0      22.0008  -0.00018495 -1.52819e-05     -39.3123 
           0      22.1449 -0.000184852 -1.54352e-05     -39.3115 
           0      22.2893 -0.000184744 -1.56106e-05     -39.3108 
           0      22.4344 -0.000184628 -1.58101e-05     -39.3101 
           0      22.5797  -0.00018451 -1.60315e-05     -39.3094 
           0      22.7257 -0.000184395 -1.62709e-05     -39.3086 
           0      22.8721 -0.000184287 -1.65212e-05     -39.3079 
           0      23.0189 -0.000184188 -1.67743e-05     -39.3071 
           0      23.1663 -0.000184102 -1.70214e-05     -39.3064 
           0       23.314 -0.000184027 -1.72529e-05     -39.3056 
           0      23.4623 -0.000183963   -1.746e-05     -39.3048 
           0       23.611 -0.000183959 -1.76288e-05      -39.304 
           0      23.7602 -0.000184089 -1.77213e-05     -39.3033 
           0        23.91 -0.000184191 -1.77538e-05     -39.3025 
           0        24.06 -0.000184265 -1.77505e-05     -39.3016 
           0      24.2107 -0.000184308 -1.77383e-05     -39.3008 
           0      24.3617 -0.000184318 -1.77447e-05        -39.3 
           0      24.5133 -0.000184291 -1.77943e-05     -39.2992 
           0      24.6653 -0.000184224 -1.79059e-05     -39.2983 
           0      24.8178 -0.000184115 -1.80878e-05     -39.2975 
           0      24.9708 -0.000183961 -1.83334e-05     -39.2966 
           0      25.1242 -0.000183762 -1.86145e-05     -39.2958 
           0      25.2781  -0.00018352 -1.88766e-05     -39.2949 
           0      25.4324 -0.000183242 -1.90297e-05      -39.294 
           0      25.5873 -0.000182937 -1.89415e-05     -39.2931 
           0      25.7426 -0.000182624 -1.84282e-05     -39.2922 
           0      25.8984 -0.000182961 -1.87493e-05     -39.2913 
           0      26.0546 -0.000182893 -1.87566e-05     -39.2904 
           0      26.2114  -0.00018229 -1.83564e-05     -39.2895 
           0      26.3686 -0.000182117 -1.83345e-05     -39.2886 
           0      26.5262 -0.000182205  -1.8611e-05     -39.2876 
           0      26.6844 -0.000182276 -1.89448e-05     -39.2867 
           0      26.8429 -0.000182339 -1.93082e-05     -39.2857 
           0       27.002 -0.000182401 -1.96797e-05     -39.2848 
           0      27.1615 -0.000182468 -2.00419e-05     -39.2838 
           0      27.3216 -0.000182541 -2.03823e-05     -39.2828 
           0      27.4821 -0.000182621 -2.06917e-05     -39.2818 
           0       27.643 -0.000182707 -2.09644e-05     -39.2809 
           0      27.8044 -0.000182795 -2.11978e-05     -39.2798 
           0      27.9663  -0.00018288 -2.13913e-05     -39.2788 
           0      28.1287 -0.000182779 -2.15313e-05     -39.2778 
           0      28.2914   -0.0001826 -2.16597e-05     -39.2768 
           0      28.4548 -0.000182413 -2.17867e-05     -39.2758 
           0      28.6185 -0.000182224 -2.19117e-05     -39.2747 
           0      28.7828 -0.000182038 -2.20346e-05     -39.2737 
           0      28.9475 -0.000181858 -2.21558e-05     -39.2726 
           0      29.1126 -0.000181688 -2.22757e-05     -39.2715 
           0      29.2784 -0.000181529 -2.23956e-05     -39.2705 
           0      29.4444 -0.000181385 -2.25165e-05     -39.2694 
           0       29.611 -0.000181255 -2.26403e-05     -39.2683 
           0       29.778  -0.00018114 -2.27685e-05     -39.2672 
           0      29.9456  -0.00018104 -2.29032e-05     -39.2661 
           0      30.1137 -0.000180952 -2.30465e-05     -39.2649 
           0      30.2821 -0.000180876 -2.32001e-05     -39.2638 
           0      30.4511 -0.000180809 -2.33661e-05     -39.2627 
           0      30.6204 -0.000180748 -2.35458e-05     -39.2615 
           0      30.7903 -0.000180689 -2.37404e-05     -39.2604 
           0      30.9606  -0.00018063 -2.39501e-05     -39.2592 
           0      31.1315 -0.000180568 -2.41748e-05     -39.2581 
           0      31.3028 -0.000180498 -2.44129e-05     -39.2569 
           0      31.4745 -0.000180418 -2.46614e-05     -39.2557 
           0      31.6468 -0.000180328 -2.49164e-05     -39.2545 
           0      31.8194 -0.000180226 -2.51714e-05     -39.2533 
           0      31.9926 -0.000180113 -2.54184e-05     -39.2521 
           0      32.1662 -0.000179992 -2.56462e-05     -39.2509 
           0      32.3404 -0.000179868 -2.58415e-05     -39.2496 
           0      32.5149 -0.000179748  -2.5987e-05     -39.2484 
           0        32.69 -0.000179645 -2.60622e-05     -39.2471 
           0      32.8655 -0.000179572 -2.60422e-05     -39.2459 
           0      33.0414 -0.000179549 -2.58975e-05     -39.2446 
           0       33.218 -0.000179601 -2.55932e-05     -39.2434 
           0      33.3948 -0.000179439 -2.60308e-05     -39.2421 
           0      33.5723 -0.000179238 -2.64618e-05     -39.2408 
           0        33.75  -0.00017901 -2.68505e-05     -39.2395 
           0      33.9284 -0.000178762 -2.71943e-05     -39.2382 
           0      34.1073 -0.000178502 -2.74921e-05     -39.2369 
           0      34.2865 -0.000178238 -2.77453e-05     -39.2355 
           0      34.4663 -0.000177978 -2.79575e-05     -39.2342 
           0      34.6465 -0.000177734 -2.81333e-05     -39.2329 
           0      34.8272 -0.000177514  -2.8279e-05     -39.2315 
           0      35.0083  -0.00017733 -2.84012e-05     -39.2302 
           0        35.19 -0.000177192 -2.85077e-05     -39.2288 
           0      35.3721  -0.00017711 -2.86061e-05     -39.2274 
           0      35.5546 -0.000177094 -2.87041e-05      -39.226 
           0      35.7377 -0.000177155 -2.88094e-05     -39.2246 
           0      35.9211 -0.000177301 -2.89288e-05     -39.2232 
           0      36.1052 -0.000177265  -2.9008e-05     -39.2218 
           0      36.2895  -0.00017707 -2.90389e-05     -39.2204 
           0      36.4745 -0.000176892 -2.90614e-05      -39.219 
           0      36.6598 -0.000176728 -2.90797e-05     -39.2175 
           0      36.8457 -0.000176576 -2.90978e-05     -39.2161 
           0      37.0321 -0.000176434  -2.9119e-05     -39.2146 
           0      37.2188 -0.000176301  -2.9146e-05     -39.2132 
           0      37.4062 -0.000176175 -2.91811e-05     -39.2117 
           0      37.5938 -0.000176056 -2.92255e-05     -39.2102 
           0      37.7821 -0.000175942 -2.92803e-05     -39.2087 
           0      37.9707 -0.000175833 -2.93457e-05     -39.2072 
           0      38.1599  -0.00017573 -2.94216e-05     -39.2057 
           0      38.3496  -0.00017563 -2.95073e-05     -39.2042 
           0      38.5396 -0.000175533 -2.96018e-05     -39.2027 
           0      38.7302 -0.000175439 -2.97041e-05     -39.2012 
           0      38.9211 -0.000175346  -2.9813e-05     -39.1996 
           0      39.1127 -0.000175252 -2.99277e-05     -39.1981 
           0      39.3046 -0.000175154 -3.00474e-05     -39.1965 
           0      39.4971  -0.00017505 -3.01724e-05      -39.195 
           0      39.6899 -0.000174934 -3.03035e-05     -39.1934 
           0      39.8833   -0.0001748 -3.04431e-05     -39.1918 
           0      40.0772 -0.000174642  -3.0595e-05     -39.1902 
           0      40.2714 -0.000174451 -3.07647e-05     -39.1886 
           0      40.4663 -0.000174215 -3.09609e-05      -39.187 
           0      40.6615 -0.000173921 -3.11941e-05     -39.1854 
           0      40.8573 -0.000173555 -3.14791e-05     -39.1838 
           0      41.0534 -0.000173097 -3.18338e-05     -39.1821 
           0      41.2501 -0.000173102 -3.19814e-05     -39.1805 
           0      41.4473 -0.000173224 -3.20361e-05     -39.1788 
           0      41.6448 -0.000173266 -3.20916e-05     -39.1772 
           0      41.8429 -0.000173243 -3.21438e-05     -39.1755 
           0      42.0414 -0.000173168 -3.21898e-05     -39.1738 
           0      42.2405 -0.000173051 -3.22282e-05     -39.1721 
           0      42.4399 -0.000172902 -3.22585e-05     -39.1705 
           0      42.6399  -0.00017273 -3.22814e-05     -39.1688 
           0      42.8404 -0.000172541  -3.2298e-05      -39.167 
           0      43.0412 -0.000172341 -3.23103e-05     -39.1653 
           0      43.2426 -0.000172136 -3.23204e-05     -39.1636 
           0      43.4444 -0.000171928 -3.23308e-05     -39.1619 
           0      43.6467 -0.000171722 -3.23443e-05     -39.1601 
           0      43.8494 -0.000171518 -3.23634e-05     -39.1584 
           0      44.0527 -0.000171319 -3.23905e-05     -39.1566 
           0      44.2563 -0.000171125 -3.24279e-05     -39.1548 
           0      44.4606 -0.000170937 -3.24773e-05     -39.1531 
           0      44.6653 -0.000170755 -3.25401e-05     -39.1513 
           0      44.8704 -0.000170578 -3.26169e-05     -39.1495 
           0       45.076 -0.000170406 -3.27079e-05     -39.1477 
           0       45.282 -0.000170238 -3.28124e-05     -39.1459 
           0      45.4886 -0.000170074 -3.29292e-05     -39.1441 
           0      45.6955 -0.000169912  -3.3056e-05     -39.1422 
           0       45.903 -0.000169753 -3.31899e-05     -39.1404 
           0      46.1111 -0.000169595  -3.3327e-05     -39.1386 
           0      46.3194  -0.00016944 -3.34626e-05     -39.1367 
           0      46.5283 -0.000169286 -3.35916e-05     -39.1349 
           0      46.7376 -0.000169134 -3.37074e-05      -39.133 
           0      46.9475 -0.000168987 -3.38036e-05     -39.1311 
           0      47.1577 -0.000168845 -3.38725e-05     -39.1292 
           0      47.3685 -0.000168712 -3.39062e-05     -39.1274 
           0      47.5798 -0.000168589 -3.38965e-05     -39.1255 
           0      47.7914 -0.000168482 -3.38347e-05     -39.1236 
           0      48.0037 -0.000168395 -3.37124e-05     -39.1216 