Variables = x, y, u, v, p

Zone, I=800, F=POINT
         -10            0  3.29858e-19  5.63899e-24      144.022 
         -10     0.000234  1.63491e-05  2.82392e-10      144.022 
         -10     0.000939  6.16844e-05  1.09954e-09      144.022 
         -10     0.002113  0.000125167  2.35432e-09      144.022 
         -10     0.003759  0.000192336  3.91076e-09      144.022 
         -10     0.005872  0.000248523  5.60535e-09      144.022 
         -10     0.008457  0.000283539  7.28886e-09      144.022 
         -10      0.01151  0.000293995  8.83147e-09      144.022 
         -10     0.015036  0.000284372  1.01454e-08      144.022 
         -10     0.019031  0.000265149  1.11737e-08      144.022 
         -10     0.023493   0.00024876  1.18825e-08      144.022 
         -10     0.028429  0.000244355  1.22384e-08      144.022 
         -10     0.033831  0.000253481   1.2187e-08      144.022 
         -10     0.039706  0.000268788  1.16481e-08      144.022 
         -10     0.046047  0.000277794  1.05298e-08      144.022 
         -10     0.052863  0.000271888  8.76056e-09      144.022 
         -10      0.06015  0.000256864  6.33127e-09      144.022 
         -10       0.0679  0.000254954  3.28382e-09      144.022 
         -10     0.076126   0.00027759 -4.64171e-10      144.022 
         -10     0.084816  0.000258382 -5.37442e-09      144.022 
         -10     0.093982  0.000265906 -1.04822e-08      144.022 
         -10     0.103611   0.00026828 -1.60791e-08      144.022 
         -10     0.113718  0.000268157 -2.20681e-08      144.022 
         -10     0.124286  0.000267425 -2.82598e-08      144.022 
         -10     0.135333  0.000267133 -3.44197e-08      144.022 
         -10      0.14685   0.00026755 -4.02457e-08      144.022 
         -10     0.158827  0.000268366 -4.54085e-08      144.022 
         -10     0.171284  0.000269028 -4.95862e-08      144.022 
         -10     0.184201   0.00026912  -5.2457e-08      144.022 
         -10     0.197599  0.000268691 -5.37306e-08      144.022 
         -10     0.211455  0.000268336 -5.31048e-08      144.022 
         -10     0.225792  0.000268762 -5.01953e-08      144.022 
         -10       0.2406  0.000269462 -4.43745e-08      144.022 
         -10     0.255865  0.000268485 -3.49367e-08      144.022 
         -10     0.271613   0.00026859 -2.25876e-08      144.022 
         -10     0.287818  0.000268502 -6.71269e-09      144.022 
         -10     0.304506  0.000268287  1.32534e-08      144.022 
         -10      0.32165  0.000267996  3.76607e-08      144.022 
         -10     0.339278  0.000267668  6.67901e-08      144.022 
         -10     0.357377  0.000267324  1.00752e-07      144.022 
         -10      0.37593  0.000266978  1.39556e-07      144.022 
         -10     0.394968  0.000266633   1.8328e-07      144.022 
         -10     0.414461  0.000266288  2.31875e-07      144.022 
         -10      0.43444  0.000265939  2.85494e-07      144.022 
         -10     0.454872  0.000265587    3.442e-07      144.022 
         -10     0.475791  0.000265236  4.08332e-07      144.022 
         -10     0.497163    0.0002649  4.78086e-07      144.022 
         -10     0.519021  0.000264598  5.53839e-07      144.022 
         -10      0.54135   0.00026435   6.3563e-07      144.022 
         -10     0.564131  0.000264167  7.23023e-07      144.022 
         -10       0.5874  0.000264031  8.14956e-07      144.022 
         -10     0.611121  0.000263883  9.09472e-07      144.022 
         -10      0.63533  0.000263845  1.01408e-06      144.022 
         -10      0.65999  0.000263866  1.12347e-06      144.022 
         -10     0.685139  0.000263948  1.23834e-06      144.022 
         -10     0.710759  0.000264093  1.35904e-06      144.022 
         -10     0.736828  0.000264297  1.48577e-06      144.022 
         -10     0.763387  0.000264557  1.61888e-06      144.022 
         -10     0.790396  0.000264869  1.75823e-06      144.022 
         -10     0.817896  0.000265226  1.90395e-06      144.022 
         -10     0.845843   0.00026562  2.05561e-06      144.022 
         -10     0.874283  0.000266042  2.21318e-06      144.022 
         -10      0.90317  0.000266481    2.376e-06      144.022 
         -10     0.932551  0.000266929  2.54387e-06      144.022 
         -10     0.962401  0.000267373  2.71613e-06      144.022 
         -10     0.992697  0.000267803  2.89206e-06      144.022 
         -10      1.02349  0.000268211  3.07136e-06      144.022 
         -10      1.05472  0.000268587  3.25313e-06      144.022 
         -10      1.08645  0.000268923  3.43708e-06      144.022 
         -10      1.11863  0.000269215  3.62238e-06      144.022 
         -10       1.1513  0.000269459  3.80882e-06      144.022 
         -10      1.18444  0.000269653  3.99583e-06      144.022 
         -10      1.21802  0.000269799  4.18287e-06      144.022 
         -10      1.25211  0.000269899  4.36996e-06      144.022 
         -10      1.28663  0.000269961   4.5565e-06      144.022 
         -10      1.32165  0.000269991  4.74259e-06      144.022 
         -10      1.35712  0.000269997  4.92763e-06      144.022 
         -10      1.39308  0.000269988  5.11157e-06      144.022 
         -10      1.42951  0.000269971  5.29371e-06      144.022 
         -10      1.46638  0.000269951  5.47308e-06      144.022 
         -10      1.50375  0.000269925  5.64868e-06      144.022 
         -10      1.54156   0.00026992  5.82737e-06      144.022 
         -10      1.57987  0.000269824   6.0005e-06      144.022 
         -10      1.61863  0.000269667    6.169e-06      144.022 
         -10      1.65788  0.000269484   6.3347e-06      144.022 
         -10      1.69757  0.000269301  6.49848e-06      144.022 
         -10      1.73776  0.000269142  6.66138e-06      144.022 
         -10      1.77842  0.000269026  6.82366e-06      144.022 
         -10      1.81952  0.000268969  6.98522e-06      144.022 
         -10      1.86113  0.000268981  7.14599e-06      144.022 
         -10      1.90316  0.000269067  7.30507e-06      144.022 
         -10      1.94571  0.000269231  7.46176e-06      144.022 
         -10      1.98869  0.000269469  7.61458e-06      144.022 
         -10      2.03217  0.000269778  7.76232e-06      144.021 
         -10      2.07612  0.000270149   7.9032e-06      144.021 
         -10      2.12051  0.000270571  8.03533e-06      144.021 
         -10       2.1654   0.00027103  8.15701e-06      144.021 
         -10      2.21073   0.00027151  8.26612e-06      144.021 
         -10      2.25656  0.000271996  8.36088e-06      144.021 
         -10      2.30283  0.000272468  8.43928e-06      144.021 
         -10       2.3496  0.000272911  8.49969e-06      144.021 
         -10      2.39685  0.000273305  8.54047e-06      144.021 
         -10      2.44452  0.000273635  8.56028e-06      144.021 
         -10      2.49271  0.000273885  8.55812e-06      144.021 
         -10      2.54132  0.000274042  8.53329e-06      144.021 
         -10      2.59044  0.000274096  8.48548e-06      144.021 
         -10         2.64   0.00027404  8.41489e-06      144.021 
         -10      2.69006  0.000273869  8.32204e-06      144.021 
         -10      2.74056  0.000273585   8.2082e-06      144.021 
         -10      2.79156  0.000273191   8.0748e-06      144.021 
         -10      2.84304  0.000272696  7.92408e-06      144.021 
         -10      2.89494  0.000272115  7.75879e-06       144.02 
         -10      2.94735  0.000271463  7.58177e-06       144.02 
         -10       3.0002  0.000270763  7.39675e-06       144.02 
         -10      3.05355  0.000270038  7.20724e-06       144.02 
         -10      3.10733  0.000269316  7.01748e-06       144.02 
         -10      3.16163  0.000268625  6.83118e-06       144.02 
         -10      3.21639  0.000267992  6.65236e-06       144.02 
         -10      3.27158  0.000267444  6.48462e-06       144.02 
         -10      3.32729  0.000267001  6.33051e-06       144.02 
         -10      3.38342  0.000266677  6.19212e-06       144.02 
         -10      3.44007  0.000266475   6.0697e-06       144.02 
         -10      3.49714  0.000266383  5.96208e-06      144.019 
         -10      3.55472  0.000266372  5.86543e-06      144.019 
         -10      3.61273  0.000266384  5.77328e-06      144.019 
         -10      3.67125  0.000266336  5.67528e-06      144.019 
         -10      3.73025  0.000266103  5.55689e-06      144.019 
         -10      3.78967  0.000265684  5.52464e-06      144.019 
         -10      3.84961  0.000265323  5.52304e-06      144.019 
         -10      3.90996  0.000265012   5.4873e-06      144.019 
         -10      3.97084  0.000264741  5.41804e-06      144.018 
         -10      4.03214  0.000264505  5.32141e-06      144.018 
         -10      4.09395  0.000264296   5.2065e-06      144.018 
         -10      4.15624  0.000264112  5.08358e-06      144.018 
         -10      4.21895  0.000263948  4.96177e-06      144.018 
         -10      4.28217    0.0002637  4.98916e-06      144.018 
         -10      4.34582  0.000263449  5.04148e-06      144.018 
         -10      4.40998  0.000263223  5.08063e-06      144.017 
         -10      4.47457  0.000263021  5.11196e-06      144.017 
         -10      4.53968  0.000262839  5.13889e-06      144.017 
         -10      4.60525  0.000262672  5.16341e-06      144.017 
         -10      4.67125  0.000262518  5.18678e-06      144.017 
         -10      4.73777  0.000262371  5.20997e-06      144.017 
         -10       4.8047  0.000262229  5.23374e-06      144.016 
         -10      4.87216  0.000262088  5.25873e-06      144.016 
         -10      4.94003  0.000261947  5.28502e-06      144.016 
         -10      5.00843  0.000261804  5.31158e-06      144.016 
         -10      5.07724  0.000261658  5.33511e-06      144.016 
         -10      5.14658  0.000261508  5.34873e-06      144.015 
         -10      5.21639   0.00026135  5.33995e-06      144.015 
         -10      5.28661  0.000261182   5.3071e-06      144.015 
         -10      5.35736  0.000261004  5.32234e-06      144.015 
         -10      5.42852  0.000260807  5.30382e-06      144.014 
         -10      5.50021  0.000260603  5.28013e-06      144.014 
         -10      5.57231    0.0002604   5.2702e-06      144.014 
         -10      5.64493  0.000260206  5.28493e-06      144.014 
         -10      5.71803  0.000260024  5.32897e-06      144.013 
         -10      5.79154  0.000259858  5.40225e-06      144.013 
         -10      5.86558  0.000259707  5.50173e-06      144.013 
         -10      5.94003   0.00025957  5.62241e-06      144.013 
         -10      6.01501  0.000259444  5.75915e-06      144.012 
         -10       6.0904  0.000259326  5.90697e-06      144.012 
         -10      6.16632   0.00025921  6.06277e-06      144.012 
         -10      6.24271  0.000259091  6.22502e-06      144.011 
         -10       6.3195  0.000258968   6.3944e-06      144.011 
         -10      6.39683  0.000258835  6.57409e-06      144.011 
         -10      6.47457  0.000258695  6.76831e-06       144.01 
         -10      6.55284   0.00025855  6.98249e-06       144.01 
         -10      6.63152  0.000258408  7.22058e-06       144.01 
         -10      6.71073  0.000258284  7.48439e-06      144.009 
         -10      6.79034  0.000258201  7.76943e-06      144.009 
         -10      6.87049   0.00025819  8.06323e-06      144.008 
         -10      6.95111  0.000258168  8.22745e-06      144.008 
         -10      7.03214  0.000257705  7.99709e-06      144.008 
         -10       7.1137  0.000257153  8.48972e-06      144.007 
         -10      7.19566  0.000256826  8.83917e-06      144.007 
         -10      7.27816  0.000256889  8.89814e-06      144.006 
         -10      7.36106  0.000256986  8.98373e-06      144.006 
         -10      7.44451   0.00025706  9.10403e-06      144.006 
         -10      7.52842  0.000257079    9.259e-06      144.005 
         -10      7.61273  0.000257033  9.44311e-06      144.005 
         -10      7.69758  0.000256924  9.64806e-06      144.004 
         -10      7.78283  0.000256766  9.86376e-06      144.004 
         -10      7.86862  0.000256579  1.00813e-05      144.003 
         -10      7.95481  0.000256382  1.02927e-05      144.003 
         -10      8.04155  0.000256192  1.04934e-05      144.002 
         -10      8.12868  0.000256025  1.06814e-05      144.001 
         -10      8.21635  0.000255886   1.0858e-05      144.001 
         -10      8.30449  0.000255775  1.10264e-05          144 
         -10      8.39303  0.000255687  1.11905e-05          144 
         -10      8.48211  0.000255609  1.13533e-05      143.999 
         -10      8.57159  0.000255527   1.1513e-05      143.999 
         -10      8.66161   0.00025543  1.16602e-05      143.998 
         -10      8.75203  0.000255312  1.17722e-05      143.997 
         -10      8.84299  0.000255187  1.18076e-05      143.997 
         -10      8.93443  0.000255166  1.19418e-05      143.996 
         -10      9.02626  0.000255177  1.22275e-05      143.995 
         -10      9.11863  0.000255125  1.23615e-05      143.995 
         -10      9.21139  0.000255051    1.238e-05      143.994 
         -10      9.30471  0.000254983  1.23715e-05      143.993 
         -10      9.39841  0.000254919   1.2471e-05      143.993 
         -10      9.49267  0.000254827   1.2856e-05      143.992 
         -10      9.58739  0.000254764  1.30276e-05      143.991 
         -10      9.68251   0.00025469  1.30031e-05       143.99 
         -10      9.77817  0.000254572  1.30296e-05       143.99 
         -10      9.87422  0.000254432  1.30866e-05      143.989 
         -10      9.97083  0.000254284  1.31613e-05      143.988 
         -10      10.0678  0.000254141   1.3246e-05      143.987 
         -10      10.1654  0.000254008  1.33356e-05      143.986 
         -10      10.2633  0.000253886  1.34254e-05      143.985 
         -10      10.3618  0.000253773  1.35106e-05      143.985 
         -10      10.4607  0.000253661  1.35855e-05      143.984 
         -10      10.5601  0.000253541  1.36441e-05      143.983 
         -10        10.66    0.0002534  1.36815e-05      143.982 
         -10      10.7603  0.000253229   1.3696e-05      143.981 
         -10      10.8611  0.000253021  1.36933e-05       143.98 
         -10      10.9623  0.000252777  1.36903e-05      143.979 
         -10      11.0641  0.000252509  1.37219e-05      143.978 
         -10      11.1663  0.000252249  1.38496e-05      143.977 
         -10       11.269  0.000252151  1.39906e-05      143.976 
         -10      11.3721  0.000252053  1.39827e-05      143.975 
         -10      11.4757  0.000251954   1.3914e-05      143.974 
         -10      11.5798  0.000251853  1.38515e-05      143.973 
         -10      11.6844  0.000251748  1.38417e-05      143.972 
         -10      11.7894   0.00025164  1.39109e-05       143.97 
         -10       11.895  0.000251529  1.40655e-05      143.969 
         -10      12.0009  0.000251413  1.42916e-05      143.968 
         -10      12.1073   0.00025129  1.45557e-05      143.967 
         -10      12.2142  0.000251157  1.48029e-05      143.966 
         -10      12.3216  0.000251011  1.49574e-05      143.965 
         -10      12.4294  0.000250845  1.49203e-05      143.963 
         -10      12.5378  0.000250785  1.49762e-05      143.962 
         -10      12.6465  0.000250831  1.53109e-05      143.961 
         -10      12.7558  0.000250839    1.558e-05      143.959 
         -10      12.8656  0.000250809  1.57832e-05      143.958 
         -10      12.9757  0.000250745  1.59238e-05      143.957 
         -10      13.0864  0.000250655  1.60094e-05      143.955 
         -10      13.1975   0.00025055  1.60524e-05      143.954 
         -10      13.3092  0.000250439  1.60701e-05      143.953 
         -10      13.4212   0.00025033  1.60827e-05      143.951 
         -10      13.5338  0.000250228  1.61122e-05       143.95 
         -10      13.6468  0.000250133  1.61778e-05      143.948 
         -10      13.7603   0.00025004  1.62923e-05      143.947 
         -10      13.8743  0.000249937  1.64563e-05      143.945 
         -10      13.9886  0.000249807    1.665e-05      143.944 
         -10      14.1036  0.000249626  1.68263e-05      143.942 
         -10      14.2189  0.000249365   1.6899e-05       143.94 
         -10      14.3348  0.000249176   1.6879e-05      143.939 
         -10       14.451  0.000249427  1.71794e-05      143.937 
         -10      14.5678  0.000249519    1.744e-05      143.935 
         -10      14.6851  0.000249495  1.76674e-05      143.934 
         -10      14.8028   0.00024939  1.78684e-05      143.932 
         -10       14.921  0.000249233  1.80507e-05       143.93 
         -10      15.0396  0.000249045  1.82211e-05      143.929 
         -10      15.1588  0.000248844  1.83866e-05      143.927 
         -10      15.2783  0.000248642  1.85532e-05      143.925 
         -10      15.3984  0.000248447  1.87265e-05      143.923 
         -10       15.519  0.000248264  1.89108e-05      143.921 
         -10        15.64  0.000248095  1.91095e-05      143.919 
         -10      15.7615   0.00024794   1.9325e-05      143.917 
         -10      15.8834  0.000247797  1.95581e-05      143.915 
         -10      16.0058  0.000247665  1.98087e-05      143.914 
         -10      16.1286  0.000247541  2.00752e-05      143.912 
         -10       16.252   0.00024742  2.03554e-05      143.909 
         -10      16.3759  0.000247302  2.06456e-05      143.907 
         -10      16.5002  0.000247184  2.09412e-05      143.905 
         -10       16.625  0.000247065  2.12379e-05      143.903 
         -10      16.7501  0.000246945  2.15302e-05      143.901 
         -10      16.8759  0.000246827  2.18139e-05      143.899 
         -10       17.002  0.000246711  2.20843e-05      143.897 
         -10      17.1287  0.000246603   2.2339e-05      143.895 
         -10      17.2557  0.000246507  2.25767e-05      143.892 
         -10      17.3834  0.000246428  2.27995e-05       143.89 
         -10      17.5115  0.000246371   2.3012e-05      143.888 
         -10      17.6399  0.000246341  2.32238e-05      143.885 
         -10       17.769  0.000246343    2.345e-05      143.883 
         -10      17.8984  0.000246379  2.37116e-05      143.881 
         -10      18.0284  0.000246446  2.40385e-05      143.878 
         -10      18.1587  0.000246088  2.45233e-05      143.876 
         -10      18.2896  0.000245432  2.44061e-05      143.873 
         -10       18.421  0.000244957     2.42e-05      143.871 
         -10      18.5528  0.000244955  2.45545e-05      143.868 
         -10      18.6851  0.000244989  2.48656e-05      143.866 
         -10      18.8178  0.000245032  2.51437e-05      143.863 
         -10      18.9511  0.000245065  2.53997e-05       143.86 
         -10      19.0847  0.000245077  2.56424e-05      143.858 
         -10      19.2189  0.000245063  2.58805e-05      143.855 
         -10      19.3535  0.000245021  2.61203e-05      143.852 
         -10      19.4886  0.000244954  2.63674e-05       143.85 
         -10      19.6242  0.000244866  2.66247e-05      143.847 
         -10      19.7602  0.000244762  2.68935e-05      143.844 
         -10      19.8968  0.000244647  2.71737e-05      143.841 
         -10      20.0337  0.000244527  2.74627e-05      143.838 
         -10      20.1712  0.000244404  2.77571e-05      143.835 
         -10      20.3091  0.000244281  2.80514e-05      143.832 
         -10      20.4475  0.000244159  2.83401e-05      143.829 
         -10      20.5864  0.000244038  2.86165e-05      143.826 
         -10      20.7257  0.000243915  2.88741e-05      143.823 
         -10      20.8655  0.000243787  2.91082e-05       143.82 
         -10      21.0058  0.000243652  2.93146e-05      143.817 
         -10      21.1465  0.000243507   2.9493e-05      143.814 
         -10      21.2877  0.000243354  2.96461e-05      143.811 
         -10      21.4294  0.000243195  2.97822e-05      143.808 
         -10      21.5716  0.000243042  2.99162e-05      143.805 
         -10      21.7142  0.000242912  3.00708e-05      143.801 
         -10      21.8573  0.000242833  3.02793e-05      143.798 
         -10      22.0008  0.000242849  3.05863e-05      143.795 
         -10      22.1449  0.000243017  3.10512e-05      143.791 
         -10      22.2893  0.000242831   3.1109e-05      143.788 
         -10      22.4344  0.000242521  3.11507e-05      143.784 
         -10      22.5797  0.000242176  3.12286e-05      143.781 
         -10      22.7257  0.000241824  3.13319e-05      143.778 
         -10      22.8721  0.000241495  3.14611e-05      143.774 
         -10      23.0189  0.000241214  3.16228e-05       143.77 
         -10      23.1663  0.000240998   3.1824e-05      143.767 
         -10       23.314  0.000240855  3.20649e-05      143.763 
         -10      23.4623  0.000240779  3.23344e-05       143.76 
         -10       23.611  0.000240743  3.26023e-05      143.756 
         -10      23.7602  0.000240702  3.28148e-05      143.752 
         -10        23.91  0.000240582  3.28873e-05      143.748 
         -10        24.06  0.000240287  3.28642e-05      143.744 
         -10      24.2107  0.000239996  3.32073e-05      143.741 
         -10      24.3617  0.000239804  3.34902e-05      143.737 
         -10      24.5133  0.000239661  3.37359e-05      143.733 
         -10      24.6653  0.000239534  3.39625e-05      143.729 
         -10      24.8178    0.0002394  3.41844e-05      143.725 
         -10      24.9708  0.000239244  3.44118e-05      143.721 
         -10      25.1242  0.000239063   3.4651e-05      143.717 
         -10      25.2781  0.000238859  3.49057e-05      143.713 
         -10      25.4324   0.00023864  3.51759e-05      143.709 
         -10      25.5873  0.000238419  3.54603e-05      143.704 
         -10      25.7426  0.000238209  3.57556e-05        143.7 
         -10      25.8984  0.000238022  3.60587e-05      143.696 
         -10      26.0546  0.000237868  3.63663e-05      143.692 
         -10      26.2114  0.000237751  3.66779e-05      143.687 
         -10      26.3686  0.000237664  3.69956e-05      143.683 
         -10      26.5262  0.000237589  3.73261e-05      143.679 
         -10      26.6844  0.000237494  3.76832e-05      143.674 
         -10      26.8429  0.000237325  3.80884e-05       143.67 
         -10       27.002  0.000237007  3.85696e-05      143.665 
         -10      27.1615  0.000236863  3.85154e-05      143.661 
         -10      27.3216  0.000236687  3.85084e-05      143.656 
         -10      27.4821    0.0002365   3.8556e-05      143.652 
         -10       27.643  0.000236314   3.8658e-05      143.647 
         -10      27.8044   0.00023614  3.88087e-05      143.642 
         -10      27.9663  0.000235979  3.89984e-05      143.638 
         -10      28.1287  0.000235834  3.92152e-05      143.633 
         -10      28.2914  0.000235699  3.94459e-05      143.628 
         -10      28.4548  0.000235572  3.96783e-05      143.623 
         -10      28.6185  0.000235445   3.9901e-05      143.618 
         -10      28.7828  0.000235312  4.01058e-05      143.613 
         -10      28.9475  0.000235168  4.02871e-05      143.608 
         -10      29.1126  0.000235009  4.04433e-05      143.603 
         -10      29.2784  0.000234835  4.05774e-05      143.598 
         -10      29.4444  0.000234648  4.06961e-05      143.593 
         -10       29.611  0.000234457   4.0811e-05      143.588 
         -10       29.778  0.000234276   4.0937e-05      143.583 
         -10      29.9456  0.000234125  4.10929e-05      143.578 
         -10      30.1137  0.000234036  4.12996e-05      143.573 
         -10      30.2821  0.000234047  4.15791e-05      143.567 
         -10      30.4511  0.000233845  4.17136e-05      143.562 
         -10      30.6204  0.000233651  4.18719e-05      143.557 
         -10      30.7903  0.000233471  4.20487e-05      143.551 
         -10      30.9606  0.000233297  4.22333e-05      143.546 
         -10      31.1315  0.000233122  4.24164e-05      143.541 
         -10      31.3028  0.000232936  4.25907e-05      143.535 
         -10      31.4745  0.000232731  4.27523e-05       143.53 
         -10      31.6468  0.000232499  4.29023e-05      143.524 
         -10      31.8194  0.000232237  4.30464e-05      143.518 
         -10      31.9926  0.000231947  4.31967e-05      143.513 
         -10      32.1662  0.000231636  4.33713e-05      143.507 
         -10      32.3404   0.00023132  4.35953e-05      143.501 
         -10      32.5149  0.000231024  4.39001e-05      143.496 
         -10        32.69  0.000230784  4.43247e-05       143.49 
         -10      32.8655  0.000230648  4.49135e-05      143.484 
         -10      33.0414  0.000230679  4.57165e-05      143.478 
         -10       33.218  0.000230529  4.54495e-05      143.472 
         -10      33.3948  0.000230231  4.49153e-05      143.466 
         -10      33.5723  0.000229945  4.46794e-05       143.46 
         -10        33.75  0.000229672  4.46651e-05      143.454 
         -10      33.9284  0.000229409  4.48055e-05      143.448 
         -10      34.1073  0.000229156   4.5044e-05      143.442 
         -10      34.2865  0.000228909  4.53334e-05      143.436 
         -10      34.4663  0.000228665  4.56367e-05       143.43 
         -10      34.6465  0.000228424  4.59255e-05      143.424 
         -10      34.8272  0.000228183  4.61808e-05      143.417 
         -10      35.0083  0.000227942  4.63915e-05      143.411 
         -10        35.19  0.000227703  4.65549e-05      143.405 
         -10      35.3721  0.000227469  4.66751e-05      143.398 
         -10      35.5546  0.000227245  4.67635e-05      143.392 
         -10      35.7377  0.000227037  4.68373e-05      143.386 
         -10      35.9211  0.000226857  4.69192e-05      143.379 
         -10      36.1052  0.000226714  4.70366e-05      143.372 
         -10      36.2895  0.000226624  4.72203e-05      143.366 
         -10      36.4745  0.000226602  4.75044e-05      143.359 
         -10      36.6598  0.000226666  4.79242e-05      143.353 
         -10      36.8457  0.000226618  4.84015e-05      143.346 
         -10      37.0321  0.000226035  4.86109e-05      143.339 
         -10      37.2188  0.000225498  4.87912e-05      143.333 
         -10      37.4062  0.000225016  4.89465e-05      143.326 
         -10      37.5938  0.000224597  4.90815e-05      143.319 
         -10      37.7821  0.000224247  4.92023e-05      143.312 
         -10      37.9707  0.000223966  4.93156e-05      143.305 
         -10      38.1599  0.000223755  4.94291e-05      143.298 
         -10      38.3496  0.000223607  4.95506e-05      143.291 
         -10      38.5396  0.000223512  4.96884e-05      143.284 
         -10      38.7302  0.000223454  4.98508e-05      143.277 
         -10      38.9211  0.000223412  5.00453e-05       143.27 
         -10      39.1127  0.000223356  5.02794e-05      143.263 
         -10      39.3046  0.000223249  5.05588e-05      143.256 
         -10      39.4971  0.000223046  5.08887e-05      143.248 
         -10      39.6899  0.000222693  5.12713e-05      143.241 
         -10      39.8833  0.000222123  5.17079e-05      143.234 
         -10      40.0772  0.000221347   5.2062e-05      143.226 
         -10      40.2714  0.000221121  5.15114e-05      143.219 
         -10      40.4663   0.00022091  5.11703e-05      143.212 
         -10      40.6615  0.000220706  5.09937e-05      143.204 
         -10      40.8573  0.000220503   5.0942e-05      143.197 
         -10      41.0534  0.000220297  5.09817e-05      143.189 
         -10      41.2501  0.000220086  5.10844e-05      143.182 
         -10      41.4473  0.000219868  5.12266e-05      143.174 
         -10      41.6448  0.000219645  5.13891e-05      143.166 
         -10      41.8429  0.000219417  5.15573e-05      143.159 
         -10      42.0414  0.000219186  5.17199e-05      143.151 
         -10      42.2405  0.000218952  5.18692e-05      143.143 
         -10      42.4399  0.000218718  5.20002e-05      143.136 
         -10      42.6399  0.000218483  5.21108e-05      143.128 
         -10      42.8404   0.00021825  5.22007e-05       143.12 
         -10      43.0412  0.000218019  5.22716e-05      143.112 
         -10      43.2426  0.000217789  5.23267e-05      143.104 
         -10      43.4444  0.000217559  5.23702e-05      143.096 
         -10      43.6467  0.000217328   5.2407e-05      143.088 
         -10      43.8494  0.000217095  5.24425e-05       143.08 
         -10      44.0527  0.000216856  5.24819e-05      143.072 
         -10      44.2563   0.00021661  5.25304e-05      143.064 
         -10      44.4606  0.000216354  5.25923e-05      143.056 
         -10      44.6653  0.000216085  5.26712e-05      143.048 
         -10      44.8704  0.000215801  5.27691e-05      143.039 
         -10       45.076  0.000215501   5.2887e-05      143.031 
         -10       45.282  0.000215186  5.30237e-05      143.023 
         -10      45.4886  0.000214858  5.31761e-05      143.014 
         -10      45.6955   0.00021452  5.33388e-05      143.006 
         -10       45.903   0.00021418  5.35039e-05      142.998 
         -10      46.1111   0.00021385  5.36606e-05      142.989 
         -10      46.3194  0.000213544  5.37954e-05      142.981 
         -10      46.5283  0.000213283  5.38916e-05      142.972 
         -10      46.7376  0.000213095  5.39291e-05      142.964 
         -10      46.9475  0.000213013  5.38848e-05      142.955 
         -10      47.1577  0.000213079  5.37319e-05      142.947 
         -10      47.3685  0.000213278  5.34944e-05      142.938 
         -10      47.5798  0.000212922  5.36918e-05      142.929 
         -10      47.7914  0.000212554  5.38566e-05      142.921 
         -10      48.0037  0.000212181  5.39914e-05      142.912 