Variables = x, y, u, v, p

Zone, I=800, F=POINT
         500            0           -0           -0      10.1125 
         500     0.000234 -3.96832e-06 -1.92619e-11      10.1125 
         500     0.000939  -1.5191e-05 -3.04012e-10      10.1125 
         500     0.002113 -3.16297e-05 -1.53454e-09      10.1125 
         500     0.003759 -5.05719e-05 -4.85417e-09      10.1125 
         500     0.005872 -6.92034e-05 -1.18503e-08      10.1125 
         500     0.008457 -8.55399e-05 -2.46014e-08      10.1125 
         500      0.01151 -9.87815e-05 -4.56196e-08      10.1125 
         500     0.015036 -0.000109584  -7.7945e-08      10.1125 
         500     0.019031 -0.000119659  -1.2502e-07      10.1125 
         500     0.023493 -0.000131085  -1.9074e-07      10.1125 
         500     0.028429 -0.000145371 -2.79601e-07      10.1125 
         500     0.033831 -0.000162589 -3.96283e-07      10.1125 
         500     0.039706 -0.000181215 -5.46166e-07      10.1125 
         500     0.046047 -0.000198707 -7.34678e-07      10.1125 
         500     0.052863 -0.000213218  -9.6804e-07      10.1125 
         500      0.06015 -0.000225449 -1.25239e-06      10.1125 
         500       0.0679 -0.000239136 -1.59382e-06      10.1125 
         500     0.076126 -0.000256347 -1.99951e-06      10.1125 
         500     0.084816 -0.000265314 -2.47552e-06      10.1125 
         500     0.093982  -0.00027713 -3.02921e-06      10.1125 
         500     0.103611 -0.000286693 -3.66633e-06      10.1125 
         500     0.113718 -0.000294267 -4.39427e-06      10.1125 
         500     0.124286 -0.000300009 -5.21789e-06      10.1125 
         500     0.135333 -0.000304009  -6.1443e-06      10.1125 
         500      0.14685 -0.000306258 -7.17811e-06      10.1125 
         500     0.158827   -0.0003067 -8.32307e-06      10.1125 
         500     0.171284 -0.000305277 -9.58521e-06      10.1125 
         500     0.184201 -0.000301977  -1.0966e-05      10.1125 
         500     0.197599 -0.000296874 -1.24703e-05      10.1125 
         500     0.211455 -0.000290162 -1.40977e-05      10.1125 
         500     0.225792 -0.000282052 -1.58521e-05      10.1125 
         500       0.2406 -0.000272623 -1.77328e-05      10.1125 
         500     0.255865 -0.000261764 -1.97378e-05      10.1125 
         500     0.271613 -0.000250005 -2.18694e-05      10.1125 
         500     0.287818 -0.000237372 -2.41225e-05      10.1125 
         500     0.304506 -0.000224033 -2.64985e-05      10.1125 
         500      0.32165 -0.000210198 -2.89909e-05      10.1125 
         500     0.339278 -0.000196032 -3.16005e-05      10.1125 
         500     0.357377 -0.000181723 -3.43218e-05      10.1125 
         500      0.37593 -0.000167454 -3.71482e-05      10.1125 
         500     0.394968 -0.000153361 -4.00803e-05      10.1125 
         500     0.414461 -0.000139612  -4.3109e-05      10.1125 
         500      0.43444 -0.000126319  -4.6235e-05      10.1125 
         500     0.454872 -0.000113622 -4.94485e-05      10.1125 
         500     0.475791 -0.000101605 -5.27506e-05      10.1125 
         500     0.497163 -9.03785e-05 -5.61319e-05      10.1125 
         500     0.519021 -8.00028e-05 -5.95935e-05      10.1125 
         500      0.54135 -7.05495e-05 -6.31292e-05      10.1125 
         500     0.564131 -6.20735e-05  -6.6732e-05      10.1125 
         500       0.5874 -5.45916e-05 -7.04037e-05      10.1125 
         500     0.611121  -4.8126e-05 -7.41345e-05      10.1125 
         500      0.63533 -4.26932e-05   -7.793e-05      10.1125 
         500      0.65999 -3.82783e-05 -8.17777e-05      10.1125 
         500     0.685139 -3.48624e-05 -8.56808e-05      10.1125 
         500     0.710759 -3.24254e-05 -8.96339e-05      10.1125 
         500     0.736828 -3.09329e-05 -9.36304e-05      10.1125 
         500     0.763387 -3.03357e-05 -9.76732e-05      10.1125 
         500     0.790396  -3.0577e-05 -0.000101753      10.1125 
         500     0.817896 -3.15893e-05 -0.000105871      10.1125 
         500     0.845843 -3.32937e-05 -0.000110017      10.1125 
         500     0.874283 -3.56075e-05 -0.000114193      10.1125 
         500      0.90317 -3.84347e-05 -0.000118388      10.1125 
         500     0.932551 -4.16821e-05 -0.000122604      10.1125 
         500     0.962401  -4.5246e-05 -0.000126832      10.1125 
         500     0.992697 -4.90205e-05 -0.000131063      10.1125 
         500      1.02349 -5.29092e-05 -0.000135298      10.1125 
         500      1.05472 -5.68057e-05 -0.000139526      10.1125 
         500      1.08645 -6.06211e-05 -0.000143747      10.1125 
         500      1.11863 -6.42612e-05 -0.000147949      10.1125 
         500       1.1513 -6.76527e-05 -0.000152133      10.1125 
         500      1.18444 -7.07249e-05 -0.000156291      10.1125 
         500      1.21802 -7.34208e-05 -0.000160414      10.1125 
         500      1.25211 -7.57047e-05 -0.000164504      10.1125 
         500      1.28663  -7.7548e-05 -0.000168549      10.1125 
         500      1.32165  -7.8945e-05 -0.000172552      10.1125 
         500      1.35712 -7.99001e-05 -0.000176504      10.1125 
         500      1.39308 -8.04359e-05 -0.000180407      10.1125 
         500      1.42951 -8.05844e-05 -0.000184255      10.1125 
         500      1.46638 -8.03869e-05 -0.000188046      10.1125 
         500      1.50375 -7.98868e-05 -0.000191783      10.1125 
         500      1.54156 -7.89515e-05 -0.000195435      10.1125 
         500      1.57987 -7.79033e-05 -0.000199034      10.1125 
         500      1.61863 -7.67769e-05 -0.000202571      10.1125 
         500      1.65788 -7.55846e-05 -0.000206048      10.1125 
         500      1.69757 -7.43409e-05 -0.000209452      10.1125 
         500      1.73776 -7.30557e-05 -0.000212786      10.1125 
         500      1.77842 -7.17403e-05 -0.000216041      10.1125 
         500      1.81952 -7.04054e-05 -0.000219211      10.1125 
         500      1.86113 -6.90568e-05 -0.000222297      10.1125 
         500      1.90316 -6.77038e-05 -0.000225289      10.1125 
         500      1.94571 -6.63501e-05 -0.000228188      10.1125 
         500      1.98869 -6.50025e-05 -0.000230985      10.1125 
         500      2.03217 -6.36624e-05 -0.000233681      10.1125 
         500      2.07612 -6.23335e-05 -0.000236271      10.1125 
         500      2.12051 -6.10183e-05 -0.000238749      10.1125 
         500       2.1654 -5.97154e-05 -0.000241115      10.1125 
         500      2.21073 -5.84267e-05 -0.000243363      10.1125 
         500      2.25656 -5.71495e-05 -0.000245492      10.1125 
         500      2.30283 -5.58842e-05 -0.000247497      10.1125 
         500       2.3496 -5.46271e-05 -0.000249378      10.1125 
         500      2.39685 -5.33769e-05 -0.000251131      10.1125 
         500      2.44452 -5.21324e-05 -0.000252751      10.1125 
         500      2.49271 -5.08892e-05  -0.00025424      10.1125 
         500      2.54132 -4.96471e-05 -0.000255591      10.1125 
         500      2.59044 -4.84021e-05 -0.000256805      10.1125 
         500         2.64 -4.71548e-05 -0.000257878      10.1125 
         500      2.69006 -4.59021e-05  -0.00025881      10.1125 
         500      2.74056 -4.46459e-05 -0.000259598      10.1125 
         500      2.79156 -4.33848e-05 -0.000260241      10.1125 
         500      2.84304 -4.21211e-05 -0.000260737      10.1125 
         500      2.89494 -4.08583e-05 -0.000261085      10.1125 
         500      2.94735 -3.95978e-05 -0.000261286      10.1125 
         500       3.0002 -3.83462e-05 -0.000261339      10.1125 
         500      3.05355 -3.71069e-05 -0.000261244      10.1125 
         500      3.10733 -3.58882e-05 -0.000261003      10.1125 
         500      3.16163 -3.46951e-05 -0.000260616      10.1126 
         500      3.21639 -3.35364e-05 -0.000260088      10.1126 
         500      3.27158 -3.24206e-05 -0.000259422      10.1126 
         500      3.32729 -3.13536e-05 -0.000258622      10.1126 
         500      3.38342 -3.03443e-05 -0.000257695      10.1126 
         500      3.44007 -2.93967e-05  -0.00025665      10.1126 
         500      3.49714 -2.85162e-05 -0.000255496      10.1126 
         500      3.55472 -2.77027e-05 -0.000254245      10.1126 
         500      3.61273 -2.69546e-05 -0.000252912      10.1126 
         500      3.67125 -2.62633e-05 -0.000251515      10.1126 
         500      3.73025 -2.56155e-05 -0.000250074      10.1126 
         500      3.78967 -2.51193e-05 -0.000248389      10.1126 
         500      3.84961 -2.48099e-05 -0.000246549      10.1126 
         500      3.90996 -2.46406e-05 -0.000244662      10.1126 
         500      3.97084 -2.46042e-05 -0.000242725      10.1126 
         500      4.03214 -2.46932e-05 -0.000240737      10.1126 
         500      4.09395 -2.48993e-05 -0.000238696      10.1126 
         500      4.15624 -2.52131e-05 -0.000236601      10.1126 
         500      4.21895 -2.56246e-05 -0.000234454      10.1126 
         500      4.28217 -2.61243e-05 -0.000232252      10.1126 
         500      4.34582 -2.67008e-05     -0.00023      10.1126 
         500      4.40998 -2.73133e-05 -0.000227695      10.1126 
         500      4.47457 -2.79681e-05 -0.000225349      10.1126 
         500      4.53968 -2.86655e-05 -0.000222964      10.1126 
         500      4.60525 -2.93967e-05 -0.000220546      10.1126 
         500      4.67125 -3.01527e-05 -0.000218105      10.1126 
         500      4.73777 -3.09262e-05 -0.000215641      10.1126 
         500       4.8047 -3.17079e-05 -0.000213162      10.1126 
         500      4.87216 -3.24913e-05 -0.000210669      10.1126 
         500      4.94003 -3.32677e-05  -0.00020817      10.1126 
         500      5.00843 -3.40317e-05 -0.000205664      10.1126 
         500      5.07724 -3.47758e-05  -0.00020316      10.1126 
         500      5.14658 -3.54957e-05 -0.000200654      10.1126 
         500      5.21639 -3.61864e-05 -0.000198153      10.1126 
         500      5.28661 -3.68434e-05  -0.00019566      10.1126 
         500      5.35736  -3.7465e-05 -0.000193173      10.1126 
         500      5.42852 -3.80485e-05 -0.000190698      10.1126 
         500      5.50021 -3.85937e-05 -0.000188231      10.1126 
         500      5.57231 -3.90999e-05 -0.000185779      10.1126 
         500      5.64493 -3.95688e-05 -0.000183336      10.1126 
         500      5.71803 -4.00016e-05 -0.000180907      10.1126 
         500      5.79154 -4.04005e-05 -0.000178493      10.1126 
         500      5.86558  -4.0769e-05 -0.000176091      10.1126 
         500      5.94003 -4.11098e-05 -0.000173705      10.1126 
         500      6.01501 -4.14266e-05 -0.000171333      10.1126 
         500       6.0904 -4.17221e-05 -0.000168978      10.1126 
         500      6.16632 -4.19993e-05 -0.000166639      10.1126 
         500      6.24271 -4.22595e-05 -0.000164319      10.1126 
         500       6.3195 -4.25023e-05 -0.000162022      10.1126 
         500      6.39683 -4.27262e-05 -0.000159748      10.1126 
         500      6.47457 -4.29262e-05 -0.000157503      10.1126 
         500      6.55284 -4.30942e-05 -0.000155291      10.1126 
         500      6.63152 -4.32178e-05 -0.000153121      10.1126 
         500      6.71073 -4.34402e-05 -0.000150916      10.1126 
         500      6.79034 -4.36566e-05 -0.000148717      10.1126 
         500      6.87049 -4.38262e-05 -0.000146544      10.1126 
         500      6.95111 -4.39599e-05 -0.000144401      10.1126 
         500      7.03214  -4.4067e-05 -0.000142287      10.1126 
         500       7.1137 -4.41556e-05 -0.000140198      10.1126 
         500      7.19566 -4.42322e-05 -0.000138134      10.1126 
         500      7.27816 -4.43021e-05  -0.00013609      10.1126 
         500      7.36106 -4.43693e-05 -0.000134067      10.1126 
         500      7.44451 -4.44366e-05 -0.000132058      10.1126 
         500      7.52842 -4.45061e-05 -0.000130065      10.1126 
         500      7.61273 -4.45786e-05 -0.000128086      10.1126 
         500      7.69758 -4.46546e-05 -0.000126117      10.1126 
         500      7.78283 -4.47333e-05 -0.000124161      10.1126 
         500      7.86862 -4.48142e-05 -0.000122214      10.1126 
         500      7.95481 -4.48955e-05 -0.000120281      10.1126 
         500      8.04155  -4.4976e-05  -0.00011836      10.1126 
         500      8.12868 -4.50538e-05 -0.000116457      10.1126 
         500      8.21635 -4.51272e-05 -0.000114571      10.1126 
         500      8.30449 -4.51946e-05 -0.000112707      10.1126 
         500      8.39303 -4.52548e-05  -0.00011087      10.1126 
         500      8.48211 -4.53069e-05  -0.00010906      10.1126 
         500      8.57159 -4.53506e-05 -0.000107284      10.1126 
         500      8.66161 -4.53863e-05  -0.00010554      10.1126 
         500      8.75203 -4.54153e-05 -0.000103833      10.1126 
         500      8.84299 -4.54397e-05 -0.000102158      10.1126 
         500      8.93443 -4.54628e-05 -0.000100513      10.1126 
         500      9.02626 -4.54891e-05 -9.88933e-05      10.1126 
         500      9.11863 -4.55262e-05 -9.72734e-05      10.1126 
         500      9.21139 -4.55782e-05 -9.55939e-05      10.1126 
         500      9.30471 -4.56219e-05 -9.39352e-05      10.1126 
         500      9.39841 -4.56567e-05 -9.23065e-05      10.1126 
         500      9.49267 -4.56831e-05 -9.07149e-05      10.1126 
         500      9.58739 -4.57034e-05 -8.91746e-05      10.1126 
         500      9.68251 -4.57223e-05 -8.77038e-05      10.1126 
         500      9.77817 -4.57473e-05 -8.63216e-05      10.1126 
         500      9.87422 -4.57867e-05 -8.50222e-05      10.1126 
         500      9.97083 -4.58133e-05 -8.33928e-05      10.1126 
         500      10.0678 -4.58596e-05 -8.18013e-05      10.1126 
         500      10.1654 -4.59164e-05 -8.02493e-05      10.1126 
         500      10.2633 -4.59764e-05 -7.87415e-05      10.1126 
         500      10.3618 -4.60342e-05 -7.72761e-05      10.1126 
         500      10.4607  -4.6086e-05 -7.58532e-05      10.1126 
         500      10.5601 -4.61293e-05 -7.44721e-05      10.1126 
         500        10.66 -4.61627e-05 -7.31273e-05      10.1126 
         500      10.7603  -4.6186e-05 -7.18175e-05      10.1126 
         500      10.8611    -4.62e-05 -7.05365e-05      10.1126 
         500      10.9623 -4.62059e-05 -6.92822e-05      10.1126 
         500      11.0641 -4.62057e-05 -6.80486e-05      10.1126 
         500      11.1663 -4.62015e-05 -6.68325e-05      10.1126 
         500       11.269 -4.61959e-05 -6.56316e-05      10.1126 
         500      11.3721 -4.61913e-05 -6.44407e-05      10.1126 
         500      11.4757 -4.61903e-05 -6.32594e-05      10.1126 
         500      11.5798 -4.61951e-05 -6.20841e-05      10.1126 
         500      11.6844 -4.62077e-05 -6.09155e-05      10.1126 
         500      11.7894 -4.62298e-05 -5.97513e-05      10.1126 
         500       11.895 -4.62807e-05 -5.86022e-05      10.1126 
         500      12.0009 -4.63548e-05 -5.74717e-05      10.1126 
         500      12.1073 -4.64311e-05 -5.63545e-05      10.1126 
         500      12.2142  -4.6503e-05 -5.52574e-05      10.1126 
         500      12.3216 -4.65644e-05 -5.41849e-05      10.1126 
         500      12.4294 -4.66091e-05 -5.31446e-05      10.1126 
         500      12.5378 -4.66322e-05 -5.21392e-05      10.1126 
         500      12.6465  -4.6631e-05 -5.11717e-05      10.1126 
         500      12.7558 -4.66059e-05 -5.02365e-05      10.1126 
         500      12.8656  -4.6562e-05 -4.93226e-05      10.1126 
         500      12.9757 -4.65104e-05  -4.8408e-05      10.1126 
         500      13.0864 -4.64698e-05 -4.74543e-05      10.1126 
         500      13.1975 -4.64691e-05 -4.64078e-05      10.1126 
         500      13.3092 -4.65282e-05    -4.53e-05      10.1126 
         500      13.4212 -4.66137e-05 -4.44784e-05      10.1126 
         500      13.5338  -4.6791e-05   -4.372e-05      10.1126 
         500      13.6468 -4.69156e-05 -4.29735e-05      10.1126 
         500      13.7603  -4.6676e-05 -4.20425e-05      10.1126 
         500      13.8743 -4.65293e-05 -4.11612e-05      10.1126 
         500      13.9886 -4.64549e-05 -4.03177e-05      10.1126 
         500      14.1036 -4.64343e-05 -3.94997e-05      10.1126 
         500      14.2189 -4.64521e-05    -3.87e-05      10.1126 
         500      14.3348  -4.6495e-05 -3.79107e-05      10.1126 
         500       14.451 -4.65521e-05 -3.71284e-05      10.1126 
         500      14.5678 -4.66146e-05 -3.63488e-05      10.1126 
         500      14.6851 -4.66754e-05 -3.55709e-05      10.1126 
         500      14.8028 -4.67294e-05 -3.47952e-05      10.1126 
         500       14.921 -4.67729e-05 -3.40211e-05      10.1127 
         500      15.0396 -4.68034e-05 -3.32515e-05      10.1127 
         500      15.1588 -4.68199e-05 -3.24874e-05      10.1127 
         500      15.2783 -4.68221e-05 -3.17327e-05      10.1127 
         500      15.3984 -4.68109e-05 -3.09893e-05      10.1127 
         500       15.519 -4.67877e-05  -3.0261e-05      10.1127 
         500        15.64 -4.67542e-05 -2.95514e-05      10.1127 
         500      15.7615 -4.67129e-05 -2.88624e-05      10.1127 
         500      15.8834 -4.66663e-05 -2.81975e-05      10.1127 
         500      16.0058 -4.66207e-05 -2.75642e-05      10.1127 
         500      16.1286 -4.65887e-05  -2.6975e-05      10.1127 
         500       16.252 -4.65639e-05 -2.64083e-05      10.1127 
         500      16.3759 -4.65486e-05 -2.58623e-05      10.1127 
         500      16.5002 -4.65448e-05 -2.53347e-05      10.1127 
         500       16.625 -4.65531e-05 -2.48216e-05      10.1127 
         500      16.7501 -4.65734e-05 -2.43202e-05      10.1127 
         500      16.8759 -4.66049e-05 -2.38259e-05      10.1127 
         500       17.002 -4.66456e-05 -2.33357e-05      10.1127 
         500      17.1287 -4.66928e-05 -2.28451e-05      10.1127 
         500      17.2557 -4.67431e-05 -2.23516e-05      10.1127 
         500      17.3834 -4.67928e-05 -2.18514e-05      10.1127 
         500      17.5115 -4.68375e-05 -2.13434e-05      10.1127 
         500      17.6399 -4.68731e-05 -2.08271e-05      10.1127 
         500       17.769  -4.6896e-05 -2.03029e-05      10.1127 
         500      17.8984  -4.6903e-05 -1.97746e-05      10.1127 
         500      18.0284 -4.68924e-05 -1.92469e-05      10.1127 
         500      18.1587 -4.68643e-05 -1.87292e-05      10.1127 
         500      18.2896 -4.68212e-05 -1.82328e-05      10.1127 
         500       18.421 -4.67689e-05 -1.77744e-05      10.1127 
         500      18.5528 -4.67171e-05 -1.73755e-05      10.1127 
         500      18.6851 -4.66803e-05 -1.70621e-05      10.1127 
         500      18.8178 -4.66791e-05 -1.68678e-05      10.1127 
         500      18.9511 -4.67409e-05 -1.68325e-05      10.1127 
         500      19.0847   -4.666e-05  -1.6243e-05      10.1127 
         500      19.2189 -4.66122e-05 -1.56197e-05      10.1127 
         500      19.3535 -4.66613e-05 -1.51385e-05      10.1127 
         500      19.4886 -4.67966e-05 -1.47841e-05      10.1127 
         500      19.6242  -4.6875e-05 -1.44522e-05      10.1127 
         500      19.7602 -4.69075e-05 -1.41308e-05      10.1127 
         500      19.8968 -4.69079e-05 -1.38165e-05      10.1127 
         500      20.0337 -4.68876e-05 -1.35076e-05      10.1127 
         500      20.1712 -4.68558e-05  -1.3202e-05      10.1127 
         500      20.3091 -4.68198e-05 -1.28991e-05      10.1127 
         500      20.4475 -4.67854e-05 -1.25979e-05      10.1127 
         500      20.5864 -4.67566e-05 -1.22985e-05      10.1127 
         500      20.7257 -4.67362e-05 -1.20012e-05      10.1127 
         500      20.8655 -4.67257e-05  -1.1706e-05      10.1127 
         500      21.0058 -4.67258e-05 -1.14141e-05      10.1127 
         500      21.1465 -4.67362e-05 -1.11256e-05      10.1127 
         500      21.2877 -4.67559e-05 -1.08418e-05      10.1127 
         500      21.4294 -4.67835e-05 -1.05632e-05      10.1127 
         500      21.5716  -4.6817e-05 -1.02906e-05      10.1128 
         500      21.7142 -4.68545e-05 -1.00251e-05      10.1128 
         500      21.8573 -4.68938e-05 -9.76668e-06      10.1128 
         500      22.0008 -4.69326e-05 -9.51632e-06      10.1128 
         500      22.1449  -4.6969e-05 -9.27385e-06      10.1128 
         500      22.2893  -4.7001e-05 -9.03973e-06      10.1128 
         500      22.4344 -4.70273e-05 -8.81347e-06      10.1128 
         500      22.5797 -4.70465e-05 -8.59512e-06      10.1128 
         500      22.7257  -4.7058e-05 -8.38388e-06      10.1128 
         500      22.8721 -4.70615e-05 -8.17927e-06      10.1128 
         500      23.0189  -4.7057e-05 -7.98071e-06      10.1128 
         500      23.1663 -4.70452e-05 -7.78705e-06      10.1128 
         500       23.314 -4.70272e-05 -7.59776e-06      10.1128 
         500      23.4623 -4.70042e-05 -7.41177e-06      10.1128 
         500       23.611 -4.69781e-05 -7.22872e-06      10.1128 
         500      23.7602 -4.69507e-05 -7.04792e-06      10.1128 
         500        23.91  -4.6924e-05 -6.86948e-06      10.1128 
         500        24.06 -4.68999e-05 -6.69401e-06      10.1128 
         500      24.2107 -4.68801e-05 -6.52229e-06      10.1128 
         500      24.3617 -4.68658e-05 -6.35653e-06      10.1128 
         500      24.5133 -4.68572e-05 -6.19934e-06      10.1128 
         500      24.6653 -4.68539e-05 -6.05507e-06      10.1128 
         500      24.8178 -4.68539e-05 -5.92904e-06      10.1128 
         500      24.9708 -4.68535e-05 -5.82858e-06      10.1128 
         500      25.1242 -4.68469e-05 -5.76291e-06      10.1128 
         500      25.2781 -4.68586e-05 -5.68887e-06      10.1128 
         500      25.4324 -4.69984e-05 -5.42982e-06      10.1128 
         500      25.5873 -4.71035e-05  -5.2349e-06      10.1128 
         500      25.7426 -4.71716e-05 -5.07785e-06      10.1128 
         500      25.8984 -4.72043e-05 -4.93515e-06      10.1128 
         500      26.0546 -4.72075e-05 -4.78698e-06      10.1128 
         500      26.2114 -4.71913e-05 -4.61612e-06      10.1128 
         500      26.3686 -4.71613e-05 -4.52457e-06      10.1128 
         500      26.5262 -4.71376e-05 -4.53132e-06      10.1128 
         500      26.6844 -4.71282e-05 -4.50525e-06      10.1129 
         500      26.8429  -4.7126e-05 -4.45097e-06      10.1129 
         500       27.002 -4.71251e-05 -4.37281e-06      10.1129 
         500      27.1615 -4.71217e-05 -4.27517e-06      10.1129 
         500      27.3216 -4.71132e-05   -4.162e-06      10.1129 
         500      27.4821 -4.70988e-05 -4.03731e-06      10.1129 
         500       27.643 -4.70797e-05 -3.90495e-06      10.1129 
         500      27.8044 -4.71008e-05 -3.78742e-06      10.1129 
         500      27.9663 -4.71738e-05  -3.7009e-06      10.1129 
         500      28.1287 -4.72331e-05 -3.61927e-06      10.1129 
         500      28.2914 -4.72792e-05  -3.5423e-06      10.1129 
         500      28.4548 -4.73133e-05 -3.46945e-06      10.1129 
         500      28.6185 -4.73363e-05 -3.40037e-06      10.1129 
         500      28.7828 -4.73493e-05 -3.33447e-06      10.1129 
         500      28.9475 -4.73537e-05 -3.27129e-06      10.1129 
         500      29.1126 -4.73507e-05 -3.21034e-06      10.1129 
         500      29.2784 -4.73417e-05 -3.15101e-06      10.1129 
         500      29.4444  -4.7328e-05 -3.09286e-06      10.1129 
         500       29.611 -4.73108e-05 -3.03531e-06      10.1129 
         500       29.778 -4.72915e-05 -2.97795e-06      10.1129 
         500      29.9456 -4.72711e-05 -2.92026e-06      10.1129 
         500      30.1137 -4.72508e-05 -2.86187e-06      10.1129 
         500      30.2821 -4.72313e-05 -2.80247e-06      10.1129 
         500      30.4511 -4.72137e-05 -2.74165e-06      10.1129 
         500      30.6204 -4.71984e-05 -2.67927e-06      10.1129 
         500      30.7903  -4.7186e-05 -2.61504e-06      10.1129 
         500      30.9606 -4.71768e-05 -2.54894e-06       10.113 
         500      31.1315 -4.71711e-05 -2.48083e-06       10.113 
         500      31.3028 -4.71686e-05 -2.41076e-06       10.113 
         500      31.4745 -4.71694e-05 -2.33891e-06       10.113 
         500      31.6468 -4.71731e-05 -2.26532e-06       10.113 
         500      31.8194 -4.71793e-05 -2.19035e-06       10.113 
         500      31.9926 -4.71873e-05 -2.11419e-06       10.113 
         500      32.1662 -4.71964e-05 -2.03734e-06       10.113 
         500      32.3404  -4.7206e-05 -1.96013e-06       10.113 
         500      32.5149 -4.72151e-05 -1.88316e-06       10.113 
         500        32.69 -4.72231e-05 -1.80687e-06       10.113 
         500      32.8655  -4.7229e-05 -1.73189e-06       10.113 
         500      33.0414 -4.72322e-05 -1.65889e-06       10.113 
         500       33.218 -4.72322e-05 -1.58841e-06       10.113 
         500      33.3948 -4.72286e-05 -1.52117e-06       10.113 
         500      33.5723 -4.72212e-05 -1.45769e-06       10.113 
         500        33.75 -4.72103e-05 -1.39868e-06       10.113 
         500      33.9284 -4.71967e-05 -1.34458e-06       10.113 
         500      34.1073 -4.71814e-05 -1.29591e-06       10.113 
         500      34.2865 -4.71664e-05 -1.25309e-06       10.113 
         500      34.4663  -4.7154e-05 -1.21631e-06       10.113 
         500      34.6465 -4.71477e-05 -1.18575e-06      10.1131 
         500      34.8272 -4.71517e-05  -1.1613e-06      10.1131 
         500      35.0083 -4.71714e-05 -1.14273e-06      10.1131 
         500        35.19 -4.72135e-05 -1.12949e-06      10.1131 
         500      35.3721  -4.7286e-05 -1.12081e-06      10.1131 
         500      35.5546 -4.73984e-05 -1.11556e-06      10.1131 
         500      35.7377  -4.7562e-05 -1.11224e-06      10.1131 
         500      35.9211 -4.76799e-05 -1.11077e-06      10.1131 
         500      36.1052 -4.75168e-05 -1.10761e-06      10.1131 
         500      36.2895 -4.73846e-05 -1.09507e-06      10.1131 
         500      36.4745 -4.72806e-05 -1.07452e-06      10.1131 
         500      36.6598 -4.72024e-05 -1.04725e-06      10.1131 
         500      36.8457  -4.7147e-05 -1.01434e-06      10.1131 
         500      37.0321 -4.71116e-05 -9.76799e-07      10.1131 
         500      37.2188 -4.70935e-05  -9.3557e-07      10.1131 
         500      37.4062 -4.70899e-05 -8.91401e-07      10.1131 
         500      37.5938 -4.70981e-05 -8.45109e-07      10.1131 
         500      37.7821 -4.71155e-05 -7.97309e-07      10.1131 
         500      37.9707 -4.71399e-05 -7.48729e-07      10.1131 
         500      38.1599  -4.7169e-05 -6.99914e-07      10.1132 
         500      38.3496 -4.72009e-05 -6.51515e-07      10.1132 
         500      38.5396 -4.72339e-05 -6.04181e-07      10.1132 
         500      38.7302 -4.72665e-05 -5.58458e-07      10.1132 
         500      38.9211 -4.72976e-05 -5.15066e-07      10.1132 
         500      39.1127 -4.73262e-05 -4.74616e-07      10.1132 
         500      39.3046 -4.73516e-05 -4.37897e-07      10.1132 
         500      39.4971 -4.73735e-05 -4.05628e-07      10.1132 
         500      39.6899 -4.73914e-05 -3.78701e-07      10.1132 
         500      39.8833 -4.74054e-05 -3.57981e-07      10.1132 
         500      40.0772 -4.74155e-05 -3.44477e-07      10.1132 
         500      40.2714 -4.74219e-05 -3.39253e-07      10.1132 
         500      40.4663 -4.74248e-05 -3.43449e-07      10.1132 
         500      40.6615 -4.74243e-05 -3.58293e-07      10.1132 
         500      40.8573 -4.74204e-05 -3.85131e-07      10.1132 
         500      41.0534  -4.7413e-05 -4.25331e-07      10.1132 
         500      41.2501 -4.74016e-05 -4.80456e-07      10.1133 
         500      41.4473  -4.7414e-05 -4.45177e-07      10.1133 
         500      41.6448 -4.74354e-05 -3.69914e-07      10.1133 
         500      41.8429 -4.74528e-05 -3.04364e-07      10.1133 
         500      42.0414 -4.74666e-05 -2.48714e-07      10.1133 
         500      42.2405 -4.74772e-05 -2.02664e-07      10.1133 
         500      42.4399 -4.74848e-05 -1.65786e-07      10.1133 
         500      42.6399 -4.74897e-05 -1.37242e-07      10.1133 
         500      42.8404  -4.7492e-05 -1.16029e-07      10.1133 
         500      43.0412 -4.74919e-05 -1.00891e-07      10.1133 
         500      43.2426 -4.74895e-05 -9.03439e-08      10.1133 
         500      43.4444  -4.7485e-05 -8.27919e-08      10.1133 
         500      43.6467 -4.74783e-05 -7.65063e-08      10.1133 
         500      43.8494 -4.74696e-05 -6.97367e-08      10.1133 
         500      44.0527 -4.74591e-05 -6.07316e-08      10.1134 
         500      44.2563 -4.74469e-05 -4.78639e-08      10.1134 
         500      44.4606 -4.74335e-05 -2.96525e-08      10.1134 
         500      44.6653 -4.74194e-05 -4.92197e-09      10.1134 
         500      44.8704 -4.74051e-05  2.70999e-08      10.1134 
         500       45.076 -4.73917e-05  6.67667e-08      10.1134 
         500       45.282 -4.73803e-05  1.13693e-07      10.1134 
         500      45.4886 -4.73725e-05   1.6687e-07      10.1134 
         500      45.6955 -4.73703e-05  2.24219e-07      10.1134 
         500       45.903  -4.7376e-05  2.82763e-07      10.1134 
         500      46.1111 -4.73927e-05  3.38138e-07      10.1134 
         500      46.3194 -4.74212e-05  3.81005e-07      10.1134 
         500      46.5283 -4.73981e-05    3.261e-07      10.1134 
         500      46.7376 -4.73932e-05  2.82402e-07      10.1135 
         500      46.9475 -4.74009e-05  2.50679e-07      10.1135 
         500      47.1577 -4.74161e-05  2.30961e-07      10.1135 
         500      47.3685 -4.74349e-05  2.22465e-07      10.1135 
         500      47.5798  -4.7454e-05  2.23863e-07      10.1135 
         500      47.7914 -4.74708e-05  2.33317e-07      10.1135 
         500      48.0037 -4.74834e-05  2.48666e-07      10.1135 