Variables = x, y, u, v, p

Zone, I=800, F=POINT
          50            0 -2.26554e-19 -1.50312e-24     -37.1559 
          50     0.000234 -1.12467e-05 -8.17183e-11     -37.1559 
          50     0.000939 -4.26444e-05 -3.97497e-10     -37.1559 
          50     0.002113 -8.73097e-05 -1.16158e-09     -37.1559 
          50     0.003759 -0.000136071 -2.75622e-09     -37.1559 
          50     0.005872 -0.000179574 -5.75059e-09     -37.1559 
          50     0.008457 -0.000211308  -1.0961e-08     -37.1559 
          50      0.01151 -0.000229005 -1.94719e-08     -37.1559 
          50     0.015036 -0.000235378 -3.27275e-08     -37.1559 
          50     0.019031 -0.000236876 -5.25346e-08     -37.1559 
          50     0.023493 -0.000241173 -8.11338e-08     -37.1559 
          50     0.028429 -0.000253878 -1.21315e-07     -37.1559 
          50     0.033831 -0.000275728 -1.76271e-07     -37.1559 
          50     0.039706 -0.000301863 -2.49859e-07     -37.1559 
          50     0.046047 -0.000324117 -3.46307e-07     -37.1559 
          50     0.052863 -0.000336791 -4.70583e-07     -37.1559 
          50      0.06015 -0.000343265 -6.27941e-07     -37.1559 
          50       0.0679  -0.00035739 -8.23902e-07     -37.1559 
          50     0.076126 -0.000386499  -1.0649e-06     -37.1559 
          50     0.084816 -0.000388928 -1.35703e-06     -37.1559 
          50     0.093982 -0.000406362 -1.70687e-06     -37.1559 
          50     0.103611 -0.000419672 -2.12048e-06     -37.1559 
          50     0.113718  -0.00043029 -2.60505e-06     -37.1559 
          50     0.124286 -0.000439202 -3.16597e-06     -37.1559 
          50     0.135333  -0.00044697 -3.80998e-06     -37.1559 
          50      0.14685 -0.000453714 -4.54189e-06     -37.1559 
          50     0.158827 -0.000459252 -5.36567e-06     -37.1559 
          50     0.171284 -0.000463301  -6.2868e-06     -37.1559 
          50     0.184201 -0.000465667 -7.30726e-06     -37.1559 
          50     0.197599 -0.000466453 -8.43155e-06     -37.1559 
          50     0.211455 -0.000466097 -9.65979e-06     -37.1559 
          50     0.225792 -0.000465121 -1.09951e-05     -37.1559 
          50       0.2406  -0.00046338 -1.24363e-05     -37.1559 
          50     0.255865 -0.000459902 -1.39801e-05     -37.1559 
          50     0.271613 -0.000456391 -1.56325e-05     -37.1559 
          50     0.287818   -0.0004523 -1.73885e-05     -37.1559 
          50     0.304506 -0.000447808 -1.92467e-05     -37.1559 
          50      0.32165 -0.000443103 -2.12005e-05     -37.1559 
          50     0.339278 -0.000438343   -2.325e-05     -37.1559 
          50     0.357377  -0.00043368  -2.5391e-05     -37.1559 
          50      0.37593 -0.000429252  -2.7619e-05     -37.1559 
          50     0.394968 -0.000425168 -2.99349e-05     -37.1559 
          50     0.414461 -0.000421532 -3.23319e-05     -37.1559 
          50      0.43444 -0.000418419   -3.481e-05     -37.1559 
          50     0.454872 -0.000415899 -3.73603e-05     -37.1559 
          50     0.475791 -0.000414017 -3.99812e-05     -37.1559 
          50     0.497163 -0.000412813  -4.2662e-05     -37.1559 
          50     0.519021 -0.000412302 -4.53999e-05     -37.1559 
          50      0.54135 -0.000412486 -4.81871e-05     -37.1559 
          50     0.564131 -0.000413333 -5.10174e-05     -37.1559 
          50       0.5874 -0.000414779 -5.38969e-05     -37.1559 
          50     0.611121 -0.000416679 -5.68297e-05     -37.1559 
          50      0.63533 -0.000418961 -5.97746e-05     -37.1559 
          50      0.65999 -0.000421692 -6.27095e-05     -37.1559 
          50     0.685139 -0.000424649 -6.56396e-05     -37.1559 
          50     0.710759 -0.000427617 -6.85609e-05     -37.1559 
          50     0.736828 -0.000430397 -7.14667e-05     -37.1559 
          50     0.763387 -0.000432816 -7.43554e-05     -37.1559 
          50     0.790396 -0.000434714 -7.72143e-05     -37.1559 
          50     0.817896 -0.000435959 -8.00383e-05     -37.1559 
          50     0.845843 -0.000436441 -8.28124e-05     -37.1559 
          50     0.874283 -0.000436076 -8.55303e-05     -37.1559 
          50      0.90317 -0.000434805 -8.81769e-05     -37.1559 
          50     0.932551 -0.000432594 -9.07465e-05     -37.1559 
          50     0.962401 -0.000429434 -9.32284e-05     -37.1559 
          50     0.992697 -0.000425346  -9.5614e-05     -37.1559 
          50      1.02349 -0.000420359 -9.79033e-05     -37.1559 
          50      1.05472  -0.00041454 -0.000100091     -37.1559 
          50      1.08645 -0.000407953 -0.000102183     -37.1559 
          50      1.11863 -0.000400697 -0.000104179     -37.1559 
          50       1.1513  -0.00039286 -0.000106092     -37.1559 
          50      1.18444 -0.000384551 -0.000107929     -37.1559 
          50      1.21802 -0.000375883   -0.0001097     -37.1559 
          50      1.25211 -0.000366947 -0.000111416     -37.1559 
          50      1.28663 -0.000357854 -0.000113083     -37.1559 
          50      1.32165 -0.000348671 -0.000114703     -37.1559 
          50      1.35712 -0.000339483 -0.000116264     -37.1559 
          50      1.39308 -0.000330324 -0.000117741     -37.1559 
          50      1.42951 -0.000321226 -0.000119087     -37.1558 
          50      1.46638   -0.0003122  -0.00012022     -37.1558 
          50      1.50375 -0.000303208 -0.000121024     -37.1558 
          50      1.54156  -0.00029401 -0.000122228     -37.1558 
          50      1.57987 -0.000284803 -0.000123346     -37.1558 
          50      1.61863 -0.000275614 -0.000124326     -37.1558 
          50      1.65788 -0.000266428 -0.000125171     -37.1558 
          50      1.69757 -0.000257262 -0.000125885     -37.1558 
          50      1.73776  -0.00024811 -0.000126471     -37.1558 
          50      1.77842 -0.000238988 -0.000126933     -37.1558 
          50      1.81952 -0.000229918 -0.000127274     -37.1558 
          50      1.86113 -0.000220903 -0.000127497     -37.1558 
          50      1.90316 -0.000211976 -0.000127607     -37.1558 
          50      1.94571 -0.000203145 -0.000127606     -37.1558 
          50      1.98869  -0.00019445 -0.000127498     -37.1558 
          50      2.03217 -0.000185903 -0.000127286     -37.1557 
          50      2.07612  -0.00017754 -0.000126974     -37.1557 
          50      2.12051 -0.000169396 -0.000126565     -37.1557 
          50       2.1654  -0.00016149 -0.000126062     -37.1557 
          50      2.21073 -0.000153862 -0.000125469     -37.1557 
          50      2.25656 -0.000146533 -0.000124788     -37.1557 
          50      2.30283 -0.000139541 -0.000124022     -37.1557 
          50       2.3496 -0.000132903 -0.000123174     -37.1557 
          50      2.39685 -0.000126651 -0.000122247     -37.1557 
          50      2.44452 -0.000120812 -0.000121245     -37.1557 
          50      2.49271 -0.000115395 -0.000120168     -37.1556 
          50      2.54132 -0.000110426 -0.000119021     -37.1556 
          50      2.59044 -0.000105909 -0.000117805     -37.1556 
          50         2.64 -0.000101856 -0.000116524     -37.1556 
          50      2.69006 -9.82649e-05  -0.00011518     -37.1556 
          50      2.74056  -9.5137e-05 -0.000113777     -37.1556 
          50      2.79156 -9.24589e-05 -0.000112315     -37.1556 
          50      2.84304  -9.0219e-05   -0.0001108     -37.1556 
          50      2.89494 -8.83987e-05 -0.000109236     -37.1555 
          50      2.94735 -8.69703e-05 -0.000107624     -37.1555 
          50       3.0002 -8.59064e-05 -0.000105972     -37.1555 
          50      3.05355 -8.51715e-05  -0.00010428     -37.1555 
          50      3.10733   -8.473e-05 -0.000102557     -37.1555 
          50      3.16163 -8.45423e-05 -0.000100807     -37.1555 
          50      3.21639 -8.45698e-05 -9.90361e-05     -37.1555 
          50      3.27158 -8.47744e-05 -9.72547e-05     -37.1554 
          50      3.32729 -8.51227e-05 -9.54681e-05     -37.1554 
          50      3.38342 -8.55871e-05  -9.3689e-05     -37.1554 
          50      3.44007 -8.61509e-05 -9.19254e-05     -37.1554 
          50      3.49714 -8.68097e-05 -9.01927e-05     -37.1554 
          50      3.55472 -8.75788e-05 -8.85024e-05     -37.1553 
          50      3.61273 -8.84949e-05 -8.68729e-05     -37.1553 
          50      3.67125 -8.96257e-05 -8.53196e-05     -37.1553 
          50      3.73025 -9.10729e-05 -8.38642e-05     -37.1553 
          50      3.78967 -9.25933e-05 -8.21622e-05     -37.1553 
          50      3.84961 -9.40702e-05 -8.06679e-05     -37.1552 
          50      3.90996  -9.5592e-05 -7.93407e-05     -37.1552 
          50      3.97084 -9.71389e-05  -7.8017e-05     -37.1552 
          50      4.03214 -9.86918e-05 -7.66527e-05     -37.1552 
          50      4.09395 -0.000100241 -7.52653e-05     -37.1552 
          50      4.15624 -0.000101778 -7.38998e-05     -37.1551 
          50      4.21895 -0.000103296 -7.25937e-05     -37.1551 
          50      4.28217 -0.000104796 -7.13535e-05     -37.1551 
          50      4.34582 -0.000106272 -7.01561e-05     -37.1551 
          50      4.40998 -0.000107725 -6.89516e-05      -37.155 
          50      4.47457 -0.000109148 -6.77004e-05      -37.155 
          50      4.53968 -0.000110535 -6.64175e-05      -37.155 
          50      4.60525 -0.000111871 -6.52561e-05      -37.155 
          50      4.67125 -0.000113194 -6.40895e-05     -37.1549 
          50      4.73777  -0.00011447  -6.2897e-05     -37.1549 
          50       4.8047  -0.00011571 -6.17493e-05     -37.1549 
          50      4.87216  -0.00011693 -6.06392e-05     -37.1548 
          50      4.94003 -0.000118127 -5.95484e-05     -37.1548 
          50      5.00843 -0.000119297 -5.84584e-05     -37.1548 
          50      5.07724 -0.000120433 -5.73676e-05     -37.1548 
          50      5.14658  -0.00012154 -5.62868e-05     -37.1547 
          50      5.21639 -0.000122623 -5.52387e-05     -37.1547 
          50      5.28661 -0.000123693 -5.42369e-05     -37.1547 
          50      5.35736 -0.000124761 -5.32537e-05     -37.1546 
          50      5.42852 -0.000125815 -5.21818e-05     -37.1546 
          50      5.50021 -0.000126834 -5.12799e-05     -37.1546 
          50      5.57231 -0.000127843 -5.03538e-05     -37.1545 
          50      5.64493 -0.000128851 -4.93864e-05     -37.1545 
          50      5.71803 -0.000129853 -4.84123e-05     -37.1544 
          50      5.79154  -0.00013084 -4.74619e-05     -37.1544 
          50      5.86558 -0.000131804 -4.65523e-05     -37.1544 
          50      5.94003 -0.000132745 -4.56986e-05     -37.1543 
          50      6.01501 -0.000133656  -4.4849e-05     -37.1543 
          50       6.0904 -0.000134542 -4.39887e-05     -37.1543 
          50      6.16632 -0.000135417 -4.31292e-05     -37.1542 
          50      6.24271 -0.000136282 -4.22931e-05     -37.1542 
          50       6.3195 -0.000137129 -4.14798e-05     -37.1541 
          50      6.39683 -0.000137942 -4.05803e-05     -37.1541 
          50      6.47457 -0.000138753 -3.99308e-05      -37.154 
          50      6.55284 -0.000139517 -3.92428e-05      -37.154 
          50      6.63152 -0.000140239 -3.85433e-05     -37.1539 
          50      6.71073 -0.000140931 -3.78516e-05     -37.1539 
          50      6.79034   -0.0001416 -3.71805e-05     -37.1539 
          50      6.87049 -0.000142254 -3.65345e-05     -37.1538 
          50      6.95111 -0.000142911 -3.58811e-05     -37.1538 
          50      7.03214 -0.000143575 -3.51428e-05     -37.1537 
          50       7.1137 -0.000144211 -3.44372e-05     -37.1537 
          50      7.19566 -0.000144824 -3.37782e-05     -37.1536 
          50      7.27816  -0.00014542 -3.31657e-05     -37.1536 
          50      7.36106 -0.000146004 -3.25917e-05     -37.1535 
          50      7.44451 -0.000146581 -3.20383e-05     -37.1534 
          50      7.52842  -0.00014715 -3.14858e-05     -37.1534 
          50      7.61273 -0.000147712 -3.09157e-05     -37.1533 
          50      7.69758 -0.000148265 -3.03169e-05     -37.1533 
          50      7.78283 -0.000148806  -2.9697e-05     -37.1532 
          50      7.86862 -0.000149331 -2.90896e-05     -37.1532 
          50      7.95481 -0.000149838 -2.85701e-05     -37.1531 
          50      8.04155   -0.0001504  -2.8035e-05      -37.153 
          50      8.12868 -0.000150969 -2.74664e-05      -37.153 
          50      8.21635 -0.000151506 -2.69757e-05     -37.1529 
          50      8.30449 -0.000152032 -2.65336e-05     -37.1529 
          50      8.39303 -0.000152557 -2.61196e-05     -37.1528 
          50      8.48211 -0.000153087 -2.57205e-05     -37.1527 
          50      8.57159 -0.000153617 -2.53304e-05     -37.1527 
          50      8.66161 -0.000154142 -2.49471e-05     -37.1526 
          50      8.75203 -0.000154653 -2.45733e-05     -37.1525 
          50      8.84299 -0.000155142 -2.42122e-05     -37.1525 
          50      8.93443 -0.000155603 -2.38691e-05     -37.1524 
          50      9.02626  -0.00015603 -2.35482e-05     -37.1523 
          50      9.11863 -0.000156424 -2.32513e-05     -37.1522 
          50      9.21139 -0.000156786 -2.29783e-05     -37.1522 
          50      9.30471 -0.000157122 -2.27239e-05     -37.1521 
          50      9.39841 -0.000157438 -2.24786e-05      -37.152 
          50      9.49267 -0.000157743 -2.22265e-05     -37.1519 
          50      9.58739 -0.000158043 -2.19453e-05     -37.1519 
          50      9.68251 -0.000158338  -2.1606e-05     -37.1518 
          50      9.77817 -0.000158624 -2.11714e-05     -37.1517 
          50      9.87422 -0.000158808 -2.08002e-05     -37.1516 
          50      9.97083 -0.000158821 -2.06164e-05     -37.1515 
          50      10.0678 -0.000159247 -2.01084e-05     -37.1515 
          50      10.1654 -0.000159448 -1.99488e-05     -37.1514 
          50      10.2633 -0.000159605 -1.97259e-05     -37.1513 
          50      10.3618 -0.000159747  -1.9452e-05     -37.1512 
          50      10.4607 -0.000159892 -1.91409e-05     -37.1511 
          50      10.5601  -0.00016005 -1.88068e-05      -37.151 
          50        10.66 -0.000160225  -1.8462e-05     -37.1509 
          50      10.7603 -0.000160414 -1.81187e-05     -37.1508 
          50      10.8611 -0.000160613 -1.77855e-05     -37.1507 
          50      10.9623 -0.000160816 -1.74694e-05     -37.1507 
          50      11.0641 -0.000161017 -1.71736e-05     -37.1506 
          50      11.1663 -0.000161211 -1.68986e-05     -37.1505 
          50       11.269 -0.000161395 -1.66422e-05     -37.1504 
          50      11.3721 -0.000161568 -1.63988e-05     -37.1503 
          50      11.4757 -0.000161733 -1.61617e-05     -37.1502 
          50      11.5798 -0.000161895 -1.59222e-05     -37.1501 
          50      11.6844 -0.000162058 -1.56726e-05       -37.15 
          50      11.7894  -0.00016223 -1.54064e-05     -37.1498 
          50       11.895 -0.000162416 -1.51208e-05     -37.1497 
          50      12.0009 -0.000162618 -1.48195e-05     -37.1496 
          50      12.1073  -0.00016283  -1.4514e-05     -37.1495 
          50      12.2142 -0.000163039 -1.42285e-05     -37.1494 
          50      12.3216 -0.000163217 -1.40023e-05     -37.1493 
          50      12.4294 -0.000163305 -1.38393e-05     -37.1492 
          50      12.5378 -0.000163324 -1.36053e-05     -37.1491 
          50      12.6465 -0.000163338 -1.33821e-05      -37.149 
          50      12.7558 -0.000163351 -1.31735e-05     -37.1488 
          50      12.8656 -0.000163368 -1.29812e-05     -37.1487 
          50      12.9757 -0.000163393 -1.28053e-05     -37.1486 
          50      13.0864 -0.000163433  -1.2644e-05     -37.1485 
          50      13.1975 -0.000163488 -1.24949e-05     -37.1484 
          50      13.3092 -0.000163562 -1.23544e-05     -37.1482 
          50      13.4212 -0.000163654 -1.22185e-05     -37.1481 
          50      13.5338 -0.000163759 -1.20819e-05      -37.148 
          50      13.6468 -0.000163872 -1.19384e-05     -37.1478 
          50      13.7603 -0.000163982 -1.17802e-05     -37.1477 
          50      13.8743 -0.000164061 -1.16727e-05     -37.1476 
          50      13.9886 -0.000164126 -1.16021e-05     -37.1474 
          50      14.1036  -0.00016419 -1.15232e-05     -37.1473 
          50      14.2189 -0.000164252 -1.14279e-05     -37.1472 
          50      14.3348 -0.000164315 -1.13142e-05      -37.147 
          50       14.451  -0.00016438 -1.11854e-05     -37.1469 
          50      14.5678 -0.000164446 -1.10493e-05     -37.1468 
          50      14.6851 -0.000164512 -1.09164e-05     -37.1466 
          50      14.8028 -0.000164574 -1.07983e-05     -37.1465 
          50       14.921 -0.000164629 -1.07045e-05     -37.1463 
          50      15.0396 -0.000164674 -1.06402e-05     -37.1462 
          50      15.1588 -0.000164707 -1.06018e-05      -37.146 
          50      15.2783 -0.000164728 -1.05733e-05     -37.1459 
          50      15.3984 -0.000164745 -1.05209e-05     -37.1457 
          50       15.519  -0.00016477 -1.03875e-05     -37.1456 
          50        15.64 -0.000164829 -1.00869e-05     -37.1454 
          50      15.7615 -0.000164768 -1.01402e-05     -37.1452 
          50      15.8834 -0.000164729 -1.01617e-05     -37.1451 
          50      16.0058 -0.000164724 -1.01111e-05     -37.1449 
          50      16.1286 -0.000164743 -1.00219e-05     -37.1448 
          50       16.252 -0.000164776 -9.92003e-06     -37.1446 
          50      16.3759 -0.000164815 -9.82448e-06     -37.1444 
          50      16.5002 -0.000164855 -9.74823e-06     -37.1442 
          50       16.625 -0.000164891 -9.69861e-06     -37.1441 
          50      16.7501 -0.000164921 -9.67847e-06     -37.1439 
          50      16.8759 -0.000164943 -9.68661e-06     -37.1437 
          50       17.002 -0.000164956 -9.71872e-06     -37.1436 
          50      17.1287  -0.00016496 -9.76821e-06     -37.1434 
          50      17.2557 -0.000164956 -9.82686e-06     -37.1432 
          50      17.3834 -0.000164945 -9.88595e-06      -37.143 
          50      17.5115  -0.00016493 -9.93677e-06     -37.1428 
          50      17.6399 -0.000164912 -9.97171e-06     -37.1426 
          50       17.769 -0.000164893 -9.98513e-06     -37.1425 
          50      17.8984 -0.000164875 -9.97414e-06     -37.1423 
          50      18.0284 -0.000164858 -9.93954e-06     -37.1421 
          50      18.1587 -0.000164844 -9.88682e-06     -37.1419 
          50      18.2896 -0.000164833 -9.82683e-06     -37.1417 
          50       18.421 -0.000164822 -9.77698e-06     -37.1415 
          50      18.5528 -0.000164807 -9.70659e-06     -37.1413 
          50      18.6851 -0.000164766 -9.66376e-06     -37.1411 
          50      18.8178 -0.000164699 -9.67908e-06     -37.1409 
          50      18.9511 -0.000164611 -9.74593e-06     -37.1407 
          50      19.0847 -0.000164515 -9.84317e-06     -37.1405 
          50      19.2189 -0.000164428 -9.93305e-06     -37.1403 
          50      19.3535 -0.000164375 -9.95823e-06     -37.1401 
          50      19.4886 -0.000164388 -9.83951e-06     -37.1398 
          50      19.6242 -0.000164509 -9.47279e-06     -37.1396 
          50      19.7602 -0.000164728 -9.27981e-06     -37.1394 
          50      19.8968 -0.000164846  -9.6598e-06     -37.1392 
          50      20.0337 -0.000164892 -9.81182e-06      -37.139 
          50      20.1712 -0.000164883 -9.83402e-06     -37.1387 
          50      20.3091 -0.000164834 -9.80467e-06     -37.1385 
          50      20.4475 -0.000164764 -9.78469e-06     -37.1383 
          50      20.5864 -0.000164689 -9.81974e-06     -37.1381 
          50      20.7257 -0.000164629 -9.94209e-06     -37.1378 
          50      20.8655 -0.000164656 -1.01017e-05     -37.1376 
          50      21.0058 -0.000164728  -1.0225e-05     -37.1374 
          50      21.1465 -0.000164785 -1.03461e-05     -37.1371 
          50      21.2877 -0.000164827 -1.04659e-05     -37.1369 
          50      21.4294 -0.000164856 -1.05864e-05     -37.1366 
          50      21.5716 -0.000164874 -1.07097e-05     -37.1364 
          50      21.7142 -0.000164883 -1.08376e-05     -37.1361 
          50      21.8573 -0.000164887 -1.09713e-05     -37.1359 
          50      22.0008 -0.000164886 -1.11107e-05     -37.1356 
          50      22.1449 -0.000164883 -1.12545e-05     -37.1354 
          50      22.2893 -0.000164879 -1.13998e-05     -37.1351 
          50      22.4344 -0.000164872 -1.15426e-05     -37.1349 
          50      22.5797 -0.000164863 -1.16774e-05     -37.1346 
          50      22.7257  -0.00016485 -1.17983e-05     -37.1344 
          50      22.8721 -0.000164831  -1.1899e-05     -37.1341 
          50      23.0189 -0.000164804  -1.1974e-05     -37.1338 
          50      23.1663 -0.000164768 -1.20193e-05     -37.1335 
          50       23.314 -0.000164724 -1.20339e-05     -37.1333 
          50      23.4623 -0.000164674 -1.20209e-05      -37.133 
          50       23.611 -0.000164624 -1.19895e-05     -37.1327 
          50      23.7602 -0.000164582 -1.19567e-05     -37.1324 
          50        23.91 -0.000164564 -1.19498e-05     -37.1322 
          50        24.06 -0.000164592 -1.20085e-05     -37.1319 
          50      24.2107 -0.000164697 -1.21881e-05     -37.1316 
          50      24.3617 -0.000164555 -1.21477e-05     -37.1313 
          50      24.5133 -0.000164364 -1.19849e-05      -37.131 
          50      24.6653 -0.000164264 -1.18707e-05     -37.1307 
          50      24.8178  -0.00016422 -1.17994e-05     -37.1304 
          50      24.9708 -0.000164205 -1.17651e-05     -37.1301 
          50      25.1242 -0.000164202 -1.17616e-05     -37.1298 
          50      25.2781 -0.000164195 -1.17827e-05     -37.1295 
          50      25.4324 -0.000164178 -1.18225e-05     -37.1292 
          50      25.5873 -0.000164146 -1.18754e-05     -37.1289 
          50      25.7426 -0.000164099 -1.19359e-05     -37.1286 
          50      25.8984  -0.00016404 -1.19995e-05     -37.1283 
          50      26.0546 -0.000163971  -1.2062e-05      -37.128 
          50      26.2114   -0.0001639 -1.21202e-05     -37.1277 
          50      26.3686  -0.00016383 -1.21714e-05     -37.1274 
          50      26.5262 -0.000163769 -1.22138e-05      -37.127 
          50      26.6844 -0.000163722 -1.22466e-05     -37.1267 
          50      26.8429 -0.000163691 -1.22696e-05     -37.1264 
          50       27.002 -0.000163681 -1.22838e-05     -37.1261 
          50      27.1615 -0.000163691 -1.22905e-05     -37.1257 
          50      27.3216 -0.000163721 -1.22921e-05     -37.1254 
          50      27.4821 -0.000163768 -1.22914e-05      -37.125 
          50       27.643 -0.000163827 -1.22918e-05     -37.1247 
          50      27.8044 -0.000163891 -1.22968e-05     -37.1244 
          50      27.9663 -0.000163953 -1.23101e-05      -37.124 
          50      28.1287 -0.000164001 -1.23356e-05     -37.1237 
          50      28.2914 -0.000164026 -1.23762e-05     -37.1233 
          50      28.4548 -0.000164017 -1.24347e-05      -37.123 
          50      28.6185 -0.000163965 -1.25125e-05     -37.1226 
          50      28.7828 -0.000163859 -1.26098e-05     -37.1223 
          50      28.9475 -0.000163696 -1.27249e-05     -37.1219 
          50      29.1126 -0.000163472 -1.28535e-05     -37.1215 
          50      29.2784 -0.000163339 -1.28248e-05     -37.1212 
          50      29.4444   -0.0001633 -1.26394e-05     -37.1208 
          50       29.611  -0.00016329 -1.23293e-05     -37.1204 
          50       29.778 -0.000163339 -1.19801e-05     -37.1201 
          50      29.9456 -0.000163496 -1.23301e-05     -37.1197 
          50      30.1137 -0.000163628 -1.24486e-05     -37.1193 
          50      30.2821  -0.00016363 -1.23195e-05     -37.1189 
          50      30.4511 -0.000163429 -1.21372e-05     -37.1186 
          50      30.6204 -0.000163209  -1.2061e-05     -37.1182 
          50      30.7903 -0.000162994 -1.20653e-05     -37.1178 
          50      30.9606 -0.000162806 -1.21274e-05     -37.1174 
          50      31.1315 -0.000162655 -1.22274e-05      -37.117 
          50      31.3028 -0.000162547 -1.23484e-05     -37.1166 
          50      31.4745 -0.000162486  -1.2476e-05     -37.1162 
          50      31.6468 -0.000162467 -1.25993e-05     -37.1158 
          50      31.8194 -0.000162487 -1.27101e-05     -37.1154 
          50      31.9926 -0.000162536  -1.2803e-05      -37.115 
          50      32.1662 -0.000162607 -1.28752e-05     -37.1146 
          50      32.3404  -0.00016269 -1.29265e-05     -37.1142 
          50      32.5149 -0.000162776 -1.29589e-05     -37.1137 
          50        32.69 -0.000162856 -1.29759e-05     -37.1133 
          50      32.8655 -0.000162923 -1.29829e-05     -37.1129 
          50      33.0414 -0.000162969  -1.2986e-05     -37.1125 
          50       33.218 -0.000162992 -1.29917e-05     -37.1121 
          50      33.3948 -0.000162988 -1.30063e-05     -37.1116 
          50      33.5723 -0.000162958 -1.30353e-05     -37.1112 
          50        33.75 -0.000162903 -1.30823e-05     -37.1108 
          50      33.9284 -0.000162826 -1.31484e-05     -37.1103 
          50      34.1073 -0.000162734 -1.32312e-05     -37.1099 
          50      34.2865 -0.000162632 -1.33235e-05     -37.1094 
          50      34.4663 -0.000162529 -1.34123e-05      -37.109 
          50      34.6465 -0.000162432 -1.34777e-05     -37.1085 
          50      34.8272 -0.000162347  -1.3491e-05     -37.1081 
          50      35.0083  -0.00016228  -1.3414e-05     -37.1076 
          50        35.19 -0.000162231 -1.31964e-05     -37.1072 
          50      35.3721   -0.0001622 -1.27748e-05     -37.1067 
          50      35.5546 -0.000162082 -1.27136e-05     -37.1063 
          50      35.7377 -0.000161904 -1.31253e-05     -37.1058 
          50      35.9211 -0.000161773  -1.3399e-05     -37.1053 
          50      36.1052 -0.000161682 -1.35739e-05     -37.1049 
          50      36.2895 -0.000161621 -1.36811e-05     -37.1044 
          50      36.4745 -0.000161582 -1.37458e-05     -37.1039 
          50      36.6598 -0.000161555 -1.37869e-05     -37.1034 
          50      36.8457 -0.000161535 -1.38185e-05     -37.1029 
          50      37.0321 -0.000161515 -1.38496e-05     -37.1025 
          50      37.2188 -0.000161491 -1.38856e-05      -37.102 
          50      37.4062  -0.00016146 -1.39287e-05     -37.1015 
          50      37.5938 -0.000161421 -1.39784e-05      -37.101 
          50      37.7821 -0.000161376 -1.40326e-05     -37.1005 
          50      37.9707 -0.000161326  -1.4088e-05        -37.1 
          50      38.1599 -0.000161275 -1.41411e-05     -37.0995 
          50      38.3496  -0.00016123 -1.41889e-05      -37.099 
          50      38.5396 -0.000161196 -1.42293e-05     -37.0985 
          50      38.7302  -0.00016118 -1.42626e-05      -37.098 
          50      38.9211  -0.00016119 -1.42914e-05     -37.0975 
          50      39.1127 -0.000161233 -1.43223e-05     -37.0969 
          50      39.3046 -0.000161315 -1.43659e-05     -37.0964 
          50      39.4971 -0.000161439 -1.44383e-05     -37.0959 
          50      39.6899 -0.000161606 -1.45613e-05     -37.0954 
          50      39.8833 -0.000161457 -1.45071e-05     -37.0948 
          50      40.0772 -0.000161257 -1.44231e-05     -37.0943 
          50      40.2714 -0.000161111 -1.43716e-05     -37.0938 
          50      40.4663 -0.000161015 -1.43427e-05     -37.0932 
          50      40.6615  -0.00016096 -1.43276e-05     -37.0927 
          50      40.8573 -0.000160939 -1.43192e-05     -37.0922 
          50      41.0534 -0.000160943 -1.43122e-05     -37.0916 
          50      41.2501 -0.000160965 -1.43033e-05     -37.0911 
          50      41.4473 -0.000160999 -1.42921e-05     -37.0905 
          50      41.6448 -0.000161039 -1.42809e-05       -37.09 
          50      41.8429 -0.000161081 -1.42756e-05     -37.0894 
          50      42.0414 -0.000161125 -1.42863e-05     -37.0888 
          50      42.2405 -0.000161173 -1.43272e-05     -37.0883 
          50      42.4399  -0.00016104  -1.4297e-05     -37.0877 
          50      42.6399 -0.000160826 -1.42293e-05     -37.0871 
          50      42.8404 -0.000160644 -1.41845e-05     -37.0866 
          50      43.0412 -0.000160489 -1.41559e-05      -37.086 
          50      43.2426 -0.000160354 -1.41402e-05     -37.0854 
          50      43.4444 -0.000160235 -1.41362e-05     -37.0848 
          50      43.6467  -0.00016013 -1.41442e-05     -37.0843 
          50      43.8494 -0.000160039 -1.41648e-05     -37.0837 
          50      44.0527 -0.000159963 -1.41985e-05     -37.0831 
          50      44.2563 -0.000159904 -1.42442e-05     -37.0825 
          50      44.4606 -0.000159865 -1.42994e-05     -37.0819 
          50      44.6653 -0.000159851 -1.43588e-05     -37.0813 
          50      44.8704 -0.000159866 -1.44144e-05     -37.0807 
          50       45.076 -0.000159916 -1.44545e-05     -37.0801 
          50       45.282 -0.000160006 -1.44635e-05     -37.0795 
          50      45.4886 -0.000159923 -1.45096e-05     -37.0789 
          50      45.6955 -0.000159793  -1.4545e-05     -37.0783 
          50       45.903 -0.000159677 -1.45516e-05     -37.0776 
          50      46.1111 -0.000159572 -1.45363e-05      -37.077 
          50      46.3194 -0.000159473 -1.45057e-05     -37.0764 
          50      46.5283 -0.000159379 -1.44653e-05     -37.0758 
          50      46.7376 -0.000159289 -1.44201e-05     -37.0752 
          50      46.9475 -0.000159201 -1.43738e-05     -37.0745 
          50      47.1577 -0.000159117 -1.43299e-05     -37.0739 
          50      47.3685 -0.000159038 -1.42906e-05     -37.0733 
          50      47.5798 -0.000158966 -1.42574e-05     -37.0726 
          50      47.7914 -0.000158904 -1.42313e-05      -37.072 
          50      48.0037 -0.000158853 -1.42121e-05     -37.0713 