Variables = x, y, u, v, p

Zone, I=800, F=POINT
         200            0            0            0      81.1075 
         200     0.000234  1.28117e-05  9.13563e-12      81.1075 
         200     0.000939  4.80495e-05     6.45e-11      81.1075 
         200     0.002113  9.64457e-05  2.44073e-10      81.1075 
         200     0.003759  0.000145647  6.60931e-10      81.1075 
         200     0.005872  0.000183242  1.43418e-09      81.1075 
         200     0.008457  0.000200717  2.65858e-09      81.1075 
         200      0.01151  0.000195534  4.35434e-09      81.1075 
         200     0.015036  0.000171912  6.42512e-09      81.1075 
         200     0.019031  0.000139226  8.59367e-09      81.1075 
         200     0.023493  0.000108381  1.03524e-08      81.1075 
         200     0.028429  8.72189e-05  1.09084e-08      81.1075 
         200     0.033831  7.68821e-05  9.12632e-09      81.1075 
         200     0.039706  7.06995e-05  3.48418e-09      81.1075 
         200     0.046047  5.77428e-05 -7.95041e-09      81.1075 
         200     0.052863  3.07654e-05  -2.7582e-08      81.1075 
         200      0.06015 -4.44321e-06 -5.82562e-08      81.1075 
         200       0.0679 -2.76054e-05 -1.03236e-07      81.1075 
         200     0.076126 -2.88045e-05 -1.66367e-07      81.1075 
         200     0.084816 -6.81378e-05 -2.51799e-07      81.1075 
         200     0.093982 -8.18638e-05 -3.64148e-07      81.1075 
         200     0.103611 -9.97363e-05 -5.08174e-07      81.1075 
         200     0.113718 -0.000119085 -6.89354e-07      81.1075 
         200     0.124286 -0.000137918 -9.12777e-07      81.1075 
         200     0.135333 -0.000155123  -1.1843e-06      81.1075 
         200      0.14685 -0.000170306 -1.50922e-06      81.1075 
         200     0.158827 -0.000183647  -1.8926e-06      81.1075 
         200     0.171284 -0.000195618 -2.34033e-06      81.1075 
         200     0.184201 -0.000206542 -2.85674e-06      81.1075 
         200     0.197599 -0.000216362  -3.4474e-06      81.1075 
         200     0.211455 -0.000224493 -4.11565e-06      81.1075 
         200     0.225792 -0.000230296 -4.86637e-06      81.1075 
         200       0.2406 -0.000234293 -5.70211e-06      81.1075 
         200     0.255865 -0.000238406 -6.62412e-06      81.1075 
         200     0.271613 -0.000240095 -7.63787e-06      81.1075 
         200     0.287818 -0.000240671 -8.74285e-06      81.1075 
         200     0.304506  -0.00024019  -9.9409e-06      81.1075 
         200      0.32165 -0.000238727   -1.123e-05      81.1075 
         200     0.339278 -0.000236376 -1.26119e-05      81.1075 
         200     0.357377  -0.00023325 -1.40851e-05      81.1075 
         200      0.37593  -0.00022948 -1.56471e-05      81.1075 
         200     0.394968  -0.00022519 -1.72993e-05      81.1075 
         200     0.414461 -0.000220519 -1.90369e-05      81.1075 
         200      0.43444 -0.000215588 -2.08604e-05      81.1075 
         200     0.454872 -0.000210519 -2.27636e-05      81.1075 
         200     0.475791 -0.000205404 -2.47459e-05      81.1075 
         200     0.497163 -0.000200332 -2.68001e-05      81.1075 
         200     0.519021 -0.000195355 -2.89248e-05      81.1075 
         200      0.54135 -0.000190521 -3.11147e-05      81.1075 
         200     0.564131 -0.000185875 -3.33648e-05      81.1075 
         200       0.5874  -0.00018146 -3.56776e-05      81.1075 
         200     0.611121 -0.000177353 -3.80512e-05      81.1075 
         200      0.63533 -0.000173425   -4.047e-05      81.1075 
         200      0.65999 -0.000169776   -4.292e-05      81.1075 
         200     0.685139 -0.000166348  -4.5405e-05      81.1075 
         200     0.710759 -0.000163087 -4.79218e-05      81.1075 
         200     0.736828 -0.000159934 -5.04656e-05      81.1075 
         200     0.763387 -0.000156821 -5.30366e-05      81.1075 
         200     0.790396 -0.000153684 -5.56259e-05      81.1075 
         200     0.817896 -0.000150452 -5.82315e-05      81.1075 
         200     0.845843  -0.00014706 -6.08427e-05      81.1075 
         200     0.874283 -0.000143438 -6.34565e-05      81.1075 
         200      0.90317 -0.000139528 -6.60616e-05      81.1075 
         200     0.932551 -0.000135265 -6.86547e-05      81.1075 
         200     0.962401 -0.000130599 -7.12268e-05      81.1075 
         200     0.992697 -0.000125489 -7.37696e-05      81.1075 
         200      1.02349 -0.000119891 -7.62818e-05      81.1075 
         200      1.05472 -0.000113789 -7.87548e-05      81.1075 
         200      1.08645 -0.000107158 -8.11898e-05      81.1075 
         200      1.11863 -0.000100007  -8.3581e-05      81.1075 
         200       1.1513 -9.23364e-05 -8.59319e-05      81.1075 
         200      1.18444 -8.41754e-05  -8.8241e-05      81.1075 
         200      1.21802 -7.55675e-05 -9.05081e-05      81.1075 
         200      1.25211 -6.65461e-05 -9.27382e-05      81.1075 
         200      1.28663 -5.71827e-05 -9.49283e-05      81.1075 
         200      1.32165 -4.75239e-05 -9.70807e-05      81.1075 
         200      1.35712 -3.76494e-05 -9.91868e-05      81.1075 
         200      1.39308 -2.76028e-05 -0.000101239      81.1075 
         200      1.42951 -1.74395e-05 -0.000103217      81.1075 
         200      1.46638 -7.19495e-06 -0.000105088      81.1075 
         200      1.50375   3.1527e-06 -0.000106809      81.1075 
         200      1.54156  1.36807e-05 -0.000108659      81.1075 
         200      1.57987  2.42637e-05 -0.000110455      81.1075 
         200      1.61863  3.48755e-05 -0.000112172      81.1075 
         200      1.65788  4.55297e-05 -0.000113812      81.1075 
         200      1.69757  5.62043e-05 -0.000115372      81.1075 
         200      1.73776  6.69111e-05 -0.000116851      81.1075 
         200      1.77842  7.76345e-05  -0.00011825      81.1075 
         200      1.81952  8.83573e-05 -0.000119564      81.1075 
         200      1.86113  9.90873e-05 -0.000120794      81.1075 
         200      1.90316  0.000109796 -0.000121939      81.1075 
         200      1.94571  0.000120489 -0.000122998      81.1075 
         200      1.98869  0.000131134 -0.000123969      81.1075 
         200      2.03217  0.000141735 -0.000124853      81.1075 
         200      2.07612  0.000152267 -0.000125646      81.1075 
         200      2.12051  0.000162704 -0.000126349      81.1075 
         200       2.1654  0.000173045 -0.000126961      81.1075 
         200      2.21073  0.000183254 -0.000127481      81.1075 
         200      2.25656  0.000193328 -0.000127909      81.1075 
         200      2.30283   0.00020323 -0.000128244      81.1075 
         200       2.3496  0.000212955 -0.000128487      81.1075 
         200      2.39685  0.000222474 -0.000128637      81.1075 
         200      2.44452  0.000231756 -0.000128694      81.1075 
         200      2.49271  0.000240795  -0.00012866      81.1075 
         200      2.54132  0.000249555 -0.000128535      81.1075 
         200      2.59044  0.000258027 -0.000128321      81.1075 
         200         2.64  0.000266178 -0.000128019      81.1075 
         200      2.69006  0.000273998 -0.000127631      81.1075 
         200      2.74056  0.000281456  -0.00012716      81.1075 
         200      2.79156  0.000288544 -0.000126608      81.1075 
         200      2.84304   0.00029524  -0.00012598      81.1075 
         200      2.89494  0.000301521 -0.000125279      81.1075 
         200      2.94735  0.000307383  -0.00012451      81.1075 
         200       3.0002  0.000312803 -0.000123678      81.1075 
         200      3.05355   0.00031778 -0.000122788      81.1075 
         200      3.10733  0.000322297 -0.000121848      81.1075 
         200      3.16163  0.000326354 -0.000120863      81.1075 
         200      3.21639  0.000329944  -0.00011984      81.1075 
         200      3.27158  0.000333062 -0.000118791      81.1075 
         200      3.32729  0.000335715  -0.00011772      81.1075 
         200      3.38342  0.000337903  -0.00011664      81.1075 
         200      3.44007  0.000339634 -0.000115558      81.1075 
         200      3.49714  0.000340915 -0.000114487      81.1075 
         200      3.55472  0.000341759 -0.000113435      81.1075 
         200      3.61273  0.000342179 -0.000112416      81.1075 
         200      3.67125  0.000342192 -0.000111439      81.1075 
         200      3.73025  0.000341813 -0.000110517      81.1075 
         200      3.78967  0.000341183 -0.000109378      81.1075 
         200      3.84961   0.00034034 -0.000108208      81.1075 
         200      3.90996  0.000339285 -0.000107112      81.1075 
         200      3.97084  0.000338058 -0.000106051      81.1075 
         200      4.03214  0.000336696 -0.000104995      81.1075 
         200      4.09395  0.000335228 -0.000103923      81.1075 
         200      4.15624  0.000333684 -0.000102825      81.1075 
         200      4.21895  0.000332087 -0.000101696      81.1075 
         200      4.28217  0.000330457 -0.000100534      81.1075 
         200      4.34582  0.000328811 -9.93437e-05      81.1075 
         200      4.40998  0.000327162 -9.81301e-05      81.1075 
         200      4.47457  0.000325522 -9.69023e-05      81.1075 
         200      4.53968  0.000323897 -9.56657e-05      81.1075 
         200      4.60525  0.000322295 -9.44278e-05      81.1075 
         200      4.67125   0.00032072 -9.31944e-05      81.1075 
         200      4.73777  0.000319171 -9.19656e-05      81.1075 
         200       4.8047  0.000317649 -9.07427e-05      81.1075 
         200      4.87216   0.00031615 -8.95199e-05      81.1075 
         200      4.94003  0.000314679  -8.8285e-05      81.1075 
         200      5.00843  0.000313223 -8.70433e-05      81.1075 
         200      5.07724  0.000311782 -8.57871e-05      81.1074 
         200      5.14658  0.000310355 -8.45152e-05      81.1074 
         200      5.21639  0.000308945 -8.32508e-05      81.1074 
         200      5.28661  0.000307565 -8.20485e-05      81.1074 
         200      5.35736  0.000306145  -8.0781e-05      81.1074 
         200      5.42852  0.000304744 -7.95572e-05      81.1074 
         200      5.50021  0.000303375 -7.83615e-05      81.1074 
         200      5.57231  0.000302039 -7.71847e-05      81.1074 
         200      5.64493  0.000300709 -7.59821e-05      81.1074 
         200      5.71803  0.000299354 -7.47164e-05      81.1074 
         200      5.79154  0.000298016 -7.34966e-05      81.1074 
         200      5.86558  0.000296694   -7.232e-05      81.1074 
         200      5.94003  0.000295389 -7.11815e-05      81.1074 
         200      6.01501  0.000294096  -7.0069e-05      81.1074 
         200       6.0904  0.000292816 -6.89734e-05      81.1074 
         200      6.16632  0.000291542 -6.78836e-05      81.1074 
         200      6.24271  0.000290275 -6.67943e-05      81.1074 
         200       6.3195  0.000289013 -6.57042e-05      81.1074 
         200      6.39683  0.000287755 -6.46137e-05      81.1074 
         200      6.47457  0.000286503 -6.35301e-05      81.1074 
         200      6.55284  0.000285259 -6.24589e-05      81.1074 
         200      6.63152   0.00028403  -6.1408e-05      81.1074 
         200      6.71073   0.00028282 -6.03765e-05      81.1074 
         200      6.79034  0.000281642 -5.93565e-05      81.1074 
         200      6.87049  0.000280503 -5.83186e-05      81.1074 
         200      6.95111  0.000279406 -5.72299e-05      81.1074 
         200      7.03214  0.000278184 -5.63235e-05      81.1074 
         200       7.1137  0.000277006 -5.53876e-05      81.1074 
         200      7.19566  0.000275867 -5.44371e-05      81.1074 
         200      7.27816  0.000274759  -5.3481e-05      81.1074 
         200      7.36106  0.000273677 -5.25289e-05      81.1074 
         200      7.44451  0.000272616 -5.15852e-05      81.1074 
         200      7.52842  0.000271572 -5.06546e-05      81.1073 
         200      7.61273  0.000270543 -4.97403e-05      81.1073 
         200      7.69758  0.000269524 -4.88419e-05      81.1073 
         200      7.78283  0.000268516 -4.79612e-05      81.1073 
         200      7.86862  0.000267515 -4.70961e-05      81.1073 
         200      7.95481  0.000266522 -4.62469e-05      81.1073 
         200      8.04155  0.000265535 -4.54111e-05      81.1073 
         200      8.12868  0.000264556 -4.45887e-05      81.1073 
         200      8.21635  0.000263584 -4.37769e-05      81.1073 
         200      8.30449   0.00026262 -4.29754e-05      81.1073 
         200      8.39303  0.000261668  -4.2184e-05      81.1073 
         200      8.48211  0.000260727 -4.14008e-05      81.1073 
         200      8.57159  0.000259801 -4.06268e-05      81.1073 
         200      8.66161  0.000258889 -3.98604e-05      81.1073 
         200      8.75203  0.000257997 -3.91027e-05      81.1073 
         200      8.84299  0.000257125 -3.83519e-05      81.1073 
         200      8.93443  0.000256276 -3.76073e-05      81.1073 
         200      9.02626  0.000255453 -3.68671e-05      81.1073 
         200      9.11863  0.000254636 -3.61628e-05      81.1072 
         200      9.21139  0.000253832 -3.54992e-05      81.1072 
         200      9.30471  0.000253035 -3.48516e-05      81.1072 
         200      9.39841  0.000252237 -3.41701e-05      81.1072 
         200      9.49267  0.000251431 -3.33592e-05      81.1072 
         200      9.58739  0.000250602 -3.29016e-05      81.1072 
         200      9.68251  0.000249829 -3.23979e-05      81.1072 
         200      9.77817  0.000249126  -3.1848e-05      81.1072 
         200      9.87422  0.000248502 -3.12838e-05      81.1072 
         200      9.97083  0.000247766 -3.06311e-05      81.1072 
         200      10.0678  0.000247033 -3.00011e-05      81.1072 
         200      10.1654  0.000246339 -2.94045e-05      81.1072 
         200      10.2633  0.000245676 -2.88295e-05      81.1072 
         200      10.3618  0.000245038 -2.82664e-05      81.1072 
         200      10.4607   0.00024442 -2.77098e-05      81.1071 
         200      10.5601  0.000243819 -2.71569e-05      81.1071 
         200        10.66  0.000243231 -2.66056e-05      81.1071 
         200      10.7603  0.000242655  -2.6057e-05      81.1071 
         200      10.8611  0.000242088 -2.55116e-05      81.1071 
         200      10.9623  0.000241531 -2.49719e-05      81.1071 
         200      11.0641  0.000240982 -2.44393e-05      81.1071 
         200      11.1663  0.000240441 -2.39158e-05      81.1071 
         200       11.269   0.00023991 -2.34034e-05      81.1071 
         200      11.3721  0.000239386 -2.29021e-05      81.1071 
         200      11.4757  0.000238871 -2.24125e-05      81.1071 
         200      11.5798  0.000238365 -2.19333e-05       81.107 
         200      11.6844  0.000237867 -2.14636e-05       81.107 
         200      11.7894  0.000237377 -2.10006e-05       81.107 
         200       11.895  0.000236896 -2.05423e-05       81.107 
         200      12.0009  0.000236422 -2.00868e-05       81.107 
         200      12.1073  0.000235954 -1.96319e-05       81.107 
         200      12.2142  0.000235493 -1.91779e-05       81.107 
         200      12.3216  0.000235036 -1.87262e-05       81.107 
         200      12.4294  0.000234585 -1.82825e-05       81.107 
         200      12.5378  0.000234137 -1.78557e-05       81.107 
         200      12.6465  0.000233693 -1.74619e-05      81.1069 
         200      12.7558  0.000233254 -1.71231e-05      81.1069 
         200      12.8656   0.00023282 -1.68716e-05      81.1069 
         200      12.9757  0.000232477 -1.64225e-05      81.1069 
         200      13.0864  0.000232135 -1.59697e-05      81.1069 
         200      13.1975  0.000231783 -1.55648e-05      81.1069 
         200      13.3092  0.000231426 -1.52016e-05      81.1069 
         200      13.4212   0.00023107  -1.4876e-05      81.1069 
         200      13.5338  0.000230717 -1.45818e-05      81.1068 
         200      13.6468  0.000230371 -1.43123e-05      81.1068 
         200      13.7603  0.000230034 -1.40571e-05      81.1068 
         200      13.8743   0.00022971  -1.3801e-05      81.1068 
         200      13.9886  0.000229401 -1.35232e-05      81.1068 
         200      14.1036  0.000229112 -1.31937e-05      81.1068 
         200      14.2189  0.000228849 -1.27732e-05      81.1068 
         200      14.3348  0.000228619 -1.22086e-05      81.1068 
         200       14.451  0.000228402 -1.18981e-05      81.1067 
         200      14.5678  0.000228163 -1.17712e-05      81.1067 
         200      14.6851   0.00022791 -1.15989e-05      81.1067 
         200      14.8028  0.000227643   -1.139e-05      81.1067 
         200       14.921  0.000227364 -1.11512e-05      81.1067 
         200      15.0396  0.000227077 -1.08889e-05      81.1067 
         200      15.1588  0.000226788  -1.0608e-05      81.1067 
         200      15.2783  0.000226501 -1.03147e-05      81.1066 
         200      15.3984  0.000226221 -1.00145e-05      81.1066 
         200       15.519  0.000225953 -9.71414e-06      81.1066 
         200        15.64  0.000225703 -9.42106e-06      81.1066 
         200      15.7615  0.000225471 -9.14222e-06      81.1066 
         200      15.8834   0.00022526 -8.88549e-06      81.1066 
         200      16.0058  0.000225069 -8.65718e-06      81.1065 
         200      16.1286  0.000224894 -8.46286e-06      81.1065 
         200       16.252  0.000224729  -8.3047e-06      81.1065 
         200      16.3759  0.000224566 -8.18131e-06      81.1065 
         200      16.5002   0.00022439 -8.08541e-06      81.1065 
         200       16.625  0.000224184 -8.00171e-06      81.1065 
         200      16.7501  0.000223915 -7.82502e-06      81.1064 
         200      16.8759  0.000223681 -7.59549e-06      81.1064 
         200       17.002  0.000223508 -7.41411e-06      81.1064 
         200      17.1287   0.00022337 -7.26372e-06      81.1064 
         200      17.2557   0.00022325 -7.13077e-06      81.1064 
         200      17.3834  0.000223131 -7.00419e-06      81.1064 
         200      17.5115  0.000223006 -6.87609e-06      81.1063 
         200      17.6399  0.000222868  -6.7412e-06      81.1063 
         200       17.769  0.000222717 -6.59638e-06      81.1063 
         200      17.8984  0.000222553 -6.44111e-06      81.1063 
         200      18.0284   0.00022238 -6.27629e-06      81.1063 
         200      18.1587  0.000222202  -6.1049e-06      81.1062 
         200      18.2896  0.000222025 -5.93057e-06      81.1062 
         200       18.421  0.000221855 -5.75809e-06      81.1062 
         200      18.5528  0.000221698 -5.59254e-06      81.1062 
         200      18.6851   0.00022156 -5.43834e-06      81.1062 
         200      18.8178  0.000221443  -5.2996e-06      81.1061 
         200      18.9511  0.000221351 -5.17851e-06      81.1061 
         200      19.0847  0.000221283 -5.07549e-06      81.1061 
         200      19.2189  0.000221236 -4.98767e-06      81.1061 
         200      19.3535  0.000221205 -4.90872e-06      81.1061 
         200      19.4886  0.000221181 -4.82737e-06       81.106 
         200      19.6242  0.000221151 -4.72692e-06       81.106 
         200      19.7602    0.0002211   -4.584e-06       81.106 
         200      19.8968  0.000221008  -4.3671e-06       81.106 
         200      20.0337  0.000220876 -4.13946e-06       81.106 
         200      20.1712  0.000220773 -4.07261e-06      81.1059 
         200      20.3091  0.000220666 -3.98536e-06      81.1059 
         200      20.4475  0.000220549 -3.88147e-06      81.1059 
         200      20.5864  0.000220417 -3.76842e-06      81.1059 
         200      20.7257  0.000220269 -3.65635e-06      81.1058 
         200      20.8655  0.000220112 -3.55688e-06      81.1058 
         200      21.0058  0.000219956 -3.48272e-06      81.1058 
         200      21.1465  0.000219821 -3.44605e-06      81.1058 
         200      21.2877  0.000219734 -3.45785e-06      81.1057 
         200      21.4294  0.000219693 -3.05267e-06      81.1057 
         200      21.5716  0.000219643  -2.7542e-06      81.1057 
         200      21.7142  0.000219583 -2.58212e-06      81.1057 
         200      21.8573  0.000219517 -2.49094e-06      81.1056 
         200      22.0008  0.000219447 -2.44554e-06      81.1056 
         200      22.1449  0.000219376 -2.41931e-06      81.1056 
         200      22.2893  0.000219305 -2.39345e-06      81.1056 
         200      22.4344  0.000219236 -2.35572e-06      81.1055 
         200      22.5797  0.000219171 -2.29956e-06      81.1055 
         200      22.7257  0.000219112 -2.22284e-06      81.1055 
         200      22.8721   0.00021906 -2.12718e-06      81.1055 
         200      23.0189  0.000219015 -2.01692e-06      81.1054 
         200      23.1663   0.00021898 -1.89791e-06      81.1054 
         200       23.314  0.000218954 -1.77726e-06      81.1054 
         200      23.4623  0.000218938 -1.66186e-06      81.1054 
         200       23.611  0.000218931 -1.55837e-06      81.1053 
         200      23.7602  0.000218932 -1.47181e-06      81.1053 
         200        23.91  0.000218941  -1.4056e-06      81.1053 
         200        24.06  0.000218954 -1.36069e-06      81.1052 
         200      24.2107  0.000218968 -1.33508e-06      81.1052 
         200      24.3617  0.000218978 -1.32368e-06      81.1052 
         200      24.5133  0.000218977 -1.31789e-06      81.1051 
         200      24.6653  0.000218959 -1.30555e-06      81.1051 
         200      24.8178  0.000218913 -1.27078e-06      81.1051 
         200      24.9708  0.000218827 -1.19412e-06      81.1051 
         200      25.1242  0.000218686 -1.05288e-06       81.105 
         200      25.2781  0.000218477  -8.3894e-07       81.105 
         200      25.4324  0.000218401 -1.04048e-06       81.105 
         200      25.5873  0.000218392 -1.16289e-06      81.1049 
         200      25.7426  0.000218425 -1.13101e-06      81.1049 
         200      25.8984  0.000218394 -1.06744e-06      81.1049 
         200      26.0546  0.000218255 -1.23601e-06      81.1048 
         200      26.2114  0.000218185 -1.30025e-06      81.1048 
         200      26.3686  0.000218154 -1.29706e-06      81.1048 
         200      26.5262  0.000218143 -1.25576e-06      81.1047 
         200      26.6844  0.000218136 -1.19862e-06      81.1047 
         200      26.8429  0.000218123 -1.14194e-06      81.1047 
         200       27.002  0.000218098 -1.09658e-06      81.1046 
         200      27.1615   0.00021806 -1.06907e-06      81.1046 
         200      27.3216   0.00021801 -1.06208e-06      81.1046 
         200      27.4821  0.000217951 -1.07538e-06      81.1045 
         200       27.643  0.000217887 -1.10633e-06      81.1045 
         200      27.8044  0.000217825 -1.15072e-06      81.1045 
         200      27.9663  0.000217771 -1.20316e-06      81.1044 
         200      28.1287   0.00021773 -1.25792e-06      81.1044 
         200      28.2914  0.000217707 -1.30908e-06      81.1044 
         200      28.4548  0.000217708 -1.35135e-06      81.1043 
         200      28.6185  0.000217735 -1.38012e-06      81.1043 
         200      28.7828  0.000217789 -1.39204e-06      81.1042 
         200      28.9475   0.00021787 -1.38509e-06      81.1042 
         200      29.1126  0.000217977 -1.35888e-06      81.1042 
         200      29.2784  0.000218083 -1.20654e-06      81.1041 
         200      29.4444  0.000218161 -1.02971e-06      81.1041 
         200       29.611  0.000218204 -8.75378e-07      81.1041 
         200       29.778  0.000218206 -7.52931e-07       81.104 
         200      29.9456  0.000218164 -6.69349e-07       81.104 
         200      30.1137  0.000218076 -6.28925e-07      81.1039 
         200      30.2821  0.000217946 -6.31695e-07      81.1039 
         200      30.4511  0.000217779 -6.72333e-07      81.1039 
         200      30.6204  0.000217588 -7.38682e-07      81.1038 
         200      30.7903   0.00021739 -8.10446e-07      81.1038 
         200      30.9606   0.00021721 -8.57171e-07      81.1037 
         200      31.1315   0.00021708 -8.36773e-07      81.1037 
         200      31.3028   0.00021704  -6.9325e-07      81.1036 
         200      31.4745  0.000217173  -5.4265e-07      81.1036 
         200      31.6468  0.000217476  -8.3449e-07      81.1036 
         200      31.8194  0.000217748 -1.08298e-06      81.1035 
         200      31.9926  0.000217523 -7.60002e-07      81.1035 
         200      32.1662  0.000217384 -5.61209e-07      81.1034 
         200      32.3404  0.000217311 -4.49337e-07      81.1034 
         200      32.5149  0.000217285 -3.95123e-07      81.1033 
         200        32.69  0.000217292 -3.75612e-07      81.1033 
         200      32.8655   0.00021732 -3.73748e-07      81.1033 
         200      33.0414  0.000217357 -3.77364e-07      81.1032 
         200       33.218  0.000217396 -3.78487e-07      81.1032 
         200      33.3948   0.00021743 -3.72572e-07      81.1031 
         200      33.5723  0.000217455 -3.57807e-07      81.1031 
         200        33.75  0.000217468 -3.34498e-07       81.103 
         200      33.9284  0.000217468 -3.04376e-07       81.103 
         200      34.1073  0.000217454 -2.70162e-07      81.1029 
         200      34.2865  0.000217427 -2.35035e-07      81.1029 
         200      34.4663   0.00021739  -2.0209e-07      81.1028 
         200      34.6465  0.000217345 -1.74172e-07      81.1028 
         200      34.8272  0.000217295 -1.53368e-07      81.1027 
         200      35.0083  0.000217244 -1.40949e-07      81.1027 
         200        35.19  0.000217196 -1.37098e-07      81.1026 
         200      35.3721  0.000217154 -1.40917e-07      81.1026 
         200      35.5546  0.000217122 -1.50395e-07      81.1025 
         200      35.7377  0.000217102 -1.62562e-07      81.1025 
         200      35.9211  0.000217096  -1.7364e-07      81.1024 
         200      36.1052  0.000217105 -1.79409e-07      81.1024 
         200      36.2895  0.000217129 -1.75568e-07      81.1023 
         200      36.4745  0.000217165 -1.58278e-07      81.1023 
         200      36.6598  0.000217211 -1.24838e-07      81.1022 
         200      36.8457   0.00021726 -7.43328e-08      81.1022 
         200      37.0321  0.000217304 -8.67861e-09      81.1021 
         200      37.2188  0.000217332  6.63785e-08      81.1021 
         200      37.4062   0.00021733  1.40327e-07       81.102 
         200      37.5938  0.000217282  1.96178e-07       81.102 
         200      37.7821  0.000217166  2.09401e-07      81.1019 
         200      37.9707  0.000216958  1.46049e-07      81.1019 
         200      38.1599  0.000216835  1.27696e-08      81.1018 
         200      38.3496  0.000216826 -1.48246e-07      81.1018 
         200      38.5396  0.000216795 -3.24667e-07      81.1017 
         200      38.7302  0.000216716 -4.90816e-07      81.1017 
         200      38.9211  0.000216566 -6.25174e-07      81.1016 
         200      39.1127  0.000216323 -7.11102e-07      81.1015 
         200      39.3046  0.000216381  -5.0829e-07      81.1015 
         200      39.4971  0.000216506 -3.43442e-07      81.1014 
         200      39.6899  0.000216623  -2.5307e-07      81.1014 
         200      39.8833  0.000216727 -2.18717e-07      81.1013 
         200      40.0772  0.000216815 -2.24904e-07      81.1013 
         200      40.2714  0.000216886 -2.58543e-07      81.1012 
         200      40.4663  0.000216938 -3.08944e-07      81.1011 
         200      40.6615  0.000216972 -3.67375e-07      81.1011 
         200      40.8573   0.00021699 -4.27136e-07       81.101 
         200      41.0534  0.000216993 -4.83009e-07       81.101 
         200      41.2501  0.000216983 -5.31418e-07      81.1009 
         200      41.4473  0.000216963 -5.69916e-07      81.1008 
         200      41.6448  0.000216935 -5.97175e-07      81.1008 
         200      41.8429  0.000216903  -6.1283e-07      81.1007 
         200      42.0414  0.000216869 -6.17187e-07      81.1007 
         200      42.2405  0.000216835 -6.11163e-07      81.1006 
         200      42.4399  0.000216804 -5.96104e-07      81.1005 
         200      42.6399  0.000216777 -5.73616e-07      81.1005 
         200      42.8404  0.000216756 -5.45503e-07      81.1004 
         200      43.0412  0.000216742 -5.13638e-07      81.1003 
         200      43.2426  0.000216736 -4.79768e-07      81.1003 
         200      43.4444  0.000216737 -4.45603e-07      81.1002 
         200      43.6467  0.000216745 -4.12542e-07      81.1002 
         200      43.8494  0.000216759 -3.81823e-07      81.1001 
         200      44.0527  0.000216778 -3.54279e-07         81.1 
         200      44.2563  0.000216799  -3.3051e-07         81.1 
         200      44.4606  0.000216821 -3.10701e-07      81.0999 
         200      44.6653  0.000216842 -2.94779e-07      81.0998 
         200      44.8704   0.00021686 -2.82379e-07      81.0998 
         200       45.076  0.000216871 -2.72878e-07      81.0997 
         200       45.282  0.000216876 -2.65542e-07      81.0996 
         200      45.4886  0.000216871 -2.59562e-07      81.0996 
         200      45.6955  0.000216858 -2.54223e-07      81.0995 
         200       45.903  0.000216836 -2.49022e-07      81.0994 
         200      46.1111  0.000216808 -2.43867e-07      81.0993 
         200      46.3194  0.000216777 -2.39269e-07      81.0993 
         200      46.5283   0.00021675 -2.36563e-07      81.0992 
         200      46.7376  0.000216734 -2.38188e-07      81.0991 
         200      46.9475   0.00021674 -2.47969e-07      81.0991 
         200      47.1577  0.000216796 -2.11039e-07       81.099 
         200      47.3685  0.000216829 -1.33399e-07      81.0989 
         200      47.5798  0.000216835 -4.54073e-08      81.0989 
         200      47.7914  0.000216828  4.22718e-08      81.0988 
         200      48.0037   0.00021682  1.20161e-07      81.0987 