Variables = x, y, u, v, p

Zone, I=800, F=POINT
         -10            0  1.43298e-19  9.15685e-25      15.6076 
         -10     0.000234  7.10688e-06   4.6216e-11      15.6076 
         -10     0.000939  2.68651e-05  1.84013e-10      15.6076 
         -10     0.002113  5.46934e-05  4.07249e-10      15.6076 
         -10     0.003759   8.4455e-05  7.02337e-10      15.6076 
         -10     0.005872  0.000109856  1.03967e-09      15.6076 
         -10     0.008457  0.000126419  1.36918e-09      15.6076 
         -10      0.01151  0.000132452  1.60931e-09      15.6076 
         -10     0.015036  0.000129547  1.64157e-09      15.6076 
         -10     0.019031  0.000121849  1.30276e-09      15.6076 
         -10     0.023493  0.000114445  3.81926e-10      15.6076 
         -10     0.028429  0.000111221 -1.38648e-09      15.6076 
         -10     0.033831  0.000113068 -4.31748e-09      15.6076 
         -10     0.039706  0.000117266 -8.78813e-09      15.6076 
         -10     0.046047  0.000118913 -1.52229e-08      15.6076 
         -10     0.052863  0.000114475 -2.41193e-08      15.6076 
         -10      0.06015  0.000106069 -3.60194e-08      15.6076 
         -10       0.0679  0.000102493 -5.14988e-08      15.6076 
         -10     0.076126  0.000108811 -7.11973e-08      15.6076 
         -10     0.084816  9.97111e-05 -9.56915e-08      15.6076 
         -10     0.093982  0.000100052 -1.25813e-07      15.6076 
         -10     0.103611  9.88127e-05 -1.62152e-07      15.6076 
         -10     0.113718  9.68705e-05 -2.05456e-07      15.6076 
         -10     0.124286  9.48585e-05 -2.56328e-07      15.6076 
         -10     0.135333  9.31271e-05 -3.15494e-07      15.6076 
         -10      0.14685  9.17743e-05 -3.83509e-07      15.6076 
         -10     0.158827  9.07062e-05 -4.60842e-07      15.6076 
         -10     0.171284  8.97426e-05 -5.48088e-07      15.6076 
         -10     0.184201  8.87484e-05 -6.45493e-07      15.6076 
         -10     0.197599  8.77329e-05 -7.53514e-07      15.6076 
         -10     0.211455   8.6884e-05 -8.72171e-07      15.6076 
         -10     0.225792  8.64217e-05 -1.00176e-06      15.6076 
         -10       0.2406  8.61745e-05 -1.14222e-06      15.6076 
         -10     0.255865  8.54942e-05 -1.29336e-06      15.6076 
         -10     0.271613  8.52545e-05 -1.45575e-06      15.6076 
         -10     0.287818  8.50369e-05  -1.6288e-06      15.6076 
         -10     0.304506  8.48477e-05 -1.81231e-06      15.6076 
         -10      0.32165  8.46897e-05 -2.00556e-06      15.6076 
         -10     0.339278  8.45614e-05 -2.20843e-06      15.6076 
         -10     0.357377  8.44583e-05 -2.42032e-06      15.6076 
         -10      0.37593  8.43738e-05 -2.64059e-06      15.6076 
         -10     0.394968  8.43002e-05 -2.86911e-06      15.6076 
         -10     0.414461  8.42299e-05 -3.10499e-06      15.6076 
         -10      0.43444   8.4157e-05 -3.34801e-06      15.6076 
         -10     0.454872  8.40786e-05  -3.5971e-06      15.6076 
         -10     0.475791  8.39957e-05 -3.85194e-06      15.6076 
         -10     0.497163  8.39134e-05 -4.11133e-06      15.6076 
         -10     0.519021  8.38408e-05 -4.37485e-06      15.6076 
         -10      0.54135   8.3789e-05 -4.64158e-06      15.6076 
         -10     0.564131  8.37673e-05 -4.91075e-06      15.6076 
         -10       0.5874  8.37778e-05 -5.18259e-06      15.6076 
         -10     0.611121  8.38103e-05 -5.45613e-06      15.6076 
         -10      0.63533   8.3913e-05 -5.72154e-06      15.6076 
         -10      0.65999  8.40738e-05 -5.98604e-06      15.6076 
         -10     0.685139  8.43073e-05 -6.24926e-06      15.6076 
         -10     0.710759  8.46252e-05 -6.51022e-06      15.6076 
         -10     0.736828  8.50361e-05 -6.76792e-06      15.6076 
         -10     0.763387  8.55468e-05 -7.02199e-06      15.6076 
         -10     0.790396  8.61602e-05  -7.2713e-06      15.6076 
         -10     0.817896  8.68782e-05 -7.51549e-06      15.6076 
         -10     0.845843  8.76978e-05  -7.7535e-06      15.6076 
         -10     0.874283  8.86168e-05 -7.98509e-06      15.6076 
         -10      0.90317  8.96278e-05 -8.20933e-06      15.6076 
         -10     0.932551  9.07251e-05  -8.4261e-06      15.6076 
         -10     0.962401  9.18991e-05 -8.63482e-06      15.6076 
         -10     0.992697  9.31396e-05 -8.83504e-06      15.6076 
         -10      1.02349  9.44388e-05 -9.02689e-06      15.6076 
         -10      1.05472   9.5785e-05 -9.20995e-06      15.6076 
         -10      1.08645  9.71715e-05  -9.3845e-06      15.6076 
         -10      1.11863  9.85882e-05 -9.55034e-06      15.6076 
         -10       1.1513  0.000100031 -9.70786e-06      15.6076 
         -10      1.18444  0.000101493 -9.85708e-06      15.6076 
         -10      1.21802   0.00010297 -9.99804e-06      15.6076 
         -10      1.25211  0.000104463 -1.01311e-05      15.6076 
         -10      1.28663  0.000105969 -1.02559e-05      15.6076 
         -10      1.32165  0.000107489 -1.03725e-05      15.6076 
         -10      1.35712   0.00010902 -1.04801e-05      15.6076 
         -10      1.39308  0.000110561 -1.05779e-05      15.6076 
         -10      1.42951  0.000112103 -1.06642e-05      15.6075 
         -10      1.46638  0.000113629 -1.07366e-05      15.6075 
         -10      1.50375  0.000115115 -1.07918e-05      15.6075 
         -10      1.54156  0.000116416 -1.08459e-05      15.6075 
         -10      1.57987  0.000117851  -1.0886e-05      15.6075 
         -10      1.61863  0.000119359 -1.09146e-05      15.6075 
         -10      1.65788  0.000120874 -1.09351e-05      15.6075 
         -10      1.69757  0.000122332 -1.09503e-05      15.6075 
         -10      1.73776  0.000123682 -1.09629e-05      15.6075 
         -10      1.77842   0.00012488 -1.09746e-05      15.6075 
         -10      1.81952  0.000125886 -1.09869e-05      15.6075 
         -10      1.86113  0.000126676 -1.10009e-05      15.6075 
         -10      1.90316  0.000127228 -1.10169e-05      15.6075 
         -10      1.94571  0.000127532 -1.10351e-05      15.6075 
         -10      1.98869  0.000127582 -1.10548e-05      15.6075 
         -10      2.03217  0.000127383 -1.10752e-05      15.6075 
         -10      2.07612  0.000126945 -1.10951e-05      15.6075 
         -10      2.12051  0.000126285 -1.11128e-05      15.6075 
         -10       2.1654  0.000125423 -1.11263e-05      15.6075 
         -10      2.21073  0.000124389 -1.11333e-05      15.6075 
         -10      2.25656  0.000123212 -1.11315e-05      15.6075 
         -10      2.30283  0.000121928 -1.11181e-05      15.6075 
         -10       2.3496  0.000120572 -1.10904e-05      15.6075 
         -10      2.39685  0.000119182 -1.10456e-05      15.6075 
         -10      2.44452  0.000117799 -1.09809e-05      15.6075 
         -10      2.49271  0.000116457 -1.08936e-05      15.6074 
         -10      2.54132  0.000115195 -1.07813e-05      15.6074 
         -10      2.59044  0.000114041 -1.06415e-05      15.6074 
         -10         2.64  0.000113028 -1.04724e-05      15.6074 
         -10      2.69006  0.000112178 -1.02721e-05      15.6074 
         -10      2.74056   0.00011151 -1.00396e-05      15.6074 
         -10      2.79156  0.000111035 -9.77381e-06      15.6074 
         -10      2.84304  0.000110759 -9.47467e-06      15.6074 
         -10      2.89494   0.00011068 -9.14276e-06      15.6074 
         -10      2.94735  0.000110788 -8.77844e-06      15.6074 
         -10       3.0002  0.000111066 -8.38379e-06      15.6074 
         -10      3.05355   0.00011149 -7.96029e-06      15.6074 
         -10      3.10733  0.000112031 -7.51124e-06      15.6074 
         -10      3.16163  0.000112654 -7.03912e-06      15.6073 
         -10      3.21639  0.000113321 -6.54791e-06      15.6073 
         -10      3.27158  0.000113995 -6.04196e-06      15.6073 
         -10      3.32729   0.00011464 -5.52466e-06      15.6073 
         -10      3.38342  0.000115226   -5.001e-06      15.6073 
         -10      3.44007  0.000115734 -4.47418e-06      15.6073 
         -10      3.49714  0.000116161 -3.94856e-06      15.6073 
         -10      3.55472  0.000116525 -3.42608e-06      15.6073 
         -10      3.61273  0.000116873 -2.90918e-06      15.6073 
         -10      3.67125  0.000117294 -2.39706e-06      15.6073 
         -10      3.73025   0.00011792 -1.88803e-06      15.6072 
         -10      3.78967  0.000118529 -1.35211e-06      15.6072 
         -10      3.84961  0.000118991 -8.36829e-07      15.6072 
         -10      3.90996  0.000119427 -3.53656e-07      15.6072 
         -10      3.97084   0.00011984  1.03485e-07      15.6072 
         -10      4.03214  0.000120235  5.34881e-07      15.6072 
         -10      4.09395  0.000120616   9.4001e-07      15.6072 
         -10      4.15624  0.000120989  1.31692e-06      15.6071 
         -10      4.21895  0.000121356  1.66487e-06      15.6071 
         -10      4.28217  0.000121687  2.12797e-06      15.6071 
         -10      4.34582   0.00012199  2.58175e-06      15.6071 
         -10      4.40998  0.000122277  2.98961e-06      15.6071 
         -10      4.47457  0.000122548  3.36222e-06      15.6071 
         -10      4.53968  0.000122805  3.71322e-06       15.607 
         -10      4.60525  0.000123049  4.05582e-06       15.607 
         -10      4.67125   0.00012328  4.40243e-06       15.607 
         -10      4.73777  0.000123499  4.76403e-06       15.607 
         -10       4.8047  0.000123705  5.14655e-06       15.607 
         -10      4.87216    0.0001239  5.55149e-06      15.6069 
         -10      4.94003  0.000124087   5.9715e-06      15.6069 
         -10      5.00843  0.000124272  6.39088e-06      15.6069 
         -10      5.07724  0.000124466  6.78062e-06      15.6069 
         -10      5.14658  0.000124687  7.09859e-06      15.6069 
         -10      5.21639   0.00012496  7.28453e-06      15.6068 
         -10      5.28661  0.000125312  7.37453e-06      15.6068 
         -10      5.35736  0.000125602  7.86979e-06      15.6068 
         -10      5.42852  0.000125848  8.18525e-06      15.6068 
         -10      5.50021  0.000126074  8.40863e-06      15.6067 
         -10      5.57231  0.000126295   8.6007e-06      15.6067 
         -10      5.64493  0.000126518  8.80113e-06      15.6067 
         -10      5.71803  0.000126745  9.03145e-06      15.6066 
         -10      5.79154  0.000126973   9.2994e-06      15.6066 
         -10      5.86558  0.000127198  9.60348e-06      15.6066 
         -10      5.94003  0.000127416  9.93495e-06      15.6066 
         -10      6.01501   0.00012762   1.0283e-05      15.6065 
         -10       6.0904   0.00012781  1.06353e-05      15.6065 
         -10      6.16632  0.000127984   1.0983e-05      15.6065 
         -10      6.24271  0.000128144  1.13198e-05      15.6064 
         -10       6.3195  0.000128296  1.16447e-05      15.6064 
         -10      6.39683  0.000128443  1.19622e-05      15.6064 
         -10      6.47457  0.000128594  1.22809e-05      15.6063 
         -10      6.55284  0.000128752   1.2613e-05      15.6063 
         -10      6.63152  0.000128917  1.29703e-05      15.6062 
         -10      6.71073  0.000129083   1.3362e-05      15.6062 
         -10      6.79034  0.000129229  1.37872e-05      15.6062 
         -10      6.87049  0.000129318  1.42306e-05      15.6061 
         -10      6.95111  0.000129285  1.45405e-05      15.6061 
         -10      7.03214  0.000129158  1.45346e-05       15.606 
         -10       7.1137  0.000128979  1.50597e-05       15.606 
         -10      7.19566  0.000128981  1.53498e-05       15.606 
         -10      7.27816  0.000129416  1.53916e-05      15.6059 
         -10      7.36106   0.00012978  1.54257e-05      15.6059 
         -10      7.44451  0.000130069  1.54607e-05      15.6058 
         -10      7.52842   0.00013029  1.55022e-05      15.6058 
         -10      7.61273  0.000130454   1.5553e-05      15.6057 
         -10      7.69758  0.000130575  1.56144e-05      15.6057 
         -10      7.78283  0.000130667  1.56861e-05      15.6056 
         -10      7.86862  0.000130746  1.57673e-05      15.6056 
         -10      7.95481  0.000130821  1.58567e-05      15.6055 
         -10      8.04155  0.000130899  1.59531e-05      15.6054 
         -10      8.12868  0.000130981  1.60554e-05      15.6054 
         -10      8.21635  0.000131062  1.61629e-05      15.6053 
         -10      8.30449  0.000131135   1.6275e-05      15.6053 
         -10      8.39303  0.000131188  1.63908e-05      15.6052 
         -10      8.48211  0.000131208  1.65091e-05      15.6051 
         -10      8.57159  0.000131185  1.66271e-05      15.6051 
         -10      8.66161  0.000131114  1.67401e-05       15.605 
         -10      8.75203  0.000131003    1.684e-05      15.6049 
         -10      8.84299  0.000130877  1.69137e-05      15.6049 
         -10      8.93443  0.000130787   1.6996e-05      15.6048 
         -10      9.02626  0.000130802  1.73103e-05      15.6047 
         -10      9.11863  0.000130903  1.77404e-05      15.6047 
         -10      9.21139  0.000131064  1.81736e-05      15.6046 
         -10      9.30471  0.000131251  1.85341e-05      15.6045 
         -10      9.39841  0.000131414  1.87467e-05      15.6044 
         -10      9.49267  0.000131471  1.86962e-05      15.6044 
         -10      9.58739  0.000131491    1.905e-05      15.6043 
         -10      9.68251  0.000131533  1.95188e-05      15.6042 
         -10      9.77817  0.000131552  1.98012e-05      15.6041 
         -10      9.87422  0.000131556  1.99736e-05       15.604 
         -10      9.97083   0.00013155  2.00923e-05      15.6039 
         -10      10.0678  0.000131537  2.01955e-05      15.6039 
         -10      10.1654  0.000131517   2.0307e-05      15.6038 
         -10      10.2633  0.000131494  2.04386e-05      15.6037 
         -10      10.3618  0.000131468  2.05932e-05      15.6036 
         -10      10.4607  0.000131443  2.07663e-05      15.6035 
         -10      10.5601  0.000131421  2.09477e-05      15.6034 
         -10        10.66  0.000131406  2.11239e-05      15.6033 
         -10      10.7603  0.000131401  2.12771e-05      15.6032 
         -10      10.8611   0.00013141  2.13872e-05      15.6031 
         -10      10.9623  0.000131433  2.14297e-05       15.603 
         -10      11.0641  0.000131466  2.13756e-05      15.6029 
         -10      11.1663  0.000131497  2.11995e-05      15.6028 
         -10       11.269   0.00013146    2.128e-05      15.6027 
         -10      11.3721  0.000131385  2.13378e-05      15.6025 
         -10      11.4757  0.000131278  2.13809e-05      15.6024 
         -10      11.5798  0.000131151  2.14147e-05      15.6023 
         -10      11.6844  0.000131021  2.14414e-05      15.6022 
         -10      11.7894  0.000130909  2.14614e-05      15.6021 
         -10       11.895  0.000130832  2.14741e-05      15.6019 
         -10      12.0009  0.000130807  2.14798e-05      15.6018 
         -10      12.1073   0.00013084  2.14818e-05      15.6017 
         -10      12.2142  0.000130927  2.14893e-05      15.6016 
         -10      12.3216  0.000131047  2.15207e-05      15.6014 
         -10      12.4294  0.000131154   2.1608e-05      15.6013 
         -10      12.5378  0.000131091  2.16645e-05      15.6012 
         -10      12.6465  0.000130917  2.16669e-05       15.601 
         -10      12.7558  0.000130767  2.17326e-05      15.6009 
         -10      12.8656  0.000130646  2.18445e-05      15.6007 
         -10      12.9757  0.000130553  2.19792e-05      15.6006 
         -10      13.0864  0.000130486  2.21119e-05      15.6005 
         -10      13.1975  0.000130437  2.22181e-05      15.6003 
         -10      13.3092    0.0001304  2.22773e-05      15.6002 
         -10      13.4212  0.000130369   2.2275e-05         15.6 
         -10      13.5338  0.000130339  2.22048e-05      15.5998 
         -10      13.6468  0.000130307  2.20704e-05      15.5997 
         -10      13.7603  0.000130271  2.18868e-05      15.5995 
         -10      13.8743   0.00013023    2.168e-05      15.5994 
         -10      13.9886  0.000130187   2.1489e-05      15.5992 
         -10      14.1036  0.000130143  2.13631e-05       15.599 
         -10      14.2189  0.000130097   2.1363e-05      15.5989 
         -10      14.3348   0.00013011  2.14491e-05      15.5987 
         -10       14.451  0.000130254  2.13361e-05      15.5985 
         -10      14.5678  0.000130301   2.1302e-05      15.5983 
         -10      14.6851  0.000130283  2.13215e-05      15.5981 
         -10      14.8028  0.000130226  2.13758e-05       15.598 
         -10       14.921   0.00013015  2.14515e-05      15.5978 
         -10      15.0396  0.000130069  2.15392e-05      15.5976 
         -10      15.1588  0.000129992  2.16335e-05      15.5974 
         -10      15.2783  0.000129926  2.17309e-05      15.5972 
         -10      15.3984  0.000129873  2.18302e-05       15.597 
         -10       15.519  0.000129833  2.19309e-05      15.5968 
         -10        15.64  0.000129803  2.20327e-05      15.5966 
         -10      15.7615  0.000129781  2.21355e-05      15.5964 
         -10      15.8834  0.000129761  2.22384e-05      15.5962 
         -10      16.0058  0.000129739  2.23398e-05       15.596 
         -10      16.1286   0.00012971  2.24367e-05      15.5957 
         -10       16.252  0.000129668  2.25254e-05      15.5955 
         -10      16.3759  0.000129611   2.2601e-05      15.5953 
         -10      16.5002  0.000129538   2.2658e-05      15.5951 
         -10       16.625  0.000129447  2.26908e-05      15.5949 
         -10      16.7501  0.000129341  2.26943e-05      15.5946 
         -10      16.8759  0.000129225  2.26649e-05      15.5944 
         -10       17.002  0.000129104  2.26014e-05      15.5942 
         -10      17.1287  0.000128989  2.25066e-05      15.5939 
         -10      17.2557  0.000128891  2.23888e-05      15.5937 
         -10      17.3834  0.000128825  2.22635e-05      15.5934 
         -10      17.5115  0.000128809  2.21562e-05      15.5932 
         -10      17.6399  0.000128861   2.2104e-05      15.5929 
         -10       17.769  0.000129002  2.21593e-05      15.5927 
         -10      17.8984  0.000129257   2.2392e-05      15.5924 
         -10      18.0284  0.000129649  2.28942e-05      15.5922 
         -10      18.1587  0.000129508  2.34348e-05      15.5919 
         -10      18.2896  0.000129259  2.33033e-05      15.5916 
         -10       18.421  0.000128932  2.26998e-05      15.5914 
         -10      18.5528  0.000128557   2.2714e-05      15.5911 
         -10      18.6851  0.000128328  2.28432e-05      15.5908 
         -10      18.8178  0.000128203  2.30213e-05      15.5905 
         -10      18.9511  0.000128148  2.32033e-05      15.5903 
         -10      19.0847  0.000128132  2.33612e-05        15.59 
         -10      19.2189  0.000128135  2.34815e-05      15.5897 
         -10      19.3535  0.000128139  2.35614e-05      15.5894 
         -10      19.4886  0.000128133  2.36063e-05      15.5891 
         -10      19.6242  0.000128109  2.36266e-05      15.5888 
         -10      19.7602  0.000128062  2.36357e-05      15.5885 
         -10      19.8968  0.000127991  2.36475e-05      15.5882 
         -10      20.0337  0.000127897  2.36751e-05      15.5879 
         -10      20.1712  0.000127784  2.37286e-05      15.5876 
         -10      20.3091  0.000127654  2.38144e-05      15.5872 
         -10      20.4475  0.000127514  2.39348e-05      15.5869 
         -10      20.5864  0.000127368   2.4087e-05      15.5866 
         -10      20.7257  0.000127221  2.42639e-05      15.5863 
         -10      20.8655  0.000127078   2.4455e-05      15.5859 
         -10      21.0058  0.000126943  2.46467e-05      15.5856 
         -10      21.1465   0.00012682  2.48256e-05      15.5853 
         -10      21.2877  0.000126711  2.49796e-05      15.5849 
         -10      21.4294  0.000126617  2.51021e-05      15.5846 
         -10      21.5716  0.000126539  2.51952e-05      15.5842 
         -10      21.7142  0.000126475  2.52745e-05      15.5839 
         -10      21.8573  0.000126423  2.53747e-05      15.5835 
         -10      22.0008  0.000126382  2.55552e-05      15.5832 
         -10      22.1449  0.000126349  2.59081e-05      15.5828 
         -10      22.2893  0.000126225  2.59304e-05      15.5824 
         -10      22.4344   0.00012617  2.59244e-05      15.5821 
         -10      22.5797  0.000126123  2.59505e-05      15.5817 
         -10      22.7257  0.000126029  2.59951e-05      15.5813 
         -10      22.8721  0.000125868   2.6044e-05      15.5809 
         -10      23.0189  0.000125648  2.60842e-05      15.5806 
         -10      23.1663  0.000125399  2.61074e-05      15.5802 
         -10       23.314  0.000125169  2.61128e-05      15.5798 
         -10      23.4623  0.000125009  2.61119e-05      15.5794 
         -10       23.611  0.000124965  2.61327e-05       15.579 
         -10      23.7602  0.000125054  2.62265e-05      15.5786 
         -10        23.91  0.000125252  2.64738e-05      15.5782 
         -10        24.06   0.00012538  2.67981e-05      15.5778 
         -10      24.2107   0.00012525  2.66499e-05      15.5774 
         -10      24.3617  0.000125171   2.6551e-05      15.5769 
         -10      24.5133  0.000125093  2.64935e-05      15.5765 
         -10      24.6653  0.000124986  2.64704e-05      15.5761 
         -10      24.8178  0.000124833  2.64751e-05      15.5757 
         -10      24.9708  0.000124633  2.65017e-05      15.5752 
         -10      25.1242  0.000124398  2.65445e-05      15.5748 
         -10      25.2781  0.000124145  2.65984e-05      15.5743 
         -10      25.4324  0.000123899  2.66584e-05      15.5739 
         -10      25.5873  0.000123685  2.67194e-05      15.5735 
         -10      25.7426  0.000123529  2.67763e-05       15.573 
         -10      25.8984  0.000123448  2.68232e-05      15.5725 
         -10      26.0546  0.000123447  2.68533e-05      15.5721 
         -10      26.2114  0.000123516  2.68586e-05      15.5716 
         -10      26.3686   0.00012362  2.68294e-05      15.5712 
         -10      26.5262  0.000123697  2.67533e-05      15.5707 
         -10      26.6844  0.000123648  2.66154e-05      15.5702 
         -10      26.8429   0.00012333   2.6397e-05      15.5697 
         -10       27.002  0.000122558  2.60827e-05      15.5692 
         -10      27.1615  0.000122611  2.65453e-05      15.5687 
         -10      27.3216  0.000122605  2.68123e-05      15.5683 
         -10      27.4821  0.000122562  2.69299e-05      15.5678 
         -10       27.643  0.000122499  2.69398e-05      15.5673 
         -10      27.8044   0.00012243  2.68794e-05      15.5668 
         -10      27.9663  0.000122365   2.6782e-05      15.5662 
         -10      28.1287  0.000122312  2.66763e-05      15.5657 
         -10      28.2914  0.000122272  2.65875e-05      15.5652 
         -10      28.4548  0.000122246  2.65361e-05      15.5647 
         -10      28.6185   0.00012223  2.65382e-05      15.5642 
         -10      28.7828  0.000122217  2.66051e-05      15.5636 
         -10      28.9475  0.000122199  2.67425e-05      15.5631 
         -10      29.1126  0.000122169  2.69497e-05      15.5626 
         -10      29.2784  0.000122116  2.72195e-05       15.562 
         -10      29.4444  0.000122036  2.75359e-05      15.5615 
         -10       29.611  0.000121926  2.78744e-05      15.5609 
         -10       29.778  0.000121789  2.81988e-05      15.5604 
         -10      29.9456  0.000121637  2.84616e-05      15.5598 
         -10      30.1137  0.000121493  2.86004e-05      15.5593 
         -10      30.2821  0.000121394  2.85369e-05      15.5587 
         -10      30.4511  0.000121226  2.86848e-05      15.5581 
         -10      30.6204  0.000121014  2.88227e-05      15.5575 
         -10      30.7903  0.000120788  2.89564e-05       15.557 
         -10      30.9606   0.00012057  2.90911e-05      15.5564 
         -10      31.1315  0.000120372  2.92259e-05      15.5558 
         -10      31.3028  0.000120198  2.93557e-05      15.5552 
         -10      31.4745  0.000120049  2.94737e-05      15.5546 
         -10      31.6468   0.00011992  2.95737e-05       15.554 
         -10      31.8194  0.000119805  2.96519e-05      15.5534 
         -10      31.9926  0.000119696  2.97103e-05      15.5528 
         -10      32.1662  0.000119588  2.97581e-05      15.5522 
         -10      32.3404  0.000119479  2.98149e-05      15.5516 
         -10      32.5149  0.000119375  2.99127e-05       15.551 
         -10        32.69  0.000119291  3.00992e-05      15.5503 
         -10      32.8655  0.000119256  3.04396e-05      15.5497 
         -10      33.0414  0.000119314  3.10193e-05      15.5491 
         -10       33.218  0.000119213  3.08705e-05      15.5484 
         -10      33.3948  0.000119036  3.04668e-05      15.5478 
         -10      33.5723  0.000118905  3.02349e-05      15.5471 
         -10        33.75  0.000118812  3.01268e-05      15.5465 
         -10      33.9284  0.000118747  3.01032e-05      15.5458 
         -10      34.1073  0.000118701  3.01328e-05      15.5452 
         -10      34.2865  0.000118662  3.01915e-05      15.5445 
         -10      34.4663  0.000118621  3.02617e-05      15.5438 
         -10      34.6465  0.000118569  3.03311e-05      15.5432 
         -10      34.8272  0.000118497  3.03924e-05      15.5425 
         -10      35.0083  0.000118399  3.04424e-05      15.5418 
         -10        35.19  0.000118272  3.04812e-05      15.5411 
         -10      35.3721  0.000118113  3.05119e-05      15.5405 
         -10      35.5546  0.000117925  3.05395e-05      15.5398 
         -10      35.7377  0.000117715   3.0571e-05      15.5391 
         -10      35.9211  0.000117491  3.06144e-05      15.5384 
         -10      36.1052  0.000117268  3.06786e-05      15.5377 
         -10      36.2895  0.000117065   3.0773e-05       15.537 
         -10      36.4745  0.000116907  3.09071e-05      15.5362 
         -10      36.6598  0.000116823  3.10903e-05      15.5355 
         -10      36.8457  0.000116746  3.12955e-05      15.5348 
         -10      37.0321  0.000116455  3.13955e-05      15.5341 
         -10      37.2188  0.000116199  3.14636e-05      15.5333 
         -10      37.4062  0.000115976  3.15108e-05      15.5326 
         -10      37.5938  0.000115782  3.15446e-05      15.5319 
         -10      37.7821  0.000115613  3.15702e-05      15.5311 
         -10      37.9707  0.000115466  3.15906e-05      15.5304 
         -10      38.1599  0.000115339  3.16074e-05      15.5296 
         -10      38.3496  0.000115227  3.16217e-05      15.5289 
         -10      38.5396  0.000115129  3.16347e-05      15.5281 
         -10      38.7302  0.000115043  3.16485e-05      15.5274 
         -10      38.9211  0.000114967  3.16679e-05      15.5266 
         -10      39.1127  0.000114902  3.17006e-05      15.5258 
         -10      39.3046   0.00011485  3.17594e-05       15.525 
         -10      39.4971  0.000114814  3.18632e-05      15.5243 
         -10      39.6899    0.0001148  3.20384e-05      15.5235 
         -10      39.8833  0.000114815  3.23214e-05      15.5227 
         -10      40.0772  0.000114811  3.26243e-05      15.5219 
         -10      40.2714  0.000114391  3.20282e-05      15.5211 
         -10      40.4663  0.000114036  3.15768e-05      15.5203 
         -10      40.6615  0.000113739  3.12483e-05      15.5195 
         -10      40.8573  0.000113491  3.10216e-05      15.5187 
         -10      41.0534  0.000113284  3.08782e-05      15.5179 
         -10      41.2501  0.000113111  3.08007e-05      15.5171 
         -10      41.4473  0.000112964  3.07741e-05      15.5162 
         -10      41.6448  0.000112837   3.0785e-05      15.5154 
         -10      41.8429  0.000112722  3.08217e-05      15.5146 
         -10      42.0414  0.000112615  3.08745e-05      15.5138 
         -10      42.2405  0.000112511  3.09355e-05      15.5129 
         -10      42.4399  0.000112407  3.09982e-05      15.5121 
         -10      42.6399  0.000112298   3.1058e-05      15.5112 
         -10      42.8404  0.000112184  3.11117e-05      15.5104 
         -10      43.0412  0.000112063  3.11575e-05      15.5095 
         -10      43.2426  0.000111935  3.11951e-05      15.5087 
         -10      43.4444  0.000111801   3.1225e-05      15.5078 
         -10      43.6467  0.000111662   3.1249e-05       15.507 
         -10      43.8494   0.00011152  3.12695e-05      15.5061 
         -10      44.0527  0.000111377  3.12896e-05      15.5052 
         -10      44.2563  0.000111236  3.13125e-05      15.5043 
         -10      44.4606  0.000111099  3.13419e-05      15.5035 
         -10      44.6653  0.000110968  3.13808e-05      15.5026 
         -10      44.8704  0.000110846   3.1432e-05      15.5017 
         -10       45.076  0.000110734  3.14975e-05      15.5008 
         -10       45.282   0.00011063  3.15778e-05      15.4999 
         -10      45.4886  0.000110534  3.16723e-05       15.499 
         -10      45.6955  0.000110442  3.17778e-05      15.4981 
         -10       45.903  0.000110347  3.18892e-05      15.4972 
         -10      46.1111  0.000110239   3.1998e-05      15.4963 
         -10      46.3194  0.000110106  3.20925e-05      15.4954 
         -10      46.5283   0.00010993   3.2157e-05      15.4945 
         -10      46.7376  0.000109689  3.21712e-05      15.4935 
         -10      46.9475  0.000109354  3.21094e-05      15.4926 
         -10      47.1577  0.000108893  3.19406e-05      15.4917 
         -10      47.3685  0.000108356  3.16813e-05      15.4908 
         -10      47.5798  0.000108588  3.18622e-05      15.4898 
         -10      47.7914  0.000108719  3.20275e-05      15.4889 
         -10      48.0037  0.000108756  3.21754e-05      15.4879 