Variables = x, y, u, v, p

Zone, I=800, F=POINT
          50            0 -9.16382e-20 -1.89465e-24     -57.0188 
          50     0.000234 -4.54968e-06 -1.10327e-10     -57.0188 
          50     0.000939 -1.72581e-05 -6.18834e-10     -57.0188 
          50     0.002113  -3.5366e-05 -2.05945e-09     -57.0188 
          50     0.003759 -5.52176e-05 -5.35184e-09     -57.0188 
          50     0.005872 -7.31194e-05 -1.18064e-08     -57.0188 
          50     0.008457 -8.65664e-05 -2.31966e-08     -57.0188 
          50      0.01151 -9.47822e-05 -4.17289e-08     -57.0188 
          50     0.015036 -9.89815e-05 -7.01424e-08     -57.0188 
          50     0.019031 -0.000101802   -1.116e-07     -57.0188 
          50     0.023493 -0.000106239 -1.69721e-07     -57.0188 
          50     0.028429 -0.000114291 -2.48695e-07     -57.0188 
          50     0.033831 -0.000125853 -3.52884e-07     -57.0188 
          50     0.039706 -0.000138562 -4.87269e-07     -57.0188 
          50     0.046047 -0.000148909 -6.56859e-07     -57.0188 
          50     0.052863 -0.000154801  -8.6737e-07     -57.0188 
          50      0.06015 -0.000158272 -1.12445e-06     -57.0188 
          50       0.0679 -0.000165562 -1.43369e-06     -57.0188 
          50     0.076126 -0.000178626  -1.8015e-06     -57.0188 
          50     0.084816 -0.000176416 -2.23285e-06     -57.0188 
          50     0.093982 -0.000183813 -2.73394e-06     -57.0188 
          50     0.103611 -0.000187828 -3.30911e-06     -57.0188 
          50     0.113718 -0.000189631 -3.96405e-06     -57.0188 
          50     0.124286 -0.000190063 -4.70184e-06     -57.0188 
          50     0.135333 -0.000189616 -5.52721e-06     -57.0188 
          50      0.14685  -0.00018845 -6.44227e-06     -57.0188 
          50     0.158827 -0.000186494 -7.44812e-06     -57.0188 
          50     0.171284 -0.000183581 -8.54759e-06     -57.0188 
          50     0.184201 -0.000179637 -9.73934e-06     -57.0188 
          50     0.197599 -0.000174804  -1.1025e-05     -57.0188 
          50     0.211455 -0.000169492 -1.24013e-05     -57.0188 
          50     0.225792 -0.000164149 -1.38688e-05     -57.0188 
          50       0.2406 -0.000158672 -1.54236e-05     -57.0188 
          50     0.255865 -0.000152309 -1.70604e-05     -57.0188 
          50     0.271613 -0.000146481 -1.87811e-05     -57.0188 
          50     0.287818 -0.000140718 -2.05788e-05     -57.0188 
          50     0.304506 -0.000135159 -2.24514e-05     -57.0188 
          50      0.32165 -0.000129944 -2.43914e-05     -57.0188 
          50     0.339278  -0.00012518 -2.63978e-05     -57.0188 
          50     0.357377 -0.000120968 -2.84656e-05     -57.0188 
          50      0.37593 -0.000117388 -3.05895e-05     -57.0188 
          50     0.394968 -0.000114494 -3.27698e-05     -57.0188 
          50     0.414461 -0.000112333     -3.5e-05     -57.0188 
          50      0.43444 -0.000110928 -3.72803e-05     -57.0188 
          50     0.454872 -0.000110296 -3.96033e-05     -57.0188 
          50     0.475791  -0.00011044 -4.19689e-05     -57.0188 
          50     0.497163 -0.000111355  -4.4369e-05     -57.0188 
          50     0.519021 -0.000113027 -4.68029e-05     -57.0188 
          50      0.54135 -0.000115428 -4.92649e-05     -57.0188 
          50     0.564131  -0.00011851 -5.17502e-05     -57.0188 
          50       0.5874   -0.0001222 -5.42627e-05     -57.0188 
          50     0.611121 -0.000126354 -5.68019e-05     -57.0188 
          50      0.63533 -0.000130908 -5.93445e-05     -57.0188 
          50      0.65999 -0.000135887 -6.18798e-05     -57.0188 
          50     0.685139 -0.000141115 -6.44094e-05     -57.0188 
          50     0.710759 -0.000146413 -6.69274e-05     -57.0188 
          50     0.736828 -0.000151615 -6.94267e-05     -57.0188 
          50     0.763387 -0.000156579  -7.1905e-05     -57.0188 
          50     0.790396 -0.000161163 -7.43518e-05     -57.0188 
          50     0.817896 -0.000165257 -7.67629e-05     -57.0188 
          50     0.845843 -0.000168755 -7.91266e-05     -57.0188 
          50     0.874283 -0.000171584 -8.14386e-05     -57.0188 
          50      0.90317  -0.00017368 -8.36874e-05     -57.0188 
          50     0.932551 -0.000175006 -8.58693e-05     -57.0188 
          50     0.962401 -0.000175542 -8.79761e-05     -57.0188 
          50     0.992697  -0.00017529 -9.00011e-05     -57.0188 
          50      1.02349 -0.000174269  -9.1944e-05     -57.0188 
          50      1.05472 -0.000172519 -9.37998e-05     -57.0188 
          50      1.08645 -0.000170091 -9.55716e-05     -57.0188 
          50      1.11863 -0.000167056 -9.72582e-05     -57.0188 
          50       1.1513 -0.000163487 -9.88659e-05     -57.0187 
          50      1.18444 -0.000159472 -0.000100398     -57.0187 
          50      1.21802 -0.000155106 -0.000101859     -57.0187 
          50      1.25211 -0.000150472 -0.000103258     -57.0187 
          50      1.28663 -0.000145666 -0.000104594     -57.0187 
          50      1.32165 -0.000140759 -0.000105872     -57.0187 
          50      1.35712 -0.000135826 -0.000107084     -57.0187 
          50      1.39308 -0.000130912 -0.000108221     -57.0187 
          50      1.42951 -0.000126049 -0.000109255     -57.0187 
          50      1.46638 -0.000121248 -0.000110145     -57.0187 
          50      1.50375 -0.000116479 -0.000110831     -57.0187 
          50      1.54156 -0.000111659 -0.000111649     -57.0187 
          50      1.57987 -0.000106757 -0.000112401     -57.0187 
          50      1.61863 -0.000101823 -0.000113059     -57.0187 
          50      1.65788 -9.68889e-05 -0.000113621     -57.0187 
          50      1.69757 -9.19982e-05 -0.000114084     -57.0186 
          50      1.73776 -8.71767e-05 -0.000114448     -57.0186 
          50      1.77842 -8.24589e-05 -0.000114709     -57.0186 
          50      1.81952 -7.78763e-05 -0.000114867     -57.0186 
          50      1.86113 -7.34458e-05 -0.000114923     -57.0186 
          50      1.90316 -6.91962e-05 -0.000114877     -57.0186 
          50      1.94571 -6.51389e-05  -0.00011473     -57.0186 
          50      1.98869 -6.12957e-05 -0.000114483     -57.0186 
          50      2.03217 -5.76726e-05 -0.000114139     -57.0186 
          50      2.07612 -5.42819e-05   -0.0001137     -57.0185 
          50      2.12051 -5.11324e-05 -0.000113171     -57.0185 
          50       2.1654 -4.82225e-05 -0.000112553     -57.0185 
          50      2.21073  -4.5558e-05 -0.000111853     -57.0185 
          50      2.25656  -4.3133e-05 -0.000111074     -57.0185 
          50      2.30283 -4.09479e-05 -0.000110221     -57.0185 
          50       2.3496 -3.89935e-05 -0.000109299     -57.0185 
          50      2.39685 -3.72645e-05 -0.000108314     -57.0184 
          50      2.44452 -3.57533e-05 -0.000107273     -57.0184 
          50      2.49271 -3.44476e-05 -0.000106179     -57.0184 
          50      2.54132 -3.33387e-05 -0.000105041     -57.0184 
          50      2.59044 -3.24136e-05 -0.000103862     -57.0184 
          50         2.64 -3.16621e-05 -0.000102649     -57.0184 
          50      2.69006 -3.10713e-05 -0.000101407     -57.0183 
          50      2.74056 -3.06308e-05 -0.000100143     -57.0183 
          50      2.79156 -3.03286e-05 -9.88603e-05     -57.0183 
          50      2.84304 -3.01547e-05 -9.75636e-05     -57.0183 
          50      2.89494 -3.00991e-05 -9.62584e-05     -57.0183 
          50      2.94735 -3.01525e-05 -9.49464e-05     -57.0182 
          50       3.0002 -3.03065e-05 -9.36324e-05     -57.0182 
          50      3.05355 -3.05531e-05 -9.23168e-05     -57.0182 
          50      3.10733 -3.08843e-05  -9.1003e-05     -57.0182 
          50      3.16163 -3.12929e-05 -8.96897e-05     -57.0182 
          50      3.21639 -3.17703e-05  -8.8378e-05     -57.0181 
          50      3.27158 -3.23062e-05 -8.70678e-05     -57.0181 
          50      3.32729 -3.28897e-05 -8.57553e-05     -57.0181 
          50      3.38342 -3.35047e-05   -8.444e-05     -57.0181 
          50      3.44007 -3.41324e-05 -8.31163e-05      -57.018 
          50      3.49714 -3.47459e-05 -8.17821e-05      -57.018 
          50      3.55472 -3.53119e-05 -8.04304e-05      -57.018 
          50      3.61273 -3.57853e-05  -7.9058e-05     -57.0179 
          50      3.67125 -3.61091e-05 -7.76566e-05     -57.0179 
          50      3.73025 -3.62097e-05 -7.62214e-05     -57.0179 
          50      3.78967 -3.62946e-05 -7.46242e-05     -57.0179 
          50      3.84961 -3.64399e-05 -7.31296e-05     -57.0178 
          50      3.90996 -3.65567e-05 -7.17075e-05     -57.0178 
          50      3.97084 -3.66527e-05 -7.02764e-05     -57.0178 
          50      4.03214 -3.67343e-05 -6.88166e-05     -57.0177 
          50      4.09395 -3.68068e-05 -6.73377e-05     -57.0177 
          50      4.15624 -3.68742e-05 -6.58675e-05     -57.0177 
          50      4.21895  -3.6939e-05 -6.44326e-05     -57.0176 
          50      4.28217 -3.70027e-05 -6.30435e-05     -57.0176 
          50      4.34582 -3.70662e-05 -6.16977e-05     -57.0175 
          50      4.40998 -3.71314e-05 -6.03716e-05     -57.0175 
          50      4.47457 -3.72017e-05 -5.90387e-05     -57.0175 
          50      4.53968 -3.72845e-05 -5.76788e-05     -57.0174 
          50      4.60525 -3.73931e-05 -5.63138e-05     -57.0174 
          50      4.67125 -3.74598e-05 -5.51269e-05     -57.0173 
          50      4.73777 -3.75498e-05 -5.38832e-05     -57.0173 
          50       4.8047 -3.76549e-05 -5.26227e-05     -57.0173 
          50      4.87216 -3.77688e-05 -5.13881e-05     -57.0172 
          50      4.94003 -3.78875e-05 -5.01903e-05     -57.0172 
          50      5.00843 -3.80092e-05 -4.90186e-05     -57.0171 
          50      5.07724 -3.81331e-05 -4.78625e-05     -57.0171 
          50      5.14658 -3.82596e-05 -4.67129e-05      -57.017 
          50      5.21639 -3.83897e-05 -4.55728e-05      -57.017 
          50      5.28661 -3.85253e-05 -4.44505e-05     -57.0169 
          50      5.35736 -3.86695e-05 -4.33473e-05     -57.0169 
          50      5.42852  -3.8827e-05 -4.22442e-05     -57.0168 
          50      5.50021 -3.89443e-05  -4.1178e-05     -57.0168 
          50      5.57231 -3.90867e-05 -4.01303e-05     -57.0167 
          50      5.64493 -3.92447e-05 -3.90926e-05     -57.0167 
          50      5.71803 -3.94026e-05 -3.80631e-05     -57.0166 
          50      5.79154 -3.95527e-05 -3.70421e-05     -57.0166 
          50      5.86558 -3.96986e-05  -3.6036e-05     -57.0165 
          50      5.94003  -3.9854e-05 -3.50744e-05     -57.0164 
          50      6.01501 -4.00126e-05 -3.41206e-05     -57.0164 
          50       6.0904 -4.01784e-05 -3.31942e-05     -57.0163 
          50      6.16632 -4.03591e-05 -3.22809e-05     -57.0163 
          50      6.24271 -4.05434e-05 -3.13534e-05     -57.0162 
          50       6.3195 -4.07152e-05 -3.04495e-05     -57.0161 
          50      6.39683 -4.08743e-05 -2.97488e-05     -57.0161 
          50      6.47457 -4.11208e-05 -2.87491e-05      -57.016 
          50      6.55284 -4.13254e-05 -2.78818e-05     -57.0159 
          50      6.63152 -4.15083e-05 -2.70943e-05     -57.0159 
          50      6.71073 -4.16896e-05 -2.63464e-05     -57.0158 
          50      6.79034 -4.18855e-05 -2.56178e-05     -57.0157 
          50      6.87049 -4.21089e-05 -2.48971e-05     -57.0156 
          50      6.95111 -4.23537e-05 -2.41805e-05     -57.0156 
          50      7.03214 -4.25795e-05 -2.34905e-05     -57.0155 
          50       7.1137  -4.2813e-05 -2.28337e-05     -57.0154 
          50      7.19566 -4.30461e-05 -2.22053e-05     -57.0153 
          50      7.27816 -4.32736e-05 -2.15993e-05     -57.0152 
          50      7.36106 -4.34925e-05 -2.10119e-05     -57.0152 
          50      7.44451 -4.37026e-05 -2.04376e-05     -57.0151 
          50      7.52842 -4.39049e-05 -1.98727e-05      -57.015 
          50      7.61273 -4.41014e-05 -1.93153e-05     -57.0149 
          50      7.69758 -4.42944e-05  -1.8766e-05     -57.0148 
          50      7.78283 -4.44844e-05 -1.82342e-05     -57.0147 
          50      7.86862 -4.46692e-05 -1.77386e-05     -57.0146 
          50      7.95481 -4.48415e-05 -1.73158e-05     -57.0146 
          50      8.04155 -4.50178e-05 -1.68371e-05     -57.0145 
          50      8.12868 -4.51878e-05 -1.62975e-05     -57.0144 
          50      8.21635 -4.53327e-05 -1.58024e-05     -57.0143 
          50      8.30449 -4.54573e-05 -1.53327e-05     -57.0142 
          50      8.39303  -4.5567e-05 -1.48757e-05     -57.0141 
          50      8.48211 -4.56672e-05 -1.44226e-05      -57.014 
          50      8.57159 -4.57621e-05 -1.39698e-05     -57.0139 
          50      8.66161 -4.58555e-05 -1.35151e-05     -57.0138 
          50      8.75203 -4.59493e-05 -1.30599e-05     -57.0137 
          50      8.84299 -4.60447e-05 -1.26049e-05     -57.0136 
          50      8.93443 -4.61414e-05 -1.21526e-05     -57.0135 
          50      9.02626 -4.62381e-05 -1.17055e-05     -57.0133 
          50      9.11863  -4.6333e-05 -1.12649e-05     -57.0132 
          50      9.21139  -4.6424e-05 -1.08335e-05     -57.0131 
          50      9.30471 -4.65101e-05 -1.04127e-05      -57.013 
          50      9.39841 -4.65917e-05  -1.0006e-05     -57.0129 
          50      9.49267 -4.66723e-05 -9.61747e-06     -57.0128 
          50      9.58739 -4.67599e-05 -9.25486e-06     -57.0126 
          50      9.68251 -4.68688e-05 -8.93063e-06     -57.0125 
          50      9.77817 -4.70216e-05 -8.66314e-06     -57.0124 
          50      9.87422 -4.71555e-05  -8.2427e-06     -57.0123 
          50      9.97083 -4.72341e-05 -7.74183e-06     -57.0122 
          50      10.0678 -4.76328e-05 -7.74007e-06      -57.012 
          50      10.1654 -4.76664e-05  -7.2715e-06     -57.0119 
          50      10.2633  -4.7739e-05 -6.92446e-06     -57.0118 
          50      10.3618 -4.78438e-05 -6.65376e-06     -57.0116 
          50      10.4607 -4.79736e-05 -6.42602e-06     -57.0115 
          50      10.5601 -4.81211e-05 -6.21722e-06     -57.0113 
          50        10.66 -4.82795e-05 -6.01087e-06     -57.0112 
          50      10.7603 -4.84426e-05 -5.79781e-06     -57.0111 
          50      10.8611 -4.86054e-05 -5.57349e-06     -57.0109 
          50      10.9623 -4.87638e-05 -5.33802e-06     -57.0108 
          50      11.0641 -4.89156e-05 -5.09359e-06     -57.0106 
          50      11.1663 -4.90593e-05 -4.84458e-06     -57.0105 
          50       11.269 -4.91951e-05 -4.59606e-06     -57.0103 
          50      11.3721 -4.93246e-05 -4.35227e-06     -57.0102 
          50      11.4757 -4.94496e-05 -4.11723e-06       -57.01 
          50      11.5798  -4.9573e-05 -3.89266e-06     -57.0099 
          50      11.6844 -4.96972e-05 -3.67903e-06     -57.0097 
          50      11.7894 -4.98238e-05 -3.47393e-06     -57.0095 
          50       11.895 -4.99529e-05 -3.27324e-06     -57.0094 
          50      12.0009 -5.00813e-05 -3.07094e-06     -57.0092 
          50      12.1073 -5.02023e-05 -2.85901e-06      -57.009 
          50      12.2142 -5.03034e-05  -2.6295e-06     -57.0089 
          50      12.3216 -5.03649e-05 -2.37412e-06     -57.0087 
          50      12.4294 -5.03902e-05 -2.12215e-06     -57.0085 
          50      12.5378 -5.04392e-05 -1.96113e-06     -57.0083 
          50      12.6465 -5.04599e-05 -1.81992e-06     -57.0082 
          50      12.7558 -5.04588e-05 -1.68602e-06      -57.008 
          50      12.8656  -5.0443e-05 -1.55096e-06     -57.0078 
          50      12.9757 -5.04203e-05 -1.40981e-06     -57.0076 
          50      13.0864 -5.03994e-05 -1.26062e-06     -57.0074 
          50      13.1975 -5.03894e-05 -1.10495e-06     -57.0072 
          50      13.3092 -5.03996e-05 -9.46648e-07      -57.007 
          50      13.4212 -5.04401e-05 -7.92429e-07     -57.0068 
          50      13.5338 -5.05208e-05 -6.50485e-07     -57.0066 
          50      13.6468 -5.06519e-05 -5.30873e-07     -57.0064 
          50      13.7603 -5.08433e-05 -4.44516e-07     -57.0062 
          50      13.8743 -5.09847e-05 -3.70488e-07      -57.006 
          50      13.9886 -5.10992e-05 -3.04884e-07     -57.0058 
          50      14.1036  -5.1229e-05 -2.45757e-07     -57.0056 
          50      14.2189 -5.13643e-05 -1.83257e-07     -57.0054 
          50      14.3348 -5.14987e-05 -1.11949e-07     -57.0052 
          50       14.451 -5.16275e-05 -3.05129e-08      -57.005 
          50      14.5678 -5.17481e-05  5.95356e-08     -57.0048 
          50      14.6851 -5.18586e-05  1.54352e-07     -57.0045 
          50      14.8028 -5.19579e-05  2.48992e-07     -57.0043 
          50       14.921 -5.20452e-05  3.38842e-07     -57.0041 
          50      15.0396 -5.21189e-05  4.20413e-07     -57.0039 
          50      15.1588  -5.2177e-05  4.93358e-07     -57.0036 
          50      15.2783 -5.22159e-05  5.61553e-07     -57.0034 
          50      15.3984 -5.22306e-05  6.35335e-07     -57.0032 
          50       15.519 -5.22139e-05  7.33041e-07     -57.0029 
          50        15.64 -5.21566e-05  8.83165e-07     -57.0027 
          50      15.7615 -5.23019e-05  9.67775e-07     -57.0024 
          50      15.8834 -5.24206e-05  1.02082e-06     -57.0022 
          50      16.0058 -5.24935e-05  1.06227e-06     -57.0019 
          50      16.1286 -5.25368e-05  1.09513e-06     -57.0017 
          50       16.252 -5.25641e-05  1.12111e-06     -57.0014 
          50      16.3759 -5.25859e-05  1.14087e-06     -57.0012 
          50      16.5002   -5.261e-05  1.15456e-06     -57.0009 
          50       16.625 -5.26419e-05  1.16206e-06     -57.0006 
          50      16.7501 -5.26851e-05  1.16328e-06     -57.0004 
          50      16.8759 -5.27409e-05  1.15837e-06     -57.0001 
          50       17.002 -5.28091e-05  1.14785e-06     -56.9998 
          50      17.1287 -5.28881e-05  1.13263e-06     -56.9995 
          50      17.2557  -5.2975e-05  1.11405e-06     -56.9993 
          50      17.3834 -5.30661e-05  1.09363e-06      -56.999 
          50      17.5115 -5.31571e-05  1.07298e-06     -56.9987 
          50      17.6399 -5.32431e-05   1.0534e-06     -56.9984 
          50       17.769 -5.33194e-05  1.03537e-06     -56.9981 
          50      17.8984 -5.33811e-05  1.01811e-06     -56.9978 
          50      18.0284 -5.34242e-05  9.98727e-07     -56.9975 
          50      18.1587 -5.34448e-05  9.71519e-07     -56.9972 
          50      18.2896 -5.34405e-05  9.26818e-07     -56.9969 
          50       18.421 -5.34097e-05  8.49977e-07     -56.9966 
          50      18.5528 -5.34264e-05  8.63573e-07     -56.9963 
          50      18.6851 -5.34723e-05   9.3378e-07      -56.996 
          50      18.8178 -5.35147e-05  9.96021e-07     -56.9957 
          50      18.9511 -5.35491e-05  1.04151e-06     -56.9954 
          50      19.0847 -5.35699e-05  1.06266e-06     -56.9951 
          50      19.2189 -5.35706e-05  1.05328e-06     -56.9947 
          50      19.3535 -5.35438e-05  1.00828e-06     -56.9944 
          50      19.4886 -5.34815e-05  9.23384e-07     -56.9941 
          50      19.6242  -5.3375e-05  7.94992e-07     -56.9938 
          50      19.7602 -5.33145e-05  7.48062e-07     -56.9934 
          50      19.8968 -5.33921e-05  8.76022e-07     -56.9931 
          50      20.0337 -5.34541e-05  9.62025e-07     -56.9927 
          50      20.1712 -5.35056e-05  1.00388e-06     -56.9924 
          50      20.3091 -5.35539e-05  1.00073e-06      -56.992 
          50      20.4475 -5.36088e-05  9.54257e-07     -56.9917 
          50      20.5864 -5.36815e-05  8.69366e-07     -56.9913 
          50      20.7257 -5.37836e-05  7.55008e-07      -56.991 
          50      20.8655 -5.38551e-05  7.05276e-07     -56.9906 
          50      21.0058 -5.38736e-05  6.79052e-07     -56.9902 
          50      21.1465 -5.38899e-05  6.11046e-07     -56.9899 
          50      21.2877 -5.39046e-05  5.18386e-07     -56.9895 
          50      21.4294 -5.39195e-05  4.14967e-07     -56.9891 
          50      21.5716 -5.39371e-05  3.11964e-07     -56.9888 
          50      21.7142   -5.396e-05  2.17693e-07     -56.9884 
          50      21.8573 -5.39908e-05  1.37508e-07      -56.988 
          50      22.0008 -5.40317e-05   7.4474e-08     -56.9876 
          50      22.1449 -5.40841e-05  2.90699e-08     -56.9872 
          50      22.2893 -5.41487e-05 -1.48091e-10     -56.9868 
          50      22.4344 -5.42251e-05 -1.65344e-08     -56.9864 
          50      22.5797 -5.43116e-05 -2.47963e-08      -56.986 
          50      22.7257 -5.44059e-05  -3.0699e-08     -56.9856 
          50      22.8721 -5.45044e-05 -4.05294e-08     -56.9852 
          50      23.0189 -5.46028e-05 -6.05663e-08     -56.9848 
          50      23.1663 -5.46967e-05 -9.65422e-08     -56.9844 
          50       23.314 -5.47812e-05 -1.52833e-07      -56.984 
          50      23.4623 -5.48522e-05 -2.31965e-07     -56.9835 
          50       23.611 -5.49064e-05 -3.33438e-07     -56.9831 
          50      23.7602 -5.49425e-05 -4.53335e-07     -56.9827 
          50        23.91 -5.49618e-05 -5.82829e-07     -56.9822 
          50        24.06 -5.49692e-05 -7.07339e-07     -56.9818 
          50      24.2107 -5.49747e-05 -8.05711e-07     -56.9814 
          50      24.3617 -5.47373e-05 -8.65158e-07     -56.9809 
          50      24.5133 -5.44885e-05 -8.78868e-07     -56.9805 
          50      24.6653 -5.43476e-05 -8.56795e-07       -56.98 
          50      24.8178 -5.42884e-05 -8.12989e-07     -56.9796 
          50      24.9708 -5.42886e-05 -7.58836e-07     -56.9791 
          50      25.1242 -5.43289e-05 -7.03296e-07     -56.9786 
          50      25.2781 -5.43936e-05 -6.52981e-07     -56.9782 
          50      25.4324 -5.44695e-05  -6.1271e-07     -56.9777 
          50      25.5873 -5.45464e-05 -5.85436e-07     -56.9772 
          50      25.7426 -5.46163e-05  -5.7274e-07     -56.9768 
          50      25.8984 -5.46735e-05 -5.74884e-07     -56.9763 
          50      26.0546 -5.47143e-05 -5.91118e-07     -56.9758 
          50      26.2114 -5.47368e-05 -6.19902e-07     -56.9753 
          50      26.3686 -5.47403e-05 -6.59048e-07     -56.9748 
          50      26.5262 -5.47258e-05 -7.05917e-07     -56.9743 
          50      26.6844 -5.46953e-05 -7.57749e-07     -56.9738 
          50      26.8429 -5.46515e-05 -8.11561e-07     -56.9733 
          50       27.002 -5.45979e-05 -8.64627e-07     -56.9728 
          50      27.1615 -5.45386e-05 -9.14278e-07     -56.9723 
          50      27.3216 -5.44781e-05 -9.58363e-07     -56.9718 
          50      27.4821 -5.44207e-05 -9.95065e-07     -56.9712 
          50       27.643 -5.43712e-05 -1.02314e-06     -56.9707 
          50      27.8044  -5.4334e-05 -1.04203e-06     -56.9702 
          50      27.9663 -5.43132e-05 -1.05175e-06     -56.9697 
          50      28.1287 -5.43128e-05 -1.05306e-06     -56.9691 
          50      28.2914 -5.43361e-05 -1.04738e-06     -56.9686 
          50      28.4548 -5.43862e-05 -1.03677e-06      -56.968 
          50      28.6185 -5.44651e-05 -1.02391e-06     -56.9675 
          50      28.7828 -5.45747e-05   -1.012e-06     -56.9669 
          50      28.9475 -5.47162e-05 -1.00463e-06     -56.9664 
          50      29.1126 -5.48896e-05 -1.00564e-06     -56.9658 
          50      29.2784 -5.49885e-05  -9.1552e-07     -56.9653 
          50      29.4444 -5.49822e-05 -8.40721e-07     -56.9647 
          50       29.611 -5.48396e-05 -8.74375e-07     -56.9641 
          50       29.778 -5.44836e-05 -1.03994e-06     -56.9636 
          50      29.9456 -5.42652e-05 -1.23725e-06      -56.963 
          50      30.1137 -5.41256e-05  -1.4268e-06     -56.9624 
          50      30.2821 -5.40618e-05 -1.39649e-06     -56.9618 
          50      30.4511  -5.4067e-05 -1.13093e-06     -56.9612 
          50      30.6204 -5.40851e-05 -9.60628e-07     -56.9606 
          50      30.7903 -5.41097e-05 -8.59216e-07       -56.96 
          50      30.9606 -5.41367e-05 -8.05724e-07     -56.9594 
          50      31.1315 -5.41642e-05 -7.83329e-07     -56.9588 
          50      31.3028 -5.41919e-05 -7.79242e-07     -56.9582 
          50      31.4745 -5.42202e-05 -7.84013e-07     -56.9576 
          50      31.6468 -5.42502e-05 -7.91119e-07      -56.957 
          50      31.8194 -5.42833e-05 -7.96472e-07     -56.9563 
          50      31.9926 -5.43205e-05 -7.97999e-07     -56.9557 
          50      32.1662 -5.43625e-05   -7.952e-07     -56.9551 
          50      32.3404 -5.44095e-05 -7.88759e-07     -56.9544 
          50      32.5149 -5.44607e-05 -7.80192e-07     -56.9538 
          50        32.69 -5.45145e-05  -7.7147e-07     -56.9531 
          50      32.8655 -5.45685e-05 -7.64765e-07     -56.9525 
          50      33.0414 -5.46197e-05 -7.62142e-07     -56.9518 
          50       33.218 -5.46643e-05 -7.65328e-07     -56.9512 
          50      33.3948 -5.46982e-05 -7.75522e-07     -56.9505 
          50      33.5723 -5.47176e-05 -7.93266e-07     -56.9498 
          50        33.75 -5.47189e-05 -8.18263e-07     -56.9492 
          50      33.9284 -5.46997e-05 -8.49437e-07     -56.9485 
          50      34.1073 -5.46594e-05 -8.84784e-07     -56.9478 
          50      34.2865 -5.45996e-05 -9.21469e-07     -56.9471 
          50      34.4663 -5.45257e-05 -9.56016e-07     -56.9464 
          50      34.6465 -5.44472e-05 -9.84268e-07     -56.9458 
          50      34.8272 -5.43794e-05 -1.00181e-06     -56.9451 
          50      35.0083 -5.43444e-05 -1.00409e-06     -56.9444 
          50        35.19 -5.43726e-05 -9.86858e-07     -56.9436 
          50      35.3721 -5.45044e-05 -9.46542e-07     -56.9429 
          50      35.5546 -5.44293e-05 -1.04754e-06     -56.9422 
          50      35.7377 -5.41362e-05 -1.17402e-06     -56.9415 
          50      35.9211 -5.39691e-05 -1.16455e-06     -56.9408 
          50      36.1052 -5.38884e-05 -1.08041e-06     -56.9401 
          50      36.2895 -5.38621e-05 -9.69311e-07     -56.9393 
          50      36.4745 -5.38651e-05 -8.66138e-07     -56.9386 
          50      36.6598 -5.38782e-05 -7.94801e-07     -56.9378 
          50      36.8457 -5.38874e-05 -7.68919e-07     -56.9371 
          50      37.0321 -5.38835e-05 -7.93591e-07     -56.9363 
          50      37.2188 -5.38612e-05  -8.6643e-07     -56.9356 
          50      37.4062 -5.38187e-05 -9.79353e-07     -56.9348 
          50      37.5938 -5.37571e-05 -1.11959e-06     -56.9341 
          50      37.7821   -5.368e-05 -1.27191e-06     -56.9333 
          50      37.9707 -5.35928e-05 -1.41938e-06     -56.9325 
          50      38.1599 -5.35025e-05 -1.54595e-06     -56.9318 
          50      38.3496 -5.34173e-05 -1.63733e-06      -56.931 
          50      38.5396 -5.33464e-05 -1.68325e-06     -56.9302 
          50      38.7302 -5.32994e-05 -1.67933e-06     -56.9294 
          50      38.9211 -5.32867e-05 -1.62874e-06     -56.9286 
          50      39.1127 -5.33189e-05 -1.54425e-06     -56.9278 
          50      39.3046 -5.34069e-05 -1.45046e-06      -56.927 
          50      39.4971 -5.35624e-05 -1.38547e-06     -56.9262 
          50      39.6899 -5.37968e-05  -1.4035e-06     -56.9254 
          50      39.8833   -5.373e-05 -1.54672e-06     -56.9246 
          50      40.0772 -5.35584e-05 -1.70219e-06     -56.9237 
          50      40.2714 -5.34089e-05 -1.85597e-06     -56.9229 
          50      40.4663 -5.32967e-05 -2.00636e-06     -56.9221 
          50      40.6615 -5.32331e-05 -2.15008e-06     -56.9213 
          50      40.8573 -5.32239e-05 -2.28331e-06     -56.9204 
          50      41.0534 -5.32693e-05 -2.40104e-06     -56.9196 
          50      41.2501 -5.33631e-05 -2.49808e-06     -56.9187 
          50      41.4473 -5.34919e-05 -2.56874e-06     -56.9179 
          50      41.6448 -5.36345e-05  -2.6076e-06      -56.917 
          50      41.8429 -5.37613e-05 -2.61004e-06     -56.9162 
          50      42.0414 -5.38332e-05 -2.57258e-06     -56.9153 
          50      42.2405 -5.38011e-05 -2.49364e-06     -56.9144 
          50      42.4399 -5.39447e-05  -2.6214e-06     -56.9136 
          50      42.6399 -5.40679e-05 -2.84125e-06     -56.9127 
          50      42.8404 -5.40305e-05 -2.99407e-06     -56.9118 
          50      43.0412 -5.39061e-05 -3.08424e-06     -56.9109 
          50      43.2426 -5.37496e-05  -3.1202e-06       -56.91 
          50      43.4444 -5.36001e-05 -3.11277e-06     -56.9091 
          50      43.6467 -5.34823e-05 -3.07426e-06     -56.9082 
          50      43.8494 -5.34089e-05 -3.01725e-06     -56.9073 
          50      44.0527 -5.33821e-05 -2.95325e-06     -56.9064 
          50      44.2563 -5.33953e-05 -2.89197e-06     -56.9055 
          50      44.4606 -5.34355e-05 -2.83987e-06     -56.9046 
          50      44.6653  -5.3484e-05 -2.79949e-06     -56.9036 
          50      44.8704 -5.35186e-05 -2.76834e-06     -56.9027 
          50       45.076 -5.35148e-05 -2.73798e-06     -56.9018 
          50       45.282 -5.34472e-05 -2.69334e-06     -56.9008 
          50      45.4886 -5.35249e-05 -2.68781e-06     -56.8999 
          50      45.6955  -5.3638e-05 -2.70744e-06      -56.899 
          50       45.903 -5.37202e-05 -2.72622e-06      -56.898 
          50      46.1111  -5.3773e-05 -2.73697e-06      -56.897 
          50      46.3194  -5.3799e-05 -2.73457e-06     -56.8961 
          50      46.5283 -5.38015e-05  -2.7159e-06     -56.8951 
          50      46.7376 -5.37844e-05 -2.67981e-06     -56.8942 
          50      46.9475 -5.37522e-05 -2.62682e-06     -56.8932 
          50      47.1577 -5.37098e-05 -2.55925e-06     -56.8922 
          50      47.3685  -5.3662e-05 -2.48066e-06     -56.8912 
          50      47.5798 -5.36137e-05 -2.39594e-06     -56.8902 
          50      47.7914 -5.35696e-05 -2.31085e-06     -56.8892 
          50      48.0037 -5.35336e-05 -2.23153e-06     -56.8882 