Variables = x, y, u, v, p

Zone, I=800, F=POINT
         -10            0  4.43492e-19  6.78333e-24      161.289 
         -10     0.000234  2.19829e-05  3.41833e-10      161.289 
         -10     0.000939  8.29583e-05  1.35726e-09      161.289 
         -10     0.002113  0.000168402  3.00899e-09      161.289 
         -10     0.003759  0.000258943   5.2719e-09      161.289 
         -10     0.005872  0.000334929  8.15064e-09      161.289 
         -10     0.008457  0.000382724  1.17431e-08      161.289 
         -10      0.01151  0.000397811  1.62473e-08      161.289 
         -10     0.015036  0.000386228  2.20068e-08      161.289 
         -10     0.019031  0.000362058  2.94872e-08      161.289 
         -10     0.023493   0.00034201  3.92748e-08      161.289 
         -10     0.028429  0.000338386  5.20734e-08      161.289 
         -10     0.033831  0.000353273  6.86214e-08      161.289 
         -10     0.039706  0.000376803  8.97615e-08      161.289 
         -10     0.046047   0.00039216   1.1637e-07      161.289 
         -10     0.052863  0.000387658  1.49516e-07      161.289 
         -10      0.06015  0.000370867  1.90393e-07      161.289 
         -10       0.0679  0.000371413  2.40328e-07      161.289 
         -10     0.076126  0.000404696  3.00751e-07      161.289 
         -10     0.084816  0.000382225  3.72489e-07      161.289 
         -10     0.093982  0.000395109  4.57764e-07      161.289 
         -10     0.103611  0.000400923  5.57571e-07      161.289 
         -10     0.113718  0.000403186  6.73593e-07      161.289 
         -10     0.124286   0.00040439  8.07101e-07      161.289 
         -10     0.135333  0.000405916  9.59709e-07      161.289 
         -10      0.14685  0.000408102   1.1326e-06      161.289 
         -10     0.158827  0.000410527  1.32679e-06      161.289 
         -10     0.171284  0.000412449  1.54366e-06      161.289 
         -10     0.184201   0.00041332  1.78385e-06      161.289 
         -10     0.197599   0.00041322  2.04858e-06      161.289 
         -10     0.211455  0.000412966  2.33809e-06      161.289 
         -10     0.225792  0.000413527  2.65338e-06      161.289 
         -10       0.2406  0.000414246  2.99447e-06      161.289 
         -10     0.255865  0.000412536  3.36097e-06      161.289 
         -10     0.271613  0.000412135  3.75494e-06      161.289 
         -10     0.287818  0.000411355  4.17526e-06      161.289 
         -10     0.304506  0.000410309  4.62175e-06      161.289 
         -10      0.32165  0.000409094  5.09304e-06      161.289 
         -10     0.339278  0.000407783  5.58943e-06      161.289 
         -10     0.357377   0.00040643  6.11023e-06      161.289 
         -10      0.37593  0.000405073  6.65461e-06      161.289 
         -10     0.394968   0.00040373  7.22314e-06      161.289 
         -10     0.414461  0.000402415  7.81441e-06      161.289 
         -10      0.43444  0.000401132  8.42861e-06      161.289 
         -10     0.454872  0.000399888  9.06364e-06      161.289 
         -10     0.475791  0.000398692  9.71917e-06      161.289 
         -10     0.497163  0.000397563  1.03925e-05      161.289 
         -10     0.519021  0.000396522  1.10827e-05      161.289 
         -10      0.54135  0.000395589   1.1788e-05      161.289 
         -10     0.564131  0.000394771  1.25068e-05      161.289 
         -10       0.5874  0.000394027  1.32412e-05      161.289 
         -10     0.611121  0.000393254   1.3993e-05      161.289 
         -10      0.63533  0.000392586  1.47514e-05      161.289 
         -10      0.65999  0.000391971  1.55103e-05      161.289 
         -10     0.685139  0.000391372  1.62719e-05      161.289 
         -10     0.710759  0.000390758  1.70361e-05      161.289 
         -10     0.736828  0.000390103  1.78019e-05      161.289 
         -10     0.763387  0.000389381  1.85694e-05      161.289 
         -10     0.790396  0.000388575   1.9336e-05      161.289 
         -10     0.817896   0.00038767  2.01008e-05      161.288 
         -10     0.845843  0.000386656  2.08602e-05      161.288 
         -10     0.874283  0.000385526  2.16129e-05      161.288 
         -10      0.90317   0.00038428  2.23548e-05      161.288 
         -10     0.932551   0.00038292  2.30846e-05      161.288 
         -10     0.962401  0.000381452  2.37992e-05      161.288 
         -10     0.992697  0.000379888  2.44959e-05      161.288 
         -10      1.02349  0.000378236  2.51743e-05      161.288 
         -10      1.05472  0.000376514  2.58322e-05      161.288 
         -10      1.08645  0.000374734  2.64704e-05      161.288 
         -10      1.11863  0.000372916  2.70881e-05      161.288 
         -10       1.1513  0.000371074  2.76873e-05      161.288 
         -10      1.18444  0.000369224  2.82689e-05      161.288 
         -10      1.21802  0.000367383  2.88342e-05      161.288 
         -10      1.25211  0.000365561  2.93854e-05      161.288 
         -10      1.28663  0.000363772  2.99223e-05      161.288 
         -10      1.32165  0.000362024  3.04451e-05      161.288 
         -10      1.35712  0.000360328  3.09495e-05      161.288 
         -10      1.39308  0.000358689  3.14291e-05      161.288 
         -10      1.42951  0.000357116  3.18708e-05      161.288 
         -10      1.46638  0.000355623  3.22542e-05      161.288 
         -10      1.50375  0.000354223  3.25499e-05      161.288 
         -10      1.54156  0.000352581  3.29167e-05      161.288 
         -10      1.57987  0.000351118  3.32807e-05      161.288 
         -10      1.61863  0.000349853  3.36261e-05      161.288 
         -10      1.65788  0.000348772   3.3949e-05      161.288 
         -10      1.69757  0.000347861  3.42451e-05      161.288 
         -10      1.73776  0.000347105   3.4512e-05      161.288 
         -10      1.77842   0.00034649   3.4747e-05      161.288 
         -10      1.81952  0.000346003  3.49481e-05      161.288 
         -10      1.86113  0.000345629  3.51144e-05      161.288 
         -10      1.90316  0.000345353  3.52452e-05      161.288 
         -10      1.94571  0.000345163  3.53406e-05      161.288 
         -10      1.98869  0.000345043  3.54008e-05      161.288 
         -10      2.03217  0.000344983  3.54267e-05      161.288 
         -10      2.07612  0.000344967  3.54196e-05      161.288 
         -10      2.12051  0.000344986   3.5381e-05      161.287 
         -10       2.1654  0.000345026  3.53127e-05      161.287 
         -10      2.21073  0.000345077  3.52168e-05      161.287 
         -10      2.25656  0.000345129  3.50951e-05      161.287 
         -10      2.30283  0.000345173  3.49499e-05      161.287 
         -10       2.3496    0.0003452  3.47829e-05      161.287 
         -10      2.39685  0.000345203  3.45961e-05      161.287 
         -10      2.44452  0.000345176  3.43912e-05      161.287 
         -10      2.49271  0.000345112  3.41692e-05      161.287 
         -10      2.54132  0.000345008  3.39312e-05      161.287 
         -10      2.59044  0.000344861  3.36775e-05      161.287 
         -10         2.64  0.000344667  3.34082e-05      161.287 
         -10      2.69006  0.000344426  3.31224e-05      161.287 
         -10      2.74056  0.000344139  3.28194e-05      161.287 
         -10      2.79156  0.000343805   3.2497e-05      161.287 
         -10      2.84304  0.000343428  3.21533e-05      161.286 
         -10      2.89494  0.000343011   3.1786e-05      161.286 
         -10      2.94735  0.000342557  3.13914e-05      161.286 
         -10       3.0002  0.000342072   3.0967e-05      161.286 
         -10      3.05355   0.00034156  3.05089e-05      161.286 
         -10      3.10733   0.00034103  3.00146e-05      161.286 
         -10      3.16163  0.000340487   2.9481e-05      161.286 
         -10      3.21639  0.000339938  2.89067e-05      161.286 
         -10      3.27158  0.000339391  2.82917e-05      161.286 
         -10      3.32729  0.000338853  2.76365e-05      161.286 
         -10      3.38342  0.000338331  2.69458e-05      161.286 
         -10      3.44007   0.00033783  2.62254e-05      161.285 
         -10      3.49714  0.000337357  2.54873e-05      161.285 
         -10      3.55472  0.000336913  2.47459e-05      161.285 
         -10      3.61273  0.000336502  2.40238e-05      161.285 
         -10      3.67125  0.000336124  2.33486e-05      161.285 
         -10      3.73025  0.000335775   2.2758e-05      161.285 
         -10      3.78967  0.000335534  2.20407e-05      161.285 
         -10      3.84961  0.000335298  2.13377e-05      161.284 
         -10      3.90996  0.000335044  2.07251e-05      161.284 
         -10      3.97084  0.000334796  2.01569e-05      161.284 
         -10      4.03214  0.000334569  1.96022e-05      161.284 
         -10      4.09395  0.000334369  1.90371e-05      161.284 
         -10      4.15624  0.000334194  1.84449e-05      161.284 
         -10      4.21895  0.000334038  1.78119e-05      161.284 
         -10      4.28217  0.000333844  1.73197e-05      161.283 
         -10      4.34582  0.000333645  1.68652e-05      161.283 
         -10      4.40998  0.000333453  1.64101e-05      161.283 
         -10      4.47457  0.000333267  1.59683e-05      161.283 
         -10      4.53968  0.000333088  1.55479e-05      161.283 
         -10      4.60525  0.000332914  1.51532e-05      161.282 
         -10      4.67125  0.000332747  1.47833e-05      161.282 
         -10      4.73777  0.000332586  1.44323e-05      161.282 
         -10       4.8047  0.000332432  1.40923e-05      161.282 
         -10      4.87216  0.000332284  1.37536e-05      161.282 
         -10      4.94003  0.000332142  1.34094e-05      161.281 
         -10      5.00843  0.000332004   1.3058e-05      161.281 
         -10      5.07724  0.000331868  1.27096e-05      161.281 
         -10      5.14658  0.000331729  1.23905e-05      161.281 
         -10      5.21639  0.000331581  1.21524e-05       161.28 
         -10      5.28661  0.000331432    1.201e-05       161.28 
         -10      5.35736  0.000331296   1.1645e-05       161.28 
         -10      5.42852  0.000331089  1.13877e-05       161.28 
         -10      5.50021  0.000330855  1.11944e-05      161.279 
         -10      5.57231  0.000330622  1.10367e-05      161.279 
         -10      5.64493  0.000330406   1.0897e-05      161.279 
         -10      5.71803  0.000330216  1.07666e-05      161.278 
         -10      5.79154   0.00033005  1.06424e-05      161.278 
         -10      5.86558  0.000329902  1.05241e-05      161.278 
         -10      5.94003  0.000329762  1.04129e-05      161.278 
         -10      6.01501   0.00032962  1.03092e-05      161.277 
         -10       6.0904  0.000329466  1.02118e-05      161.277 
         -10      6.16632  0.000329291  1.01171e-05      161.277 
         -10      6.24271  0.000329092  1.00194e-05      161.276 
         -10       6.3195   0.00032887  9.91181e-06      161.276 
         -10      6.39683  0.000328629   9.7878e-06      161.275 
         -10      6.47457  0.000328382  9.64448e-06      161.275 
         -10      6.55284  0.000328146  9.48577e-06      161.275 
         -10      6.63152  0.000327943  9.32835e-06      161.274 
         -10      6.71073  0.000327799  9.20713e-06      161.274 
         -10      6.79034   0.00032774  9.18411e-06      161.273 
         -10      6.87049  0.000327792  9.35727e-06      161.273 
         -10      6.95111  0.000327822   9.5891e-06      161.273 
         -10      7.03214  0.000327511  9.17059e-06      161.272 
         -10       7.1137  0.000327145  9.06381e-06      161.272 
         -10      7.19566  0.000326887  9.09353e-06      161.271 
         -10      7.27816  0.000326757  8.64048e-06      161.271 
         -10      7.36106  0.000326678  8.32475e-06       161.27 
         -10      7.44451  0.000326615  8.14272e-06       161.27 
         -10      7.52842  0.000326548  8.07465e-06      161.269 
         -10      7.61273  0.000326469  8.09043e-06      161.269 
         -10      7.69758  0.000326379  8.15621e-06      161.268 
         -10      7.78283  0.000326281  8.23956e-06      161.268 
         -10      7.86862  0.000326183  8.31411e-06      161.267 
         -10      7.95481  0.000326091  8.36226e-06      161.266 
         -10      8.04155  0.000326008   8.3775e-06      161.266 
         -10      8.12868  0.000325935  8.36454e-06      161.265 
         -10      8.21635  0.000325865  8.33808e-06      161.265 
         -10      8.30449  0.000325789  8.31981e-06      161.264 
         -10      8.39303  0.000325693  8.33314e-06      161.263 
         -10      8.48211  0.000325558  8.39583e-06      161.263 
         -10      8.57159  0.000325368  8.50994e-06      161.262 
         -10      8.66161  0.000325107  8.64964e-06      161.261 
         -10      8.75203   0.00032477  8.74498e-06      161.261 
         -10      8.84299  0.000324363  8.66374e-06       161.26 
         -10      8.93443  0.000323965  8.60402e-06      161.259 
         -10      9.02626   0.00032375  8.77467e-06      161.258 
         -10      9.11863  0.000323654  8.88814e-06      161.258 
         -10      9.21139  0.000323648  9.08325e-06      161.257 
         -10      9.30471  0.000323699   9.4134e-06      161.256 
         -10      9.39841  0.000323716  9.78207e-06      161.255 
         -10      9.49267  0.000323483  9.87038e-06      161.254 
         -10      9.58739  0.000323476  1.00267e-05      161.254 
         -10      9.68251  0.000323649  1.04203e-05      161.253 
         -10      9.77817  0.000323713  1.07825e-05      161.252 
         -10      9.87422  0.000323701  1.11296e-05      161.251 
         -10      9.97083  0.000323636  1.14746e-05       161.25 
         -10      10.0678  0.000323538  1.18259e-05      161.249 
         -10      10.1654  0.000323421  1.21897e-05      161.248 
         -10      10.2633  0.000323297  1.25688e-05      161.247 
         -10      10.3618  0.000323174  1.29644e-05      161.246 
         -10      10.4607  0.000323061  1.33747e-05      161.245 
         -10      10.5601  0.000322964  1.37951e-05      161.244 
         -10        10.66  0.000322891  1.42194e-05      161.243 
         -10      10.7603  0.000322848  1.46365e-05      161.242 
         -10      10.8611  0.000322842   1.5032e-05      161.241 
         -10      10.9623  0.000322876  1.53847e-05       161.24 
         -10      11.0641  0.000322955  1.56673e-05      161.239 
         -10      11.1663  0.000323065  1.58451e-05      161.238 
         -10       11.269  0.000322842  1.61321e-05      161.236 
         -10      11.3721  0.000322706  1.65242e-05      161.235 
         -10      11.4757  0.000322617  1.69282e-05      161.234 
         -10      11.5798   0.00032254  1.72766e-05      161.233 
         -10      11.6844  0.000322452  1.75265e-05      161.232 
         -10      11.7894  0.000322341  1.76616e-05       161.23 
         -10       11.895  0.000322207  1.76921e-05      161.229 
         -10      12.0009  0.000322065  1.76566e-05      161.228 
         -10      12.1073  0.000321942  1.76222e-05      161.226 
         -10      12.2142  0.000321884  1.76861e-05      161.225 
         -10      12.3216  0.000321945  1.79768e-05      161.224 
         -10      12.4294  0.000322193  1.86544e-05      161.222 
         -10      12.5378  0.000322096  1.90496e-05      161.221 
         -10      12.6465  0.000321601  1.89496e-05      161.219 
         -10      12.7558  0.000321271  1.90842e-05      161.218 
         -10      12.8656  0.000321052  1.93695e-05      161.217 
         -10      12.9757  0.000320905  1.97326e-05      161.215 
         -10      13.0864  0.000320796  2.01154e-05      161.213 
         -10      13.1975  0.000320705   2.0473e-05      161.212 
         -10      13.3092  0.000320619  2.07774e-05       161.21 
         -10      13.4212  0.000320535  2.10145e-05      161.209 
         -10      13.5338   0.00032045  2.11852e-05      161.207 
         -10      13.6468   0.00032037  2.13023e-05      161.205 
         -10      13.7603  0.000320297  2.13875e-05      161.204 
         -10      13.8743  0.000320232  2.14683e-05      161.202 
         -10      13.9886   0.00032017  2.15715e-05        161.2 
         -10      14.1036  0.000320095  2.17181e-05      161.198 
         -10      14.2189  0.000319975  2.19143e-05      161.197 
         -10      14.3348  0.000319793  2.21295e-05      161.195 
         -10       14.451  0.000319676  2.22554e-05      161.193 
         -10      14.5678  0.000319564  2.23364e-05      161.191 
         -10      14.6851  0.000319449   2.2407e-05      161.189 
         -10      14.8028  0.000319323  2.24928e-05      161.187 
         -10       14.921  0.000319186  2.26111e-05      161.185 
         -10      15.0396  0.000319037  2.27724e-05      161.183 
         -10      15.1588   0.00031888  2.29812e-05      161.181 
         -10      15.2783  0.000318718  2.32368e-05      161.179 
         -10      15.3984  0.000318556  2.35353e-05      161.177 
         -10       15.519  0.000318398  2.38693e-05      161.175 
         -10        15.64  0.000318249  2.42289e-05      161.173 
         -10      15.7615  0.000318113  2.46044e-05      161.171 
         -10      15.8834  0.000317992   2.4984e-05      161.169 
         -10      16.0058  0.000317887  2.53579e-05      161.167 
         -10      16.1286    0.0003178  2.57156e-05      161.164 
         -10       16.252  0.000317728  2.60495e-05      161.162 
         -10      16.3759  0.000317668  2.63528e-05       161.16 
         -10      16.5002  0.000317618  2.66212e-05      161.157 
         -10       16.625  0.000317572  2.68534e-05      161.155 
         -10      16.7501  0.000317526  2.70497e-05      161.153 
         -10      16.8759  0.000317476  2.72136e-05       161.15 
         -10       17.002   0.00031742  2.73502e-05      161.148 
         -10      17.1287  0.000317358  2.74669e-05      161.145 
         -10      17.2557  0.000317293   2.7572e-05      161.143 
         -10      17.3834  0.000317234  2.76746e-05       161.14 
         -10      17.5115  0.000317197  2.77832e-05      161.138 
         -10      17.6399  0.000317206  2.79045e-05      161.135 
         -10       17.769  0.000317296  2.80426e-05      161.132 
         -10      17.8984  0.000317515  2.81965e-05       161.13 
         -10      18.0284  0.000317929  2.83592e-05      161.127 
         -10      18.1587  0.000317758  2.92372e-05      161.124 
         -10      18.2896  0.000317107  2.93084e-05      161.121 
         -10       18.421  0.000316275  2.87751e-05      161.119 
         -10      18.5528  0.000315611  2.93597e-05      161.116 
         -10      18.6851  0.000315114  2.99605e-05      161.113 
         -10      18.8178  0.000314754  3.05103e-05       161.11 
         -10      18.9511  0.000314507  3.09732e-05      161.107 
         -10      19.0847   0.00031435   3.1335e-05      161.104 
         -10      19.2189  0.000314262  3.16009e-05      161.101 
         -10      19.3535  0.000314224  3.17876e-05      161.098 
         -10      19.4886   0.00031422  3.19203e-05      161.095 
         -10      19.6242  0.000314234  3.20275e-05      161.092 
         -10      19.7602  0.000314254  3.21374e-05      161.089 
         -10      19.8968  0.000314268  3.22751e-05      161.085 
         -10      20.0337  0.000314266  3.24594e-05      161.082 
         -10      20.1712   0.00031424   3.2702e-05      161.079 
         -10      20.3091  0.000314185  3.30049e-05      161.076 
         -10      20.4475  0.000314094  3.33618e-05      161.072 
         -10      20.5864  0.000313967  3.37574e-05      161.069 
         -10      20.7257  0.000313803  3.41691e-05      161.066 
         -10      20.8655  0.000313604  3.45709e-05      161.062 
         -10      21.0058  0.000313375  3.49345e-05      161.059 
         -10      21.1465  0.000313124  3.52367e-05      161.055 
         -10      21.2877  0.000312863   3.5463e-05      161.052 
         -10      21.4294  0.000312607  3.56166e-05      161.048 
         -10      21.5716  0.000312375  3.57256e-05      161.044 
         -10      21.7142  0.000312194  3.58539e-05      161.041 
         -10      21.8573  0.000312093  3.61124e-05      161.037 
         -10      22.0008  0.000312109  3.66713e-05      161.033 
         -10      22.1449  0.000312287  3.77773e-05       161.03 
         -10      22.2893  0.000312035  3.73564e-05      161.026 
         -10      22.4344  0.000311764   3.7161e-05      161.022 
         -10      22.5797  0.000311508   3.7322e-05      161.018 
         -10      22.7257  0.000311239  3.76791e-05      161.014 
         -10      22.8721  0.000310951  3.81063e-05       161.01 
         -10      23.0189  0.000310655   3.8511e-05      161.006 
         -10      23.1663   0.00031037   3.8835e-05      161.002 
         -10       23.314   0.00031012  3.90528e-05      160.998 
         -10      23.4623  0.000309925  3.91746e-05      160.994 
         -10       23.611  0.000309794  3.92466e-05       160.99 
         -10      23.7602  0.000309716  3.93545e-05      160.986 
         -10        23.91  0.000309651  3.96262e-05      160.981 
         -10        24.06  0.000309489  4.01058e-05      160.977 
         -10      24.2107  0.000309172  4.03055e-05      160.973 
         -10      24.3617  0.000308862  4.04688e-05      160.968 
         -10      24.5133  0.000308573  4.06043e-05      160.964 
         -10      24.6653  0.000308315  4.07242e-05       160.96 
         -10      24.8178  0.000308088  4.08439e-05      160.955 
         -10      24.9708  0.000307891  4.09794e-05      160.951 
         -10      25.1242  0.000307716   4.1146e-05      160.946 
         -10      25.2781  0.000307552  4.13572e-05      160.942 
         -10      25.4324   0.00030739   4.1622e-05      160.937 
         -10      25.5873  0.000307216  4.19447e-05      160.932 
         -10      25.7426  0.000307023  4.23214e-05      160.927 
         -10      25.8984  0.000306805  4.27409e-05      160.923 
         -10      26.0546  0.000306564  4.31803e-05      160.918 
         -10      26.2114   0.00030631  4.36065e-05      160.913 
         -10      26.3686  0.000306065  4.39719e-05      160.908 
         -10      26.5262  0.000305867  4.42147e-05      160.903 
         -10      26.6844  0.000305768  4.42572e-05      160.898 
         -10      26.8429  0.000305846  4.40042e-05      160.893 
         -10       27.002  0.000306196  4.33547e-05      160.888 
         -10      27.1615  0.000305963  4.40553e-05      160.883 
         -10      27.3216  0.000305655  4.45978e-05      160.878 
         -10      27.4821  0.000305302  4.50391e-05      160.873 
         -10       27.643   0.00030493  4.54212e-05      160.868 
         -10      27.8044  0.000304563  4.57746e-05      160.862 
         -10      27.9663   0.00030422  4.61181e-05      160.857 
         -10      28.1287  0.000303917  4.64631e-05      160.852 
         -10      28.2914  0.000303666  4.68134e-05      160.847 
         -10      28.4548   0.00030347   4.7169e-05      160.841 
         -10      28.6185   0.00030333  4.75259e-05      160.836 
         -10      28.7828  0.000303239  4.78795e-05       160.83 
         -10      28.9475  0.000303182  4.82239e-05      160.825 
         -10      29.1126  0.000303139   4.8554e-05      160.819 
         -10      29.2784  0.000303084  4.88672e-05      160.813 
         -10      29.4444  0.000302981   4.9162e-05      160.808 
         -10       29.611  0.000302792  4.94408e-05      160.802 
         -10       29.778  0.000302467  4.97082e-05      160.796 
         -10      29.9456  0.000301955  4.99724e-05       160.79 
         -10      30.1137  0.000301196  5.02437e-05      160.785 
         -10      30.2821  0.000300128  5.05345e-05      160.779 
         -10      30.4511   0.00030065  5.08142e-05      160.773 
         -10      30.6204  0.000300928  5.10757e-05      160.767 
         -10      30.7903  0.000300978  5.13251e-05      160.761 
         -10      30.9606  0.000300858  5.15643e-05      160.755 
         -10      31.1315  0.000300616  5.17939e-05      160.749 
         -10      31.3028  0.000300294  5.20125e-05      160.742 
         -10      31.4745  0.000299928  5.22185e-05      160.736 
         -10      31.6468  0.000299544  5.24122e-05       160.73 
         -10      31.8194  0.000299162  5.25966e-05      160.724 
         -10      31.9926  0.000298794  5.27812e-05      160.717 
         -10      32.1662  0.000298448  5.29834e-05      160.711 
         -10      32.3404  0.000298126  5.32327e-05      160.705 
         -10      32.5149  0.000297828  5.35736e-05      160.698 
         -10        32.69  0.000297551   5.4071e-05      160.692 
         -10      32.8655  0.000297296  5.48132e-05      160.685 
         -10      33.0414  0.000297066  5.59174e-05      160.679 
         -10       33.218  0.000297063  5.57767e-05      160.672 
         -10      33.3948  0.000296967  5.54278e-05      160.665 
         -10      33.5723  0.000296711  5.55222e-05      160.659 
         -10        33.75  0.000296357  5.58927e-05      160.652 
         -10      33.9284  0.000295953  5.64088e-05      160.645 
         -10      34.1073  0.000295537   5.6971e-05      160.638 
         -10      34.2865  0.000295137  5.75084e-05      160.631 
         -10      34.4663   0.00029477  5.79762e-05      160.624 
         -10      34.6465  0.000294446  5.83493e-05      160.618 
         -10      34.8272  0.000294167  5.86217e-05      160.611 
         -10      35.0083  0.000293927  5.88011e-05      160.603 
         -10        35.19  0.000293718  5.89073e-05      160.596 
         -10      35.3721  0.000293525   5.8968e-05      160.589 
         -10      35.5546  0.000293331  5.90165e-05      160.582 
         -10      35.7377  0.000293118  5.90895e-05      160.575 
         -10      35.9211  0.000292866  5.92233e-05      160.568 
         -10      36.1052  0.000292555  5.94532e-05       160.56 
         -10      36.2895   0.00029217  5.98096e-05      160.553 
         -10      36.4745  0.000291696  6.03184e-05      160.545 
         -10      36.6598  0.000291124  6.09965e-05      160.538 
         -10      36.8457  0.000290537  6.16019e-05      160.531 
         -10      37.0321  0.000290188  6.15632e-05      160.523 
         -10      37.2188  0.000289896  6.15175e-05      160.515 
         -10      37.4062  0.000289656  6.14752e-05      160.508 
         -10      37.5938  0.000289462  6.14454e-05        160.5 
         -10      37.7821  0.000289307  6.14357e-05      160.492 
         -10      37.9707  0.000289182  6.14525e-05      160.485 
         -10      38.1599  0.000289075  6.15009e-05      160.477 
         -10      38.3496  0.000288972  6.15848e-05      160.469 
         -10      38.5396  0.000288859  6.17068e-05      160.461 
         -10      38.7302  0.000288715   6.1869e-05      160.453 
         -10      38.9211  0.000288522  6.20719e-05      160.445 
         -10      39.1127  0.000288255  6.23155e-05      160.437 
         -10      39.3046  0.000287888  6.25984e-05      160.429 
         -10      39.4971  0.000287393  6.29191e-05      160.421 
         -10      39.6899  0.000286737  6.32743e-05      160.413 
         -10      39.8833  0.000285884  6.36613e-05      160.405 
         -10      40.0772  0.000284945  6.40389e-05      160.397 
         -10      40.2714  0.000285006  6.41535e-05      160.388 
         -10      40.4663  0.000284974  6.42979e-05       160.38 
         -10      40.6615  0.000284862  6.44698e-05      160.372 
         -10      40.8573  0.000284681  6.46651e-05      160.363 
         -10      41.0534  0.000284445  6.48776e-05      160.355 
         -10      41.2501  0.000284165  6.51006e-05      160.346 
         -10      41.4473  0.000283851  6.53263e-05      160.338 
         -10      41.6448  0.000283513  6.55472e-05      160.329 
         -10      41.8429  0.000283161  6.57564e-05      160.321 
         -10      42.0414  0.000282801  6.59474e-05      160.312 
         -10      42.2405  0.000282439  6.61153e-05      160.303 
         -10      42.4399   0.00028208  6.62563e-05      160.295 
         -10      42.6399  0.000281727  6.63684e-05      160.286 
         -10      42.8404  0.000281383  6.64514e-05      160.277 
         -10      43.0412  0.000281047  6.65067e-05      160.268 
         -10      43.2426   0.00028072   6.6538e-05      160.259 
         -10      43.4444    0.0002804  6.65502e-05       160.25 
         -10      43.6467  0.000280083  6.65502e-05      160.242 
         -10      43.8494  0.000279767  6.65462e-05      160.233 
         -10      44.0527  0.000279447  6.65471e-05      160.223 
         -10      44.2563  0.000279119  6.65627e-05      160.214 
         -10      44.4606   0.00027878  6.66025e-05      160.205 
         -10      44.6653  0.000278424  6.66756e-05      160.196 
         -10      44.8704  0.000278051  6.67895e-05      160.187 
         -10       45.076  0.000277657  6.69498e-05      160.178 
         -10       45.282  0.000277244  6.71583e-05      160.168 
         -10      45.4886  0.000276815  6.74132e-05      160.159 
         -10      45.6955  0.000276375  6.77064e-05       160.15 
         -10       45.903  0.000275935  6.80237e-05       160.14 
         -10      46.1111   0.00027551  6.83417e-05      160.131 
         -10      46.3194  0.000275119  6.86273e-05      160.121 
         -10      46.5283  0.000274788  6.88358e-05      160.112 
         -10      46.7376  0.000274552  6.89084e-05      160.102 
         -10      46.9475  0.000274452  6.87706e-05      160.093 
         -10      47.1577  0.000274539  6.83301e-05      160.083 
         -10      47.3685  0.000274778  6.76284e-05      160.073 
         -10      47.5798  0.000274217  6.81465e-05      160.064 
         -10      47.7914  0.000273695   6.8584e-05      160.054 
         -10      48.0037  0.000273211  6.89516e-05      160.044 