Variables = x, y, u, v, p

Zone, I=800, F=POINT
         600            0           -0           -0     -3.87422 
         600     0.000234  2.18727e-06  2.37062e-11     -3.87422 
         600     0.000939  8.20843e-06  3.80923e-10     -3.87422 
         600     0.002113  1.64876e-05  1.92374e-09     -3.87422 
         600     0.003759  2.48992e-05  6.06621e-09     -3.87422 
         600     0.005872  3.12563e-05  1.47344e-08     -3.87422 
         600     0.008457  3.39643e-05  3.03899e-08     -3.87422 
         600      0.01151  3.23778e-05  5.59156e-08     -3.87422 
         600     0.015036  2.69618e-05  9.46827e-08     -3.87422 
         600     0.019031  1.90802e-05  1.50346e-07     -3.87422 
         600     0.023493  1.04482e-05  2.26851e-07     -3.87422 
         600     0.028429  2.39838e-06  3.28554e-07     -3.87422 
         600     0.033831 -4.70933e-06  4.59684e-07     -3.87422 
         600     0.039706 -1.17743e-05  6.24887e-07     -3.87422 
         600     0.046047  -2.0485e-05  8.28454e-07     -3.87422 
         600     0.052863 -3.22128e-05   1.0751e-06     -3.87422 
         600      0.06015 -4.65239e-05  1.36898e-06     -3.87422 
         600       0.0679 -6.07055e-05  1.71378e-06     -3.87422 
         600     0.076126 -7.29091e-05  2.11379e-06     -3.87422 
         600     0.084816 -9.06489e-05  2.57177e-06     -3.87422 
         600     0.093982 -0.000107335  3.09126e-06     -3.87422 
         600     0.103611 -0.000125434  3.67389e-06     -3.87422 
         600     0.113718 -0.000144703  4.32242e-06     -3.87422 
         600     0.124286 -0.000164869    5.037e-06     -3.87422 
         600     0.135333 -0.000185773  5.81945e-06     -3.87422 
         600      0.14685 -0.000207239   6.6692e-06     -3.87422 
         600     0.158827 -0.000229124   7.5848e-06     -3.87422 
         600     0.171284 -0.000251347  8.56652e-06     -3.87422 
         600     0.184201 -0.000273742  9.61094e-06     -3.87422 
         600     0.197599 -0.000296182  1.07173e-05     -3.87422 
         600     0.211455 -0.000318427  1.18809e-05     -3.87422 
         600     0.225792 -0.000340306  1.31002e-05     -3.87422 
         600       0.2406 -0.000361675  1.43706e-05     -3.87422 
         600     0.255865 -0.000382499  1.56868e-05     -3.87422 
         600     0.271613  -0.00040251  1.70469e-05     -3.87422 
         600     0.287818 -0.000421629  1.84441e-05     -3.87422 
         600     0.304506 -0.000439777  1.98762e-05     -3.87422 
         600      0.32165 -0.000456836  2.13365e-05     -3.87422 
         600     0.339278 -0.000472757   2.2823e-05     -3.87422 
         600     0.357377  -0.00048747  2.43303e-05     -3.87422 
         600      0.37593 -0.000500923  2.58532e-05     -3.87422 
         600     0.394968 -0.000513115  2.73906e-05     -3.87422 
         600     0.414461  -0.00052402  2.89368e-05     -3.87422 
         600      0.43444 -0.000533664  3.04913e-05     -3.87422 
         600     0.454872 -0.000542052  3.20492e-05     -3.87422 
         600     0.475791 -0.000549227  3.36112e-05     -3.87422 
         600     0.497163 -0.000555218   3.5173e-05     -3.87422 
         600     0.519021 -0.000560078  3.67361e-05     -3.87422 
         600      0.54135  -0.00056385  3.82986e-05     -3.87422 
         600     0.564131 -0.000566585  3.98592e-05     -3.87422 
         600       0.5874 -0.000568341  4.14203e-05     -3.87422 
         600     0.611121 -0.000569175  4.29804e-05     -3.87422 
         600      0.63533 -0.000569121  4.45435e-05     -3.87422 
         600      0.65999 -0.000568263  4.61054e-05     -3.87422 
         600     0.685139 -0.000566635  4.76709e-05     -3.87422 
         600     0.710759  -0.00056427   4.9241e-05     -3.87422 
         600     0.736828 -0.000561201  5.08168e-05     -3.87422 
         600     0.763387 -0.000557452  5.24025e-05     -3.87422 
         600     0.790396 -0.000553058  5.39976e-05     -3.87422 
         600     0.817896 -0.000548036  5.56059e-05     -3.87422 
         600     0.845843  -0.00054242  5.72263e-05     -3.87422 
         600     0.874283 -0.000536223  5.88624e-05     -3.87422 
         600      0.90317 -0.000529476  6.05123e-05     -3.87422 
         600     0.932551 -0.000522192  6.21794e-05     -3.87422 
         600     0.962401 -0.000514397  6.38624e-05     -3.87422 
         600     0.992697 -0.000506122    6.556e-05     -3.87422 
         600      1.02349 -0.000497378  6.72749e-05     -3.87422 
         600      1.05472 -0.000488206  6.90036e-05     -3.87422 
         600      1.08645 -0.000478621  7.07484e-05     -3.87422 
         600      1.11863 -0.000468673  7.25056e-05     -3.87422 
         600       1.1513 -0.000458382  7.42766e-05     -3.87422 
         600      1.18444 -0.000447797  7.60587e-05     -3.87422 
         600      1.21802 -0.000436972  7.78487e-05     -3.87422 
         600      1.25211 -0.000425938  7.96475e-05     -3.87422 
         600      1.28663 -0.000414763  8.14496e-05     -3.87422 
         600      1.32165 -0.000403479  8.32552e-05     -3.87422 
         600      1.35712 -0.000392152  8.50578e-05     -3.87422 
         600      1.39308 -0.000380805   8.6856e-05     -3.87422 
         600      1.42951 -0.000369479  8.86432e-05     -3.87422 
         600      1.46638 -0.000358199  9.04116e-05     -3.87422 
         600      1.50375 -0.000346936  9.21562e-05     -3.87422 
         600      1.54156 -0.000335649  9.39136e-05     -3.87422 
         600      1.57987 -0.000324527  9.56496e-05     -3.87422 
         600      1.61863 -0.000313564  9.73572e-05     -3.87422 
         600      1.65788 -0.000302708  9.90379e-05     -3.87422 
         600      1.69757 -0.000291948  0.000100688     -3.87422 
         600      1.73776 -0.000281236  0.000102308     -3.87422 
         600      1.77842 -0.000270554  0.000103896     -3.87422 
         600      1.81952 -0.000259888  0.000105449     -3.87422 
         600      1.86113 -0.000249198  0.000106969     -3.87422 
         600      1.90316 -0.000238483  0.000108451     -3.87422 
         600      1.94571 -0.000227709  0.000109895     -3.87422 
         600      1.98869 -0.000216881  0.000111299     -3.87422 
         600      2.03217  -0.00020597  0.000112663     -3.87422 
         600      2.07612 -0.000194978  0.000113984     -3.87422 
         600      2.12051 -0.000183908   0.00011526     -3.87422 
         600       2.1654 -0.000172742   0.00011649     -3.87422 
         600      2.21073 -0.000161498  0.000117671     -3.87422 
         600      2.25656 -0.000150161  0.000118803     -3.87422 
         600      2.30283 -0.000138757  0.000119884     -3.87421 
         600       2.3496 -0.000127275  0.000120912     -3.87421 
         600      2.39685 -0.000115736  0.000121887     -3.87421 
         600      2.44452 -0.000104163  0.000122804     -3.87421 
         600      2.49271 -9.25527e-05  0.000123665     -3.87421 
         600      2.54132 -8.09398e-05  0.000124466     -3.87421 
         600      2.59044 -6.93248e-05  0.000125208     -3.87421 
         600         2.64  -5.7746e-05  0.000125889     -3.87421 
         600      2.69006 -4.62062e-05  0.000126507     -3.87421 
         600      2.74056 -3.47453e-05  0.000127062     -3.87421 
         600      2.79156 -2.33675e-05  0.000127554     -3.87421 
         600      2.84304 -1.21044e-05   0.00012798     -3.87421 
         600      2.89494  -9.8758e-07  0.000128341     -3.87421 
         600      2.94735  9.97841e-06  0.000128637      -3.8742 
         600       3.0002  2.07539e-05  0.000128866      -3.8742 
         600      3.05355  3.13342e-05   0.00012903      -3.8742 
         600      3.10733   4.1682e-05  0.000129128      -3.8742 
         600      3.16163  5.17937e-05  0.000129161      -3.8742 
         600      3.21639  6.16415e-05  0.000129128      -3.8742 
         600      3.27158  7.11994e-05   0.00012903      -3.8742 
         600      3.32729  8.04648e-05  0.000128869      -3.8742 
         600      3.38342  8.94057e-05  0.000128644      -3.8742 
         600      3.44007  9.80187e-05  0.000128357     -3.87419 
         600      3.49714  0.000106273  0.000128008     -3.87419 
         600      3.55472  0.000114162  0.000127598     -3.87419 
         600      3.61273  0.000121654  0.000127128     -3.87419 
         600      3.67125  0.000128738  0.000126598     -3.87419 
         600      3.73025  0.000135381  0.000126009     -3.87419 
         600      3.78967  0.000141755  0.000125407     -3.87419 
         600      3.84961  0.000147801  0.000124757     -3.87419 
         600      3.90996   0.00015342  0.000124044     -3.87418 
         600      3.97084   0.00015863  0.000123273     -3.87418 
         600      4.03214  0.000163432  0.000122453     -3.87418 
         600      4.09395  0.000167843  0.000121588     -3.87418 
         600      4.15624  0.000171867  0.000120685     -3.87418 
         600      4.21895  0.000175513   0.00011975     -3.87418 
         600      4.28217  0.000178797  0.000118783     -3.87418 
         600      4.34582  0.000181723  0.000117792     -3.87418 
         600      4.40998   0.00018431  0.000116776     -3.87417 
         600      4.47457  0.000186564   0.00011574     -3.87417 
         600      4.53968  0.000188502  0.000114683     -3.87417 
         600      4.60525  0.000190134  0.000113608     -3.87417 
         600      4.67125  0.000191472  0.000112516     -3.87417 
         600      4.73777  0.000192532  0.000111405     -3.87417 
         600       4.8047  0.000193327  0.000110275     -3.87417 
         600      4.87216  0.000193872  0.000109126     -3.87416 
         600      4.94003  0.000194181  0.000107957     -3.87416 
         600      5.00843  0.000194267  0.000106763     -3.87416 
         600      5.07724  0.000194107  0.000105545     -3.87416 
         600      5.14658  0.000193749  0.000104325     -3.87416 
         600      5.21639  0.000193207  0.000103103     -3.87416 
         600      5.28661  0.000192495   0.00010188     -3.87416 
         600      5.35736  0.000191625  0.000100653     -3.87416 
         600      5.42852  0.000190612   9.9424e-05     -3.87415 
         600      5.50021  0.000189467  9.81903e-05     -3.87415 
         600      5.57231  0.000188205  9.69538e-05     -3.87415 
         600      5.64493  0.000186835  9.57123e-05     -3.87415 
         600      5.71803   0.00018537  9.44669e-05     -3.87415 
         600      5.79154  0.000183822  9.32188e-05     -3.87415 
         600      5.86558  0.000182199  9.19664e-05     -3.87415 
         600      5.94003  0.000180512  9.07125e-05     -3.87415 
         600      6.01501  0.000178769  8.94558e-05     -3.87414 
         600       6.0904   0.00017698  8.81997e-05     -3.87414 
         600      6.16632  0.000175151  8.69434e-05     -3.87414 
         600      6.24271   0.00017329  8.56895e-05     -3.87414 
         600       6.3195  0.000171407  8.44409e-05     -3.87414 
         600      6.39683  0.000169504  8.31972e-05     -3.87414 
         600      6.47457  0.000167592  8.19627e-05     -3.87414 
         600      6.55284  0.000165673  8.07373e-05     -3.87414 
         600      6.63152  0.000163757   7.9525e-05     -3.87413 
         600      6.71073  0.000161849  7.83257e-05     -3.87413 
         600      6.79034  0.000159957   7.7143e-05     -3.87413 
         600      6.87049  0.000158087  7.59762e-05     -3.87413 
         600      6.95111   0.00015625  7.48271e-05     -3.87413 
         600      7.03214  0.000154412  7.36782e-05     -3.87413 
         600       7.1137  0.000152508  7.24993e-05     -3.87413 
         600      7.19566  0.000150659  7.13417e-05     -3.87413 
         600      7.27816  0.000148855  7.02022e-05     -3.87413 
         600      7.36106   0.00014709  6.90814e-05     -3.87412 
         600      7.44451  0.000145356  6.79763e-05     -3.87412 
         600      7.52842  0.000143648  6.68864e-05     -3.87412 
         600      7.61273  0.000141962  6.58114e-05     -3.87412 
         600      7.69758   0.00014029  6.47484e-05     -3.87412 
         600      7.78283   0.00013863  6.36979e-05     -3.87412 
         600      7.86862  0.000136979  6.26571e-05     -3.87412 
         600      7.95481  0.000135335  6.16266e-05     -3.87412 
         600      8.04155  0.000133695  6.06037e-05     -3.87412 
         600      8.12868  0.000132062  5.95893e-05     -3.87411 
         600      8.21635  0.000130434  5.85809e-05     -3.87411 
         600      8.30449  0.000128815  5.75786e-05     -3.87411 
         600      8.39303  0.000127208  5.65827e-05     -3.87411 
         600      8.48211  0.000125617  5.55911e-05     -3.87411 
         600      8.57159  0.000124047   5.4605e-05     -3.87411 
         600      8.66161  0.000122504  5.36227e-05     -3.87411 
         600      8.75203  0.000120997  5.26458e-05     -3.87411 
         600      8.84299  0.000119533  5.16728e-05     -3.87411 
         600      8.93443  0.000118066  5.07582e-05     -3.87411 
         600      9.02626  0.000116624  4.98582e-05     -3.87411 
         600      9.11863  0.000115216  4.89574e-05      -3.8741 
         600      9.21139  0.000113842  4.80624e-05      -3.8741 
         600      9.30471  0.000112495  4.71754e-05      -3.8741 
         600      9.39841  0.000111173  4.63007e-05      -3.8741 
         600      9.49267  0.000109871  4.54384e-05      -3.8741 
         600      9.58739  0.000108587    4.459e-05      -3.8741 
         600      9.68251  0.000107319   4.3756e-05      -3.8741 
         600      9.77817  0.000106063  4.29344e-05      -3.8741 
         600      9.87422  0.000104818  4.21253e-05      -3.8741 
         600      9.97083  0.000103582  4.13259e-05      -3.8741 
         600      10.0678  0.000102356  4.05358e-05      -3.8741 
         600      10.1654  0.000101138  3.97527e-05      -3.8741 
         600      10.2633  9.99299e-05  3.89769e-05     -3.87409 
         600      10.3618  9.87327e-05  3.82073e-05     -3.87409 
         600      10.4607  9.75501e-05  3.74458e-05     -3.87409 
         600      10.5601  9.63871e-05  3.66962e-05     -3.87409 
         600        10.66  9.52478e-05  3.59624e-05     -3.87409 
         600      10.7603  9.41415e-05  3.52533e-05     -3.87409 
         600      10.8611  9.30756e-05  3.45787e-05     -3.87409 
         600      10.9623  9.20633e-05  3.39544e-05     -3.87409 
         600      11.0641  9.09853e-05  3.31905e-05     -3.87409 
         600      11.1663  8.99342e-05  3.24497e-05     -3.87409 
         600       11.269  8.89268e-05  3.17606e-05     -3.87409 
         600      11.3721  8.79506e-05  3.11067e-05     -3.87409 
         600      11.4757  8.69986e-05   3.0477e-05     -3.87409 
         600      11.5798  8.60623e-05  2.98616e-05     -3.87409 
         600      11.6844  8.51379e-05  2.92551e-05     -3.87409 
         600      11.7894  8.42204e-05  2.86526e-05     -3.87408 
         600       11.895  8.33081e-05  2.80524e-05     -3.87408 
         600      12.0009  8.24005e-05  2.74544e-05     -3.87408 
         600      12.1073  8.14962e-05  2.68581e-05     -3.87408 
         600      12.2142  8.05973e-05  2.62659e-05     -3.87408 
         600      12.3216   7.9704e-05  2.56788e-05     -3.87408 
         600      12.4294  7.88198e-05  2.50999e-05     -3.87408 
         600      12.5378  7.79457e-05  2.45305e-05     -3.87408 
         600      12.6465   7.7086e-05  2.39735e-05     -3.87408 
         600      12.7558  7.62421e-05  2.34295e-05     -3.87408 
         600      12.8656  7.54175e-05     2.29e-05     -3.87408 
         600      12.9757  7.46156e-05  2.23858e-05     -3.87408 
         600      13.0864  7.38373e-05  2.18856e-05     -3.87408 
         600      13.1975  7.30859e-05  2.13992e-05     -3.87408 
         600      13.3092  7.23614e-05   2.0924e-05     -3.87408 
         600      13.4212  7.16657e-05  2.04586e-05     -3.87408 
         600      13.5338  7.09975e-05  1.99996e-05     -3.87408 
         600      13.6468  7.03564e-05  1.95447e-05     -3.87408 
         600      13.7603  6.97411e-05   1.9092e-05     -3.87407 
         600      13.8743  6.91477e-05  1.86391e-05     -3.87407 
         600      13.9886  6.85267e-05  1.81524e-05     -3.87407 
         600      14.1036  6.78532e-05  1.76315e-05     -3.87407 
         600      14.2189  6.71791e-05  1.71305e-05     -3.87407 
         600      14.3348     6.65e-05  1.66559e-05     -3.87407 
         600       14.451  6.58155e-05  1.62121e-05     -3.87407 
         600      14.5678  6.51247e-05  1.57982e-05     -3.87407 
         600      14.6851  6.44311e-05  1.54092e-05     -3.87407 
         600      14.8028  6.37413e-05  1.50343e-05     -3.87407 
         600       14.921  6.30642e-05  1.46554e-05     -3.87407 
         600      15.0396  6.24926e-05  1.42759e-05     -3.87407 
         600      15.1588  6.19984e-05  1.39118e-05     -3.87407 
         600      15.2783  6.15497e-05  1.35597e-05     -3.87407 
         600      15.3984   6.1125e-05  1.32162e-05     -3.87407 
         600       15.519  6.07092e-05  1.28794e-05     -3.87407 
         600        15.64  6.02921e-05  1.25482e-05     -3.87407 
         600      15.7615  5.98667e-05  1.22213e-05     -3.87407 
         600      15.8834  5.94306e-05  1.18989e-05     -3.87407 
         600      16.0058  5.89826e-05  1.15803e-05     -3.87407 
         600      16.1286  5.85253e-05  1.12666e-05     -3.87407 
         600       16.252  5.80611e-05  1.09575e-05     -3.87407 
         600      16.3759  5.75945e-05  1.06541e-05     -3.87407 
         600      16.5002  5.71304e-05  1.03571e-05     -3.87407 
         600       16.625  5.66726e-05  1.00666e-05     -3.87407 
         600      16.7501  5.62258e-05  9.78367e-06     -3.87406 
         600      16.8759  5.57926e-05  9.50814e-06     -3.87406 
         600       17.002   5.5376e-05  9.24063e-06     -3.87406 
         600      17.1287  5.49765e-05  8.98074e-06     -3.87406 
         600      17.2557  5.45943e-05  8.72867e-06     -3.87406 
         600      17.3834  5.42274e-05  8.48366e-06     -3.87406 
         600      17.5115  5.38735e-05  8.24536e-06     -3.87406 
         600      17.6399  5.35292e-05  8.01332e-06     -3.87406 
         600       17.769  5.31894e-05  7.78649e-06     -3.87406 
         600      17.8984  5.28504e-05  7.56457e-06     -3.87406 
         600      18.0284  5.25074e-05  7.34671e-06     -3.87406 
         600      18.1587  5.21579e-05  7.13302e-06     -3.87406 
         600      18.2896  5.18003e-05  6.92338e-06     -3.87406 
         600       18.421  5.14368e-05  6.71876e-06     -3.87406 
         600      18.5528  5.10739e-05  6.52096e-06     -3.87406 
         600      18.6851  5.07229e-05  6.33236e-06     -3.87406 
         600      18.8178  5.04033e-05   6.1573e-06     -3.87406 
         600      18.9511  5.01424e-05  6.00115e-06     -3.87406 
         600      19.0847  4.99797e-05  5.87178e-06     -3.87406 
         600      19.2189  4.95665e-05  5.72475e-06     -3.87406 
         600      19.3535  4.91875e-05  5.52825e-06     -3.87406 
         600      19.4886  4.88505e-05  5.29925e-06     -3.87406 
         600      19.6242  4.85517e-05  5.05547e-06     -3.87406 
         600      19.7602   4.8286e-05  4.81476e-06     -3.87406 
         600      19.8968  4.80462e-05  4.59403e-06     -3.87406 
         600      20.0337  4.78239e-05  4.41009e-06     -3.87406 
         600      20.1712  4.76073e-05  4.27772e-06     -3.87406 
         600      20.3091   4.7382e-05  4.21018e-06     -3.87406 
         600      20.4475  4.71348e-05  4.21237e-06     -3.87406 
         600      20.5864  4.70524e-05  4.05438e-06     -3.87406 
         600      20.7257  4.69429e-05  3.89134e-06     -3.87406 
         600      20.8655    4.681e-05  3.72622e-06     -3.87406 
         600      21.0058  4.66578e-05  3.56198e-06     -3.87406 
         600      21.1465  4.64895e-05  3.40054e-06     -3.87406 
         600      21.2877  4.63088e-05  3.24392e-06     -3.87406 
         600      21.4294  4.61187e-05  3.09314e-06     -3.87406 
         600      21.5716  4.59224e-05  2.94922e-06     -3.87406 
         600      21.7142  4.57227e-05  2.81277e-06     -3.87406 
         600      21.8573   4.5522e-05  2.68375e-06     -3.87405 
         600      22.0008  4.53229e-05  2.56218e-06     -3.87405 
         600      22.1449   4.5127e-05  2.44746e-06     -3.87405 
         600      22.2893  4.49365e-05  2.33907e-06     -3.87405 
         600      22.4344  4.47527e-05  2.23595e-06     -3.87405 
         600      22.5797  4.45769e-05  2.13718e-06     -3.87405 
         600      22.7257    4.441e-05   2.0414e-06     -3.87405 
         600      22.8721  4.42527e-05  1.94736e-06     -3.87405 
         600      23.0189  4.41054e-05  1.85376e-06     -3.87405 
         600      23.1663  4.39681e-05  1.75903e-06     -3.87405 
         600       23.314  4.38406e-05  1.66192e-06     -3.87405 
         600      23.4623  4.37224e-05   1.5609e-06     -3.87405 
         600       23.611  4.36128e-05  1.45489e-06     -3.87405 
         600      23.7602  4.35106e-05  1.34256e-06     -3.87405 
         600        23.91  4.34146e-05  1.22302e-06     -3.87405 
         600        24.06  4.33233e-05   1.0956e-06     -3.87405 
         600      24.2107  4.32348e-05  9.59587e-07     -3.87405 
         600      24.3617  4.31472e-05   8.1495e-07     -3.87405 
         600      24.5133  4.30581e-05  6.65518e-07     -3.87405 
         600      24.6653  4.29666e-05   5.6268e-07     -3.87405 
         600      24.8178  4.28751e-05  4.70757e-07     -3.87405 
         600      24.9708  4.27837e-05  3.89298e-07     -3.87405 
         600      25.1242  4.26922e-05  3.17434e-07     -3.87405 
         600      25.2781  4.26003e-05  2.53778e-07     -3.87405 
         600      25.4324  4.25076e-05   1.9686e-07     -3.87405 
         600      25.5873  4.24137e-05  1.44767e-07     -3.87405 
         600      25.7426  4.23183e-05  9.55818e-08     -3.87405 
         600      25.8984  4.22207e-05  4.71157e-08     -3.87405 
         600      26.0546  4.21207e-05 -2.68353e-09     -3.87405 
         600      26.2114  4.20182e-05 -5.59508e-08     -3.87405 
         600      26.3686  4.19132e-05 -1.14519e-07     -3.87405 
         600      26.5262  4.18064e-05 -1.79897e-07     -3.87405 
         600      26.6844  4.16984e-05 -2.53312e-07     -3.87405 
         600      26.8429  4.15908e-05 -3.35183e-07     -3.87405 
         600       27.002  4.14858e-05 -4.25423e-07     -3.87405 
         600      27.1615  4.13865e-05 -5.22748e-07     -3.87405 
         600      27.3216  4.12966e-05  -6.2505e-07     -3.87405 
         600      27.4821  4.12216e-05 -7.28662e-07     -3.87405 
         600       27.643  4.11679e-05  -8.2836e-07     -3.87405 
         600      27.8044  4.11435e-05 -9.17368e-07     -3.87405 
         600      27.9663  4.11583e-05 -9.86559e-07     -3.87405 
         600      28.1287   4.1061e-05  -1.0311e-06     -3.87405 
         600      28.2914  4.08853e-05 -1.05831e-06     -3.87405 
         600      28.4548   4.0792e-05 -1.08035e-06     -3.87405 
         600      28.6185  4.07695e-05 -1.10887e-06     -3.87405 
         600      28.7828  4.08038e-05 -1.15017e-06     -3.87405 
         600      28.9475  4.08789e-05 -1.20526e-06     -3.87405 
         600      29.1126  4.09775e-05 -1.26999e-06     -3.87405 
         600      29.2784  4.10816e-05  -1.3354e-06     -3.87405 
         600      29.4444  4.11726e-05 -1.38761e-06     -3.87405 
         600       29.611  4.09753e-05 -1.37109e-06     -3.87405 
         600       29.778  4.08112e-05 -1.35292e-06     -3.87405 
         600      29.9456  4.06935e-05 -1.33643e-06     -3.87405 
         600      30.1137  4.06114e-05 -1.32052e-06     -3.87404 
         600      30.2821  4.05553e-05 -1.30446e-06     -3.87404 
         600      30.4511  4.05174e-05 -1.28782e-06     -3.87404 
         600      30.6204  4.04912e-05 -1.27051e-06     -3.87404 
         600      30.7903  4.04716e-05 -1.25265e-06     -3.87404 
         600      30.9606  4.04547e-05 -1.23462e-06     -3.87404 
         600      31.1315  4.04376e-05 -1.21689e-06     -3.87404 
         600      31.3028  4.04185e-05 -1.20011e-06     -3.87404 
         600      31.4745  4.03962e-05 -1.18499e-06     -3.87404 
         600      31.6468  4.03704e-05 -1.17224e-06     -3.87404 
         600      31.8194  4.03414e-05  -1.1626e-06     -3.87404 
         600      31.9926  4.03099e-05 -1.15673e-06     -3.87404 
         600      32.1662  4.02769e-05 -1.15523e-06     -3.87404 
         600      32.3404  4.02436e-05 -1.15856e-06     -3.87404 
         600      32.5149  4.02117e-05 -1.16701e-06     -3.87404 
         600        32.69  4.01824e-05  -1.1807e-06     -3.87404 
         600      32.8655  4.01572e-05  -1.1995e-06     -3.87404 
         600      33.0414  4.01372e-05   -1.223e-06     -3.87404 
         600       33.218  4.01232e-05 -1.25055e-06     -3.87404 
         600      33.3948  4.01157e-05 -1.28113e-06     -3.87404 
         600      33.5723  4.01147e-05 -1.31343e-06     -3.87404 
         600        33.75  4.01196e-05 -1.34572e-06     -3.87404 
         600      33.9284   4.0129e-05 -1.37594e-06     -3.87404 
         600      34.1073  4.01409e-05 -1.40159e-06     -3.87404 
         600      34.2865  4.01525e-05 -1.41974e-06     -3.87404 
         600      34.4663    4.016e-05 -1.42709e-06     -3.87404 
         600      34.6465  4.01586e-05 -1.41987e-06     -3.87404 
         600      34.8272  4.01428e-05 -1.39387e-06     -3.87404 
         600      35.0083  4.01056e-05 -1.34448e-06     -3.87404 
         600        35.19  4.00392e-05 -1.26656e-06     -3.87404 
         600      35.3721  3.99347e-05 -1.15462e-06     -3.87404 
         600      35.5546  4.01171e-05 -1.19283e-06     -3.87404 
         600      35.7377  4.02391e-05 -1.22974e-06     -3.87404 
         600      35.9211  4.02975e-05 -1.25683e-06     -3.87404 
         600      36.1052  4.03066e-05 -1.27435e-06     -3.87404 
         600      36.2895  4.02805e-05 -1.28296e-06     -3.87404 
         600      36.4745  4.02331e-05 -1.28387e-06     -3.87404 
         600      36.6598  4.01776e-05 -1.27877e-06     -3.87404 
         600      36.8457  4.01253e-05 -1.26989e-06     -3.87404 
         600      37.0321  4.00858e-05 -1.25998e-06     -3.87404 
         600      37.2188  4.00659e-05 -1.25239e-06     -3.87404 
         600      37.4062  4.00685e-05 -1.25105e-06     -3.87404 
         600      37.5938  4.00922e-05 -1.26054e-06     -3.87404 
         600      37.7821  4.01307e-05 -1.28615e-06     -3.87404 
         600      37.9707  4.01708e-05 -1.33388e-06     -3.87404 
         600      38.1599  4.01927e-05 -1.41064e-06     -3.87404 
         600      38.3496  4.02628e-05 -1.38674e-06     -3.87404 
         600      38.5396  4.03434e-05  -1.2254e-06     -3.87403 
         600      38.7302  4.03365e-05 -1.08711e-06     -3.87403 
         600      38.9211  4.02744e-05 -9.72695e-07     -3.87403 
         600      39.1127   4.0183e-05  -8.8149e-07     -3.87403 
         600      39.3046  4.00833e-05 -8.12324e-07     -3.87403 
         600      39.4971  3.99908e-05 -7.63116e-07     -3.87403 
         600      39.6899  3.99165e-05  -7.3152e-07     -3.87403 
         600      39.8833  3.98669e-05 -7.14782e-07     -3.87403 
         600      40.0772  3.98448e-05 -7.10105e-07     -3.87403 
         600      40.2714  3.98496e-05 -7.14679e-07     -3.87403 
         600      40.4663  3.98779e-05 -7.25852e-07     -3.87403 
         600      40.6615   3.9924e-05 -7.41202e-07     -3.87403 
         600      40.8573  3.99805e-05 -7.58676e-07     -3.87403 
         600      41.0534  4.00393e-05 -7.76567e-07     -3.87403 
         600      41.2501  4.00918e-05 -7.93651e-07     -3.87403 
         600      41.4473  4.01299e-05 -8.09106e-07     -3.87403 
         600      41.6448   4.0147e-05 -8.22546e-07     -3.87403 
         600      41.8429  4.01384e-05 -8.34009e-07     -3.87403 
         600      42.0414  4.01025e-05 -8.43819e-07     -3.87403 
         600      42.2405  4.00417e-05 -8.52558e-07     -3.87403 
         600      42.4399  3.99633e-05 -8.60877e-07     -3.87403 
         600      42.6399  3.98807e-05 -8.69392e-07     -3.87403 
         600      42.8404  3.98142e-05 -8.78439e-07     -3.87403 
         600      43.0412  3.97928e-05 -8.87863e-07     -3.87403 
         600      43.2426  3.98546e-05 -8.96776e-07     -3.87403 
         600      43.4444  4.00429e-05 -9.03119e-07     -3.87403 
         600      43.6467  3.99411e-05 -9.06907e-07     -3.87403 
         600      43.8494  3.98921e-05  -9.1823e-07     -3.87403 
         600      44.0527  3.98815e-05 -9.33614e-07     -3.87403 
         600      44.2563   3.9897e-05  -9.5021e-07     -3.87403 
         600      44.4606  3.99288e-05 -9.65826e-07     -3.87403 
         600      44.6653  3.99687e-05 -9.78792e-07     -3.87403 
         600      44.8704  4.00104e-05 -9.87959e-07     -3.87403 
         600       45.076   4.0049e-05 -9.92658e-07     -3.87403 
         600       45.282  4.00812e-05 -9.92609e-07     -3.87403 
         600      45.4886  4.01048e-05 -9.87899e-07     -3.87403 
         600      45.6955  4.01187e-05 -9.78928e-07     -3.87402 
         600       45.903  4.01227e-05 -9.66334e-07     -3.87402 
         600      46.1111  4.01174e-05 -9.50976e-07     -3.87402 
         600      46.3194   4.0104e-05 -9.33878e-07     -3.87402 
         600      46.5283   4.0084e-05 -9.16124e-07     -3.87402 
         600      46.7376  4.00595e-05 -8.98902e-07     -3.87402 
         600      46.9475  4.00326e-05 -8.83345e-07     -3.87402 
         600      47.1577  4.00055e-05 -8.70589e-07     -3.87402 
         600      47.3685  3.99805e-05 -8.61622e-07     -3.87402 
         600      47.5798  3.99596e-05 -8.57314e-07     -3.87402 
         600      47.7914  3.99446e-05  -8.5832e-07     -3.87402 
         600      48.0037   3.9937e-05  -8.6505e-07     -3.87402 