Variables = x, y, u, v, p

Zone, I=800, F=POINT
         -50            0            0            0      56.0221 
         -50     0.000234  9.78538e-06  1.28494e-09      56.0221 
         -50     0.000939  3.68507e-05  4.96839e-09      56.0221 
         -50     0.002113  7.45332e-05  1.05188e-08      56.0221 
         -50     0.003759  0.000113979  1.72119e-08      56.0221 
         -50     0.005872  0.000146301  2.42382e-08      56.0221 
         -50     0.008457  0.000165468    3.094e-08      56.0221 
         -50      0.01151  0.000169747  3.68724e-08      56.0221 
         -50     0.015036  0.000162284  4.18985e-08      56.0221 
         -50     0.019031  0.000149864  4.61021e-08      56.0221 
         -50     0.023493  0.000140289  4.96687e-08      56.0221 
         -50     0.028429  0.000139049  5.26925e-08      56.0221 
         -50     0.033831  0.000146637  5.49915e-08      56.0221 
         -50     0.039706  0.000157871  5.60658e-08      56.0221 
         -50     0.046047   0.00016447  5.52108e-08      56.0221 
         -50     0.052863  0.000160993  5.18428e-08      56.0221 
         -50      0.06015  0.000151618  4.59024e-08      56.0221 
         -50       0.0679  0.000151174  3.79831e-08      56.0221 
         -50     0.076126  0.000166845  2.84006e-08      56.0221 
         -50     0.084816  0.000154212  1.48989e-08      56.0221 
         -50     0.093982   0.00016007 -7.10264e-10      56.0221 
         -50     0.103611  0.000162354  -1.9648e-08      56.0221 
         -50     0.113718  0.000162898 -4.16808e-08      56.0221 
         -50     0.124286  0.000163005 -6.67427e-08      56.0221 
         -50     0.135333   0.00016339 -9.50683e-08      56.0221 
         -50      0.14685  0.000164223 -1.26984e-07      56.0221 
         -50     0.158827  0.000165274 -1.62843e-07      56.0221 
         -50     0.171284  0.000166147 -2.02964e-07      56.0221 
         -50     0.184201  0.000166543 -2.47232e-07      56.0221 
         -50     0.197599  0.000166496  -2.9519e-07      56.0221 
         -50     0.211455  0.000166422 -3.45646e-07      56.0221 
         -50     0.225792  0.000166817 -3.97055e-07      56.0221 
         -50       0.2406  0.000167325 -4.47566e-07      56.0221 
         -50     0.255865   0.00016658 -4.88718e-07      56.0221 
         -50     0.271613   0.00016653 -5.20325e-07       56.022 
         -50     0.287818  0.000166284 -5.44369e-07       56.022 
         -50     0.304506  0.000165892  -5.5032e-07       56.022 
         -50      0.32165  0.000165393 -5.32543e-07       56.022 
         -50     0.339278  0.000164819 -4.90089e-07       56.022 
         -50     0.357377  0.000164191 -4.26187e-07       56.022 
         -50      0.37593  0.000163524  -3.4736e-07       56.022 
         -50     0.394968  0.000162822 -2.61901e-07       56.022 
         -50     0.414461   0.00016209 -1.78819e-07       56.022 
         -50      0.43444  0.000161326 -1.05631e-07      56.0219 
         -50     0.454872  0.000160532 -4.71216e-08      56.0219 
         -50     0.475791  0.000159709 -3.26684e-09      56.0219 
         -50     0.497163  0.000158863  3.16164e-08      56.0219 
         -50     0.519021  0.000158002  6.97415e-08      56.0219 
         -50      0.54135  0.000157131  1.29149e-07      56.0218 
         -50     0.564131   0.00015625  2.31664e-07      56.0218 
         -50       0.5874  0.000155337  3.99078e-07      56.0218 
         -50     0.611121  0.000154348   6.1626e-07      56.0218 
         -50      0.63533  0.000153408  5.75029e-07      56.0217 
         -50      0.65999  0.000152444  5.39343e-07      56.0217 
         -50     0.685139  0.000151452  5.12395e-07      56.0217 
         -50     0.710759  0.000150431  4.96524e-07      56.0217 
         -50     0.736828  0.000149382  4.93101e-07      56.0216 
         -50     0.763387  0.000148307  5.02588e-07      56.0216 
         -50     0.790396  0.000147212    5.246e-07      56.0215 
         -50     0.817896  0.000146102  5.58042e-07      56.0215 
         -50     0.845843  0.000144987  6.01097e-07      56.0215 
         -50     0.874283  0.000143872  6.51571e-07      56.0214 
         -50      0.90317   0.00014277  7.06786e-07      56.0214 
         -50     0.932551  0.000141687  7.64077e-07      56.0213 
         -50     0.962401  0.000140633  8.20683e-07      56.0213 
         -50     0.992697  0.000139617  8.74096e-07      56.0212 
         -50      1.02349  0.000138643  9.22376e-07      56.0212 
         -50      1.05472  0.000137718  9.64051e-07      56.0211 
         -50      1.08645  0.000136841  9.98597e-07       56.021 
         -50      1.11863  0.000136014  1.02629e-06       56.021 
         -50       1.1513  0.000135232  1.04849e-06      56.0209 
         -50      1.18444  0.000134491  1.06751e-06      56.0208 
         -50      1.21802  0.000133782  1.08654e-06      56.0208 
         -50      1.25211  0.000133095   1.1095e-06      56.0207 
         -50      1.28663  0.000132421  1.14055e-06      56.0206 
         -50      1.32165  0.000131748  1.18366e-06      56.0205 
         -50      1.35712  0.000131071  1.24165e-06      56.0204 
         -50      1.39308  0.000130387  1.31543e-06      56.0204 
         -50      1.42951  0.000129704  1.40235e-06      56.0203 
         -50      1.46638  0.000129044  1.49456e-06      56.0202 
         -50      1.50375  0.000128445   1.5772e-06      56.0201 
         -50      1.54156  0.000127416  1.38771e-06        56.02 
         -50      1.57987  0.000126488  1.31344e-06      56.0199 
         -50      1.61863  0.000125717  1.35358e-06      56.0197 
         -50      1.65788  0.000125111  1.48368e-06      56.0196 
         -50      1.69757  0.000124677   1.6808e-06      56.0195 
         -50      1.73776  0.000124414  1.92446e-06      56.0194 
         -50      1.77842   0.00012432  2.19573e-06      56.0193 
         -50      1.81952   0.00012439  2.47763e-06      56.0191 
         -50      1.86113  0.000124615  2.75605e-06       56.019 
         -50      1.90316  0.000124982  3.01816e-06      56.0188 
         -50      1.94571  0.000125476  3.25413e-06      56.0187 
         -50      1.98869  0.000126081  3.45552e-06      56.0185 
         -50      2.03217  0.000126779  3.61672e-06      56.0184 
         -50      2.07612  0.000127548  3.73367e-06      56.0182 
         -50      2.12051  0.000128367  3.80444e-06       56.018 
         -50       2.1654  0.000129216  3.82911e-06      56.0179 
         -50      2.21073  0.000130071  3.80938e-06      56.0177 
         -50      2.25656  0.000130915  3.74854e-06      56.0175 
         -50      2.30283  0.000131725  3.65142e-06      56.0173 
         -50       2.3496  0.000132486  3.52385e-06      56.0171 
         -50      2.39685  0.000133182  3.37289e-06      56.0169 
         -50      2.44452  0.000133801  3.20646e-06      56.0167 
         -50      2.49271  0.000134334  3.03263e-06      56.0165 
         -50      2.54132  0.000134775  2.86031e-06      56.0163 
         -50      2.59044  0.000135125  2.69789e-06      56.0161 
         -50         2.64  0.000135386  2.55406e-06      56.0158 
         -50      2.69006  0.000135566  2.43656e-06      56.0156 
         -50      2.74056  0.000135679  2.35277e-06      56.0153 
         -50      2.79156   0.00013574  2.30878e-06      56.0151 
         -50      2.84304  0.000135771  2.30968e-06      56.0148 
         -50      2.89494  0.000135796  2.35898e-06      56.0145 
         -50      2.94735  0.000135842  2.45874e-06      56.0143 
         -50       3.0002  0.000135938  2.60904e-06       56.014 
         -50      3.05355  0.000136113  2.80855e-06      56.0137 
         -50      3.10733  0.000136392  3.05354e-06      56.0134 
         -50      3.16163    0.0001368  3.33921e-06      56.0131 
         -50      3.21639  0.000137352  3.65848e-06      56.0128 
         -50      3.27158  0.000138055  4.00276e-06      56.0125 
         -50      3.32729  0.000138903  4.36318e-06      56.0121 
         -50      3.38342  0.000139869  4.72908e-06      56.0118 
         -50      3.44007  0.000140908  5.09089e-06      56.0114 
         -50      3.49714   0.00014194   5.4386e-06      56.0111 
         -50      3.55472  0.000142855  5.76492e-06      56.0107 
         -50      3.61273  0.000143498  6.06425e-06      56.0104 
         -50      3.67125  0.000143662  6.33606e-06        56.01 
         -50      3.73025  0.000143081  6.58477e-06      56.0096 
         -50      3.78967  0.000143589  6.21484e-06      56.0092 
         -50      3.84961  0.000144852  6.00081e-06      56.0088 
         -50      3.90996  0.000145927  6.08788e-06      56.0083 
         -50      3.97084   0.00014619  6.95125e-06      56.0079 
         -50      4.03214  0.000146322  7.73648e-06      56.0075 
         -50      4.09395  0.000146433  8.32964e-06       56.007 
         -50      4.15624  0.000146531  8.74366e-06      56.0066 
         -50      4.21895  0.000146624  9.00077e-06      56.0061 
         -50      4.28217  0.000146722  9.13009e-06      56.0056 
         -50      4.34582   0.00014683  9.16413e-06      56.0051 
         -50      4.40998  0.000146957  9.13748e-06      56.0046 
         -50      4.47457  0.000147106  9.08439e-06      56.0041 
         -50      4.53968  0.000147279  9.03667e-06      56.0036 
         -50      4.60525  0.000147475  9.02228e-06       56.003 
         -50      4.67125   0.00014769  9.06355e-06      56.0025 
         -50      4.73777  0.000147919  9.17631e-06      56.0019 
         -50       4.8047  0.000148151  9.36872e-06      56.0014 
         -50      4.87216  0.000148375  9.64181e-06      56.0008 
         -50      4.94003   0.00014858  9.98844e-06      56.0002 
         -50      5.00843  0.000148753   1.0396e-05      55.9996 
         -50      5.07724   0.00014888  1.08455e-05       55.999 
         -50      5.14658  0.000148955  1.13172e-05      55.9983 
         -50      5.21639  0.000148972  1.17904e-05      55.9977 
         -50      5.28661  0.000148934  1.22497e-05       55.997 
         -50      5.35736  0.000148855  1.26908e-05      55.9964 
         -50      5.42852  0.000148764  1.31249e-05      55.9957 
         -50      5.50021  0.000148705  1.35893e-05       55.995 
         -50      5.57231  0.000148749  1.41539e-05      55.9943 
         -50      5.64493  0.000148991  1.49351e-05      55.9935 
         -50      5.71803  0.000148823  1.56036e-05      55.9928 
         -50      5.79154  0.000149025  1.57642e-05       55.992 
         -50      5.86558  0.000149369  1.56936e-05      55.9913 
         -50      5.94003  0.000149706  1.55857e-05      55.9905 
         -50      6.01501  0.000149953  1.55584e-05      55.9897 
         -50       6.0904  0.000150083  1.56636e-05      55.9889 
         -50      6.16632  0.000150112  1.58981e-05      55.9881 
         -50      6.24271  0.000150081  1.62169e-05      55.9872 
         -50       6.3195  0.000150044  1.65491e-05      55.9864 
         -50      6.39683  0.000150045  1.68186e-05      55.9855 
         -50      6.47457  0.000150097  1.69635e-05      55.9846 
         -50      6.55284  0.000150159   1.6963e-05      55.9837 
         -50      6.63152  0.000150108  1.68649e-05      55.9828 
         -50      6.71073  0.000149709  1.68184e-05      55.9819 
         -50      6.79034   0.00014922  1.67646e-05      55.9809 
         -50      6.87049   0.00014883  1.66507e-05      55.9799 
         -50      6.95111  0.000148433   1.6614e-05       55.979 
         -50      7.03214  0.000148058  1.66934e-05       55.978 
         -50       7.1137  0.000147727  1.69027e-05      55.9769 
         -50      7.19566  0.000147452  1.72344e-05      55.9759 
         -50      7.27816  0.000147243  1.76652e-05      55.9749 
         -50      7.36106  0.000147102  1.81595e-05      55.9738 
         -50      7.44451  0.000147028  1.86756e-05      55.9727 
         -50      7.52842  0.000147018   1.9169e-05      55.9716 
         -50      7.61273  0.000147065  1.95975e-05      55.9705 
         -50      7.69758  0.000147158  1.99275e-05      55.9693 
         -50      7.78283  0.000147287  2.01359e-05      55.9682 
         -50      7.86862  0.000147433   2.0217e-05       55.967 
         -50      7.95481  0.000147578  2.01853e-05      55.9658 
         -50      8.04155  0.000147693  2.00805e-05      55.9646 
         -50      8.12868  0.000147959  2.00987e-05      55.9633 
         -50      8.21635  0.000148084  2.01253e-05      55.9621 
         -50      8.30449  0.000148056  2.02111e-05      55.9608 
         -50      8.39303  0.000147929  2.04112e-05      55.9595 
         -50      8.48211  0.000147743  2.07381e-05      55.9582 
         -50      8.57159  0.000147523  2.11695e-05      55.9569 
         -50      8.66161  0.000147285  2.16598e-05      55.9555 
         -50      8.75203  0.000147035  2.21496e-05      55.9541 
         -50      8.84299  0.000146779  2.25815e-05      55.9528 
         -50      8.93443  0.000146527  2.29124e-05      55.9513 
         -50      9.02626  0.000146302  2.31319e-05      55.9499 
         -50      9.11863  0.000146155  2.32813e-05      55.9484 
         -50      9.21139   0.00014617  2.34731e-05       55.947 
         -50      9.30471  0.000146486  2.39156e-05      55.9455 
         -50      9.39841  0.000146744  2.45982e-05      55.9439 
         -50      9.49267  0.000146682  2.51683e-05      55.9424 
         -50      9.58739  0.000146665  2.57531e-05      55.9408 
         -50      9.68251  0.000146649   2.6337e-05      55.9393 
         -50      9.77817  0.000146607   2.6906e-05      55.9376 
         -50      9.87422  0.000146522  2.74453e-05       55.936 
         -50      9.97083  0.000146387  2.79432e-05      55.9344 
         -50      10.0678  0.000146204  2.83884e-05      55.9327 
         -50      10.1654  0.000145979  2.87735e-05       55.931 
         -50      10.2633  0.000145726  2.90925e-05      55.9293 
         -50      10.3618  0.000145457  2.93435e-05      55.9275 
         -50      10.4607  0.000145187  2.95272e-05      55.9257 
         -50      10.5601  0.000144931  2.96475e-05      55.9239 
         -50        10.66  0.000144702  2.97119e-05      55.9221 
         -50      10.7603  0.000144508  2.97305e-05      55.9203 
         -50      10.8611  0.000144355  2.97161e-05      55.9184 
         -50      10.9623  0.000144245  2.96836e-05      55.9165 
         -50      11.0641  0.000144175  2.96491e-05      55.9146 
         -50      11.1663  0.000144134  2.96294e-05      55.9127 
         -50       11.269  0.000144112  2.96405e-05      55.9107 
         -50      11.3721   0.00014409  2.96965e-05      55.9087 
         -50      11.4757  0.000144049  2.98079e-05      55.9067 
         -50      11.5798  0.000143968  2.99802e-05      55.9047 
         -50      11.6844  0.000143826  3.02109e-05      55.9026 
         -50      11.7894  0.000143606  3.04883e-05      55.9005 
         -50       11.895  0.000143296  3.07878e-05      55.8984 
         -50      12.0009  0.000142895   3.1069e-05      55.8963 
         -50      12.1073  0.000142414  3.12734e-05      55.8941 
         -50      12.2142  0.000141884  3.13189e-05      55.8919 
         -50      12.3216   0.00014136  3.10971e-05      55.8897 
         -50      12.4294  0.000140929  3.04682e-05      55.8874 
         -50      12.5378  0.000140714  2.92547e-05      55.8851 
         -50      12.6465   0.00014136  2.86662e-05      55.8828 
         -50      12.7558   0.00014323  3.04694e-05      55.8805 
         -50      12.8656    0.0001427  3.07228e-05      55.8781 
         -50      12.9757  0.000141967  3.11001e-05      55.8758 
         -50      13.0864    0.0001418   3.2056e-05      55.8733 
         -50      13.1975   0.00014161  3.27638e-05      55.8709 
         -50      13.3092  0.000141414  3.32819e-05      55.8684 
         -50      13.4212  0.000141218  3.36593e-05      55.8659 
         -50      13.5338  0.000141028  3.39398e-05      55.8634 
         -50      13.6468  0.000140841  3.41593e-05      55.8609 
         -50      13.7603  0.000140655  3.43471e-05      55.8583 
         -50      13.8743  0.000140465  3.45266e-05      55.8557 
         -50      13.9886  0.000140265  3.47142e-05       55.853 
         -50      14.1036   0.00014005  3.49212e-05      55.8504 
         -50      14.2189  0.000139818  3.51528e-05      55.8477 
         -50      14.3348  0.000139565    3.541e-05      55.8449 
         -50       14.451  0.000139293  3.56889e-05      55.8422 
         -50      14.5678  0.000139005  3.59824e-05      55.8394 
         -50      14.6851  0.000138707  3.62801e-05      55.8366 
         -50      14.8028  0.000138407  3.65694e-05      55.8337 
         -50       14.921  0.000138117  3.68374e-05      55.8309 
         -50      15.0396  0.000137849  3.70701e-05       55.828 
         -50      15.1588  0.000137617  3.72553e-05       55.825 
         -50      15.2783  0.000137434  3.73828e-05      55.8221 
         -50      15.3984  0.000137312  3.74461e-05      55.8191 
         -50       15.519   0.00013726   3.7444e-05       55.816 
         -50        15.64   0.00013728  3.73821e-05       55.813 
         -50      15.7615  0.000137366  3.72746e-05      55.8099 
         -50      15.8834  0.000137504  3.71464e-05      55.8068 
         -50      16.0058  0.000137661  3.70347e-05      55.8036 
         -50      16.1286  0.000137789  3.69919e-05      55.8004 
         -50       16.252  0.000137817  3.70873e-05      55.7972 
         -50      16.3759  0.000137647  3.74103e-05       55.794 
         -50      16.5002  0.000137148   3.8072e-05      55.7907 
         -50       16.625   0.00013615  3.92106e-05      55.7874 
         -50      16.7501  0.000135001  3.94215e-05      55.7841 
         -50      16.8759  0.000134411  3.85612e-05      55.7807 
         -50       17.002  0.000133959  3.83279e-05      55.7773 
         -50      17.1287  0.000133615  3.85174e-05      55.7738 
         -50      17.2557  0.000133356  3.89657e-05      55.7704 
         -50      17.3834  0.000133163  3.95456e-05      55.7669 
         -50      17.5115  0.000133017  4.01609e-05      55.7633 
         -50      17.6399  0.000132907  4.07429e-05      55.7598 
         -50       17.769  0.000132819  4.12484e-05      55.7562 
         -50      17.8984  0.000132747  4.16526e-05      55.7526 
         -50      18.0284   0.00013268  4.19489e-05      55.7489 
         -50      18.1587  0.000132614  4.21426e-05      55.7452 
         -50      18.2896  0.000132544  4.22495e-05      55.7415 
         -50       18.421  0.000132464  4.22917e-05      55.7377 
         -50      18.5528   0.00013237  4.22956e-05      55.7339 
         -50      18.6851  0.000132259  4.22888e-05      55.7301 
         -50      18.8178  0.000132128  4.22978e-05      55.7262 
         -50      18.9511  0.000131972  4.23464e-05      55.7223 
         -50      19.0847  0.000131788  4.24539e-05      55.7184 
         -50      19.2189  0.000131573  4.26339e-05      55.7145 
         -50      19.3535  0.000131323   4.2893e-05      55.7105 
         -50      19.4886  0.000131036  4.32318e-05      55.7064 
         -50      19.6242  0.000130709  4.36432e-05      55.7024 
         -50      19.7602  0.000130342  4.41141e-05      55.6983 
         -50      19.8968  0.000129936  4.46273e-05      55.6941 
         -50      20.0337  0.000129493   4.5161e-05        55.69 
         -50      20.1712  0.000129018  4.56941e-05      55.6858 
         -50      20.3091  0.000128623  4.58397e-05      55.6816 
         -50      20.4475  0.000128593  4.48957e-05      55.6773 
         -50      20.5864  0.000128595  4.43052e-05       55.673 
         -50      20.7257  0.000128614  4.41989e-05      55.6687 
         -50      20.8655  0.000128622  4.47059e-05      55.6643 
         -50      21.0058  0.000128584  4.59463e-05      55.6599 
         -50      21.1465  0.000128453  4.80252e-05      55.6555 
         -50      21.2877   0.00012783  4.84212e-05       55.651 
         -50      21.4294  0.000126769  4.64887e-05      55.6465 
         -50      21.5716  0.000125925  4.55339e-05       55.642 
         -50      21.7142  0.000125411  4.53893e-05      55.6374 
         -50      21.8573  0.000125268  4.58274e-05      55.6328 
         -50      22.0008  0.000125419  4.65508e-05      55.6282 
         -50      22.1449   0.00012549  4.69665e-05      55.6235 
         -50      22.2893  0.000125452  4.70189e-05      55.6188 
         -50      22.4344  0.000125307  4.68309e-05       55.614 
         -50      22.5797   0.00012506  4.65186e-05      55.6093 
         -50      22.7257  0.000124722  4.61848e-05      55.6045 
         -50      22.8721  0.000124307   4.5916e-05      55.5996 
         -50      23.0189  0.000123832  4.57766e-05      55.5947 
         -50      23.1663  0.000123318  4.58071e-05      55.5898 
         -50       23.314  0.000122791  4.60226e-05      55.5849 
         -50      23.4623  0.000122275  4.64133e-05      55.5799 
         -50       23.611  0.000121796  4.69448e-05      55.5749 
         -50      23.7602  0.000121379  4.75633e-05      55.5698 
         -50        23.91  0.000121047  4.81976e-05      55.5647 
         -50        24.06  0.000120816  4.87675e-05      55.5596 
         -50      24.2107  0.000120696  4.91927e-05      55.5545 
         -50      24.3617  0.000120683  4.94013e-05      55.5493 
         -50      24.5133  0.000120763   4.9344e-05      55.5441 
         -50      24.6653    0.0001209  4.90084e-05      55.5388 
         -50      24.8178  0.000121039   4.8435e-05      55.5335 
         -50      24.9708  0.000121095  4.77389e-05      55.5282 
         -50      25.1242  0.000120952  4.71311e-05      55.5229 
         -50      25.2781  0.000120458  4.69419e-05      55.5175 
         -50      25.4324  0.000119414  4.76507e-05       55.512 
         -50      25.5873   0.00011822  4.74814e-05      55.5066 
         -50      25.7426  0.000117692  4.74476e-05      55.5011 
         -50      25.8984  0.000117564  4.76132e-05      55.4956 
         -50      26.0546  0.000117628  4.78921e-05        55.49 
         -50      26.2114  0.000117733  4.82127e-05      55.4844 
         -50      26.3686  0.000117773  4.85208e-05      55.4788 
         -50      26.5262  0.000117678   4.8786e-05      55.4731 
         -50      26.6844  0.000117412  4.90066e-05      55.4674 
         -50      26.8429  0.000116979  4.92134e-05      55.4617 
         -50       27.002   0.00011643  4.94762e-05       55.456 
         -50      27.1615  0.000115881  4.99073e-05      55.4502 
         -50      27.3216  0.000115534  5.06684e-05      55.4443 
         -50      27.4821  0.000115711  5.19738e-05      55.4385 
         -50       27.643  0.000115729  5.22469e-05      55.4326 
         -50      27.8044  0.000115379  5.17929e-05      55.4267 
         -50      27.9663  0.000115078   5.1496e-05      55.4207 
         -50      28.1287  0.000114804  5.13267e-05      55.4147 
         -50      28.2914   0.00011454  5.12603e-05      55.4087 
         -50      28.4548  0.000114272  5.12753e-05      55.4026 
         -50      28.6185  0.000113991  5.13536e-05      55.3966 
         -50      28.7828  0.000113691  5.14803e-05      55.3904 
         -50      28.9475   0.00011337  5.16429e-05      55.3843 
         -50      29.1126  0.000113027  5.18312e-05      55.3781 
         -50      29.2784  0.000112662  5.20377e-05      55.3719 
         -50      29.4444  0.000112281  5.22558e-05      55.3656 
         -50       29.611  0.000111885  5.24813e-05      55.3593 
         -50       29.778  0.000111483  5.27105e-05       55.353 
         -50      29.9456  0.000111077  5.29414e-05      55.3467 
         -50      30.1137  0.000110675  5.31722e-05      55.3403 
         -50      30.2821  0.000110283  5.34019e-05      55.3339 
         -50      30.4511  0.000109904  5.36301e-05      55.3275 
         -50      30.6204  0.000109544  5.38561e-05       55.321 
         -50      30.7903  0.000109206  5.40799e-05      55.3145 
         -50      30.9606  0.000108893  5.43006e-05       55.308 
         -50      31.1315  0.000108606  5.45181e-05      55.3014 
         -50      31.3028  0.000108344  5.47313e-05      55.2948 
         -50      31.4745  0.000108108  5.49386e-05      55.2882 
         -50      31.6468  0.000107895   5.5139e-05      55.2815 
         -50      31.8194  0.000107699  5.53302e-05      55.2748 
         -50      31.9926  0.000107518  5.55103e-05      55.2681 
         -50      32.1662  0.000107344  5.56765e-05      55.2614 
         -50      32.3404  0.000107172  5.58267e-05      55.2546 
         -50      32.5149  0.000106994  5.59581e-05      55.2478 
         -50        32.69  0.000106803  5.60688e-05       55.241 
         -50      32.8655  0.000106592  5.61567e-05      55.2341 
         -50      33.0414  0.000106357   5.6221e-05      55.2272 
         -50       33.218  0.000106092  5.62619e-05      55.2203 
         -50      33.3948  0.000105796  5.62808e-05      55.2134 
         -50      33.5723  0.000105468  5.62813e-05      55.2064 
         -50        33.75  0.000105114  5.62693e-05      55.1994 
         -50      33.9284  0.000104743  5.62535e-05      55.1923 
         -50      34.1073  0.000104368  5.62464e-05      55.1853 
         -50      34.2865  0.000104012  5.62645e-05      55.1782 
         -50      34.4663  0.000103703  5.63293e-05      55.1711 
         -50      34.6465  0.000103481  5.64679e-05      55.1639 
         -50      34.8272  0.000103395  5.67144e-05      55.1567 
         -50      35.0083  0.000103231  5.67181e-05      55.1495 
         -50        35.19  0.000102859  5.64225e-05      55.1423 
         -50      35.3721  0.000102372  5.60934e-05      55.1351 
         -50      35.5546  0.000101733  5.59622e-05      55.1278 
         -50      35.7377  0.000101235  5.68502e-05      55.1205 
         -50      35.9211  0.000100925   5.7589e-05      55.1131 
         -50      36.1052  0.000100746  5.81922e-05      55.1058 
         -50      36.2895  0.000100652  5.86709e-05      55.0984 
         -50      36.4745    0.0001006  5.90371e-05       55.091 
         -50      36.6598  0.000100553  5.93011e-05      55.0835 
         -50      36.8457  0.000100455  5.94247e-05      55.0761 
         -50      37.0321  9.98773e-05  5.87017e-05      55.0686 
         -50      37.2188  9.92927e-05  5.80457e-05      55.0611 
         -50      37.4062  9.87174e-05  5.74554e-05      55.0535 
         -50      37.5938  9.81657e-05  5.69316e-05       55.046 
         -50      37.7821  9.76462e-05  5.64727e-05      55.0384 
         -50      37.9707  9.71663e-05  5.60787e-05      55.0308 
         -50      38.1599  9.67291e-05  5.57477e-05      55.0231 
         -50      38.3496  9.63361e-05  5.54783e-05      55.0154 
         -50      38.5396  9.59869e-05  5.52686e-05      55.0078 
         -50      38.7302  9.56783e-05  5.51156e-05      55.0001 
         -50      38.9211  9.54066e-05  5.50164e-05      54.9923 
         -50      39.1127  9.51662e-05  5.49671e-05      54.9846 
         -50      39.3046  9.49514e-05  5.49635e-05      54.9768 
         -50      39.4971   9.4755e-05  5.50009e-05       54.969 
         -50      39.6899  9.45704e-05   5.5074e-05      54.9612 
         -50      39.8833  9.43903e-05  5.51774e-05      54.9533 
         -50      40.0772  9.42078e-05  5.53049e-05      54.9455 
         -50      40.2714  9.40168e-05  5.54501e-05      54.9376 
         -50      40.4663  9.38109e-05  5.56068e-05      54.9297 
         -50      40.6615  9.35856e-05  5.57682e-05      54.9217 
         -50      40.8573  9.33364e-05   5.5928e-05      54.9138 
         -50      41.0534  9.30608e-05  5.60799e-05      54.9058 
         -50      41.2501  9.27566e-05  5.62181e-05      54.8978 
         -50      41.4473  9.24238e-05  5.63374e-05      54.8898 
         -50      41.6448  9.20637e-05  5.64331e-05      54.8818 
         -50      41.8429  9.16782e-05  5.65022e-05      54.8737 
         -50      42.0414  9.12722e-05  5.65424e-05      54.8657 
         -50      42.2405  9.08504e-05  5.65535e-05      54.8576 
         -50      42.4399  9.04206e-05  5.65369e-05      54.8494 
         -50      42.6399  8.99904e-05  5.64965e-05      54.8413 
         -50      42.8404  8.95698e-05  5.64388e-05      54.8332 
         -50      43.0412    8.917e-05  5.63734e-05       54.825 
         -50      43.2426   8.8802e-05  5.63133e-05      54.8168 
         -50      43.4444  8.84789e-05  5.62756e-05      54.8086 
         -50      43.6467  8.82131e-05  5.62818e-05      54.8004 
         -50      43.8494  8.80182e-05  5.63583e-05      54.7922 
         -50      44.0527  8.79068e-05  5.65375e-05      54.7839 
         -50      44.2563  8.78832e-05   5.6846e-05      54.7756 
         -50      44.4606  8.75868e-05  5.67531e-05      54.7673 
         -50      44.6653  8.73436e-05  5.66725e-05       54.759 
         -50      44.8704  8.71187e-05  5.66174e-05      54.7507 
         -50       45.076  8.68832e-05  5.65968e-05      54.7424 
         -50       45.282  8.66158e-05  5.66164e-05       54.734 
         -50      45.4886  8.63016e-05  5.66774e-05      54.7256 
         -50      45.6955  8.59345e-05  5.67765e-05      54.7172 
         -50       45.903  8.55158e-05  5.69059e-05      54.7088 
         -50      46.1111  8.50566e-05  5.70526e-05      54.7004 
         -50      46.3194  8.45775e-05  5.71982e-05       54.692 
         -50      46.5283  8.41086e-05  5.73187e-05      54.6835 
         -50      46.7376  8.36921e-05  5.73839e-05      54.6751 
         -50      46.9475  8.33805e-05  5.73572e-05      54.6666 
         -50      47.1577  8.32399e-05  5.71953e-05      54.6581 
         -50      47.3685   8.3288e-05  5.69347e-05      54.6496 
         -50      47.5798  8.32413e-05  5.67984e-05      54.6411 
         -50      47.7914  8.30907e-05  5.67144e-05      54.6326 
         -50      48.0037   8.2859e-05  5.66687e-05       54.624 