Variables = x, y, u, v, p

Zone, I=800, F=POINT
         -50            0            0            0      92.8345 
         -50     0.000234  1.50651e-05  1.90188e-09      92.8345 
         -50     0.000939  5.67346e-05  7.38676e-09      92.8345 
         -50     0.002113  0.000114747  1.57562e-08      92.8345 
         -50     0.003759   0.00017545  2.60547e-08      92.8345 
         -50     0.005872    0.0002251  3.71892e-08      92.8345 
         -50     0.008457  0.000254313  4.82497e-08      92.8345 
         -50      0.01151  0.000260286  5.85736e-08      92.8345 
         -50     0.015036  0.000247732  6.78996e-08      92.8345 
         -50     0.019031  0.000227023  7.62634e-08      92.8345 
         -50     0.023493   0.00021021   8.3885e-08      92.8345 
         -50     0.028429  0.000205941  9.09525e-08      92.8345 
         -50     0.033831  0.000215321  9.73849e-08      92.8345 
         -50     0.039706  0.000230764  1.02788e-07      92.8345 
         -50     0.046047  0.000239803  1.06533e-07      92.8345 
         -50     0.052863  0.000233998  1.08105e-07      92.8345 
         -50      0.06015  0.000219242  1.07476e-07      92.8345 
         -50       0.0679  0.000217567  1.05154e-07      92.8345 
         -50     0.076126  0.000240039  1.00978e-07      92.8345 
         -50     0.084816  0.000220769  9.16526e-08      92.8345 
         -50     0.093982  0.000228648  8.17871e-08      92.8345 
         -50     0.103611  0.000231388  6.91232e-08      92.8345 
         -50     0.113718  0.000231696  5.42504e-08      92.8345 
         -50     0.124286  0.000231494  3.76918e-08      92.8345 
         -50     0.135333  0.000231838  1.98098e-08      92.8345 
         -50      0.14685  0.000232988  9.32966e-10      92.8345 
         -50     0.158827  0.000234609 -1.86317e-08      92.8345 
         -50     0.171284  0.000236126 -3.85963e-08      92.8345 
         -50     0.184201  0.000237101 -5.85566e-08      92.8344 
         -50     0.197599  0.000237582 -7.81823e-08      92.8344 
         -50     0.211455  0.000238179 -9.73086e-08      92.8344 
         -50     0.225792  0.000239616 -1.16556e-07      92.8344 
         -50       0.2406  0.000241367 -1.38118e-07      92.8344 
         -50     0.255865  0.000241418 -1.64494e-07      92.8344 
         -50     0.271613  0.000242614 -1.93219e-07      92.8344 
         -50     0.287818   0.00024363 -2.28965e-07      92.8344 
         -50     0.304506  0.000244528 -2.74993e-07      92.8344 
         -50      0.32165  0.000245353   -3.342e-07      92.8343 
         -50     0.339278  0.000246132 -4.09149e-07      92.8343 
         -50     0.357377  0.000246879  -5.0145e-07      92.8343 
         -50      0.37593  0.000247594 -6.11515e-07      92.8343 
         -50     0.394968  0.000248266 -7.38628e-07      92.8343 
         -50     0.414461  0.000248878 -8.80049e-07      92.8342 
         -50      0.43444  0.000249414 -1.03169e-06      92.8342 
         -50     0.454872  0.000249857 -1.18725e-06      92.8342 
         -50     0.475791    0.0002502 -1.33945e-06      92.8342 
         -50     0.497163  0.000250441 -1.47962e-06      92.8341 
         -50     0.519021  0.000250589 -1.59962e-06      92.8341 
         -50      0.54135  0.000250653 -1.69258e-06      92.8341 
         -50     0.564131  0.000250638  -1.7555e-06       92.834 
         -50       0.5874   0.00025052 -1.79237e-06       92.834 
         -50     0.611121  0.000250232 -1.82353e-06      92.8339 
         -50      0.63533  0.000249895 -1.91839e-06      92.8339 
         -50      0.65999   0.00024947 -2.02258e-06      92.8338 
         -50     0.685139  0.000248967 -2.13752e-06      92.8338 
         -50     0.710759  0.000248395 -2.26364e-06      92.8337 
         -50     0.736828  0.000247763 -2.40054e-06      92.8337 
         -50     0.763387   0.00024708 -2.54744e-06      92.8336 
         -50     0.790396  0.000246357 -2.70248e-06      92.8336 
         -50     0.817896  0.000245603 -2.86374e-06      92.8335 
         -50     0.845843  0.000244827 -3.02837e-06      92.8334 
         -50     0.874283  0.000244038 -3.19382e-06      92.8333 
         -50      0.90317  0.000243245 -3.35684e-06      92.8333 
         -50     0.932551  0.000242454  -3.5148e-06      92.8332 
         -50     0.962401  0.000241673 -3.66491e-06      92.8331 
         -50     0.992697  0.000240908 -3.80481e-06       92.833 
         -50      1.02349  0.000240161 -3.93308e-06      92.8329 
         -50      1.05472  0.000239437 -4.04858e-06      92.8328 
         -50      1.08645  0.000238737 -4.15143e-06      92.8327 
         -50      1.11863  0.000238062 -4.24231e-06      92.8326 
         -50       1.1513  0.000237411 -4.32314e-06      92.8325 
         -50      1.18444  0.000236782 -4.39646e-06      92.8324 
         -50      1.21802  0.000236173 -4.46552e-06      92.8323 
         -50      1.25211  0.000235581 -4.53408e-06      92.8321 
         -50      1.28663  0.000235005 -4.60555e-06       92.832 
         -50      1.32165  0.000234442 -4.68282e-06      92.8319 
         -50      1.35712  0.000233893 -4.76683e-06      92.8317 
         -50      1.39308  0.000233363 -4.85598e-06      92.8316 
         -50      1.42951  0.000232859 -4.94418e-06      92.8314 
         -50      1.46638  0.000232397  -5.0192e-06      92.8313 
         -50      1.50375  0.000231998 -5.06063e-06      92.8311 
         -50      1.54156  0.000230912 -5.17242e-06      92.8309 
         -50      1.57987  0.000230214 -5.17304e-06      92.8307 
         -50      1.61863  0.000229883 -5.08167e-06      92.8305 
         -50      1.65788  0.000229828 -4.92667e-06      92.8304 
         -50      1.69757  0.000229968 -4.73332e-06      92.8302 
         -50      1.73776  0.000230231 -4.52279e-06      92.8299 
         -50      1.77842  0.000230552 -4.31317e-06      92.8297 
         -50      1.81952  0.000230874   -4.119e-06      92.8295 
         -50      1.86113  0.000231152 -3.95083e-06      92.8293 
         -50      1.90316  0.000231347  -3.8164e-06       92.829 
         -50      1.94571  0.000231429 -3.71973e-06      92.8288 
         -50      1.98869  0.000231377 -3.66211e-06      92.8285 
         -50      2.03217  0.000231179 -3.64177e-06      92.8283 
         -50      2.07612  0.000230829 -3.65448e-06       92.828 
         -50      2.12051  0.000230329 -3.69366e-06      92.8277 
         -50       2.1654  0.000229687  -3.7509e-06      92.8274 
         -50      2.21073  0.000228918 -3.81609e-06      92.8271 
         -50      2.25656   0.00022804 -3.87817e-06      92.8268 
         -50      2.30283  0.000227077 -3.92515e-06      92.8265 
         -50       2.3496  0.000226056 -3.94495e-06      92.8262 
         -50      2.39685  0.000225006 -3.92552e-06      92.8259 
         -50      2.44452  0.000223957  -3.8556e-06      92.8255 
         -50      2.49271  0.000222938 -3.72486e-06      92.8252 
         -50      2.54132   0.00022198 -3.52485e-06      92.8248 
         -50      2.59044  0.000221108 -3.24855e-06      92.8244 
         -50         2.64  0.000220349 -2.89205e-06       92.824 
         -50      2.69006   0.00021972 -2.45313e-06      92.8236 
         -50      2.74056  0.000219238 -1.93377e-06      92.8232 
         -50      2.79156  0.000218912 -1.33754e-06      92.8228 
         -50      2.84304  0.000218745  -6.7243e-07      92.8223 
         -50      2.89494  0.000218732  5.02124e-08      92.8219 
         -50      2.94735  0.000218863  8.17838e-07      92.8214 
         -50       3.0002   0.00021912  1.61294e-06       92.821 
         -50      3.05355  0.000219478  2.41842e-06      92.8205 
         -50      3.10733  0.000219905  3.21348e-06        92.82 
         -50      3.16163  0.000220368  3.97957e-06      92.8195 
         -50      3.21639  0.000220826  4.69735e-06       92.819 
         -50      3.27158  0.000221241   5.3504e-06      92.8184 
         -50      3.32729  0.000221574  5.92864e-06      92.8179 
         -50      3.38342  0.000221795  6.42719e-06      92.8173 
         -50      3.44007   0.00022188  6.85296e-06      92.8167 
         -50      3.49714  0.000221823  7.22477e-06      92.8161 
         -50      3.55472   0.00022164  7.58007e-06      92.8155 
         -50      3.61273  0.000221374   7.9769e-06      92.8149 
         -50      3.67125  0.000221105  8.50151e-06      92.8143 
         -50      3.73025  0.000220964  9.27221e-06      92.8136 
         -50      3.78967  0.000220622  9.08365e-06       92.813 
         -50      3.84961  0.000220383  9.18585e-06      92.8123 
         -50      3.90996  0.000220295  1.00953e-05      92.8116 
         -50      3.97084  0.000220658  1.00751e-05      92.8109 
         -50      4.03214  0.000220905  9.94191e-06      92.8101 
         -50      4.09395  0.000220991  9.83789e-06      92.8094 
         -50      4.15624  0.000220946   9.7302e-06      92.8086 
         -50      4.21895  0.000220805  9.60812e-06      92.8078 
         -50      4.28217  0.000220599  9.47748e-06       92.807 
         -50      4.34582  0.000220355  9.35617e-06      92.8062 
         -50      4.40998    0.0002201  9.26842e-06      92.8054 
         -50      4.47457  0.000219853   9.2408e-06      92.8045 
         -50      4.53968  0.000219632  9.29764e-06      92.8036 
         -50      4.60525  0.000219445  9.45757e-06      92.8027 
         -50      4.67125  0.000219298  9.73021e-06      92.8018 
         -50      4.73777   0.00021919   1.0115e-05      92.8009 
         -50       4.8047  0.000219116  1.05985e-05      92.7999 
         -50      4.87216  0.000219063  1.11565e-05       92.799 
         -50      4.94003  0.000219018  1.17531e-05       92.798 
         -50      5.00843  0.000218964  1.23461e-05       92.797 
         -50      5.07724  0.000218885  1.28888e-05      92.7959 
         -50      5.14658  0.000218766  1.33399e-05      92.7949 
         -50      5.21639  0.000218597  1.36692e-05      92.7938 
         -50      5.28661  0.000218379  1.38707e-05      92.7927 
         -50      5.35736  0.000218124  1.39763e-05      92.7916 
         -50      5.42852  0.000217865  1.40721e-05      92.7905 
         -50      5.50021  0.000217658  1.43195e-05      92.7893 
         -50      5.57231  0.000217591  1.49778e-05      92.7881 
         -50      5.64493  0.000217793  1.64338e-05      92.7869 
         -50      5.71803  0.000217033   1.6145e-05      92.7857 
         -50      5.79154  0.000216548  1.62947e-05      92.7844 
         -50      5.86558   0.00021632  1.67147e-05      92.7832 
         -50      5.94003  0.000216313  1.73005e-05      92.7819 
         -50      6.01501  0.000216477  1.79876e-05      92.7805 
         -50       6.0904  0.000216754  1.87273e-05      92.7792 
         -50      6.16632  0.000217078  1.94757e-05      92.7778 
         -50      6.24271  0.000217386  2.01815e-05      92.7764 
         -50       6.3195  0.000217623  2.07875e-05       92.775 
         -50      6.39683  0.000217757  2.12407e-05      92.7735 
         -50      6.47457  0.000217783  2.15077e-05      92.7721 
         -50      6.55284  0.000217742  2.16075e-05      92.7706 
         -50      6.63152  0.000217736  2.16528e-05       92.769 
         -50      6.71073  0.000217943  2.19069e-05      92.7675 
         -50      6.79034  0.000218222  2.23957e-05      92.7659 
         -50      6.87049  0.000218234  2.27186e-05      92.7643 
         -50      6.95111  0.000218094  2.29697e-05      92.7626 
         -50      7.03214   0.00021786  2.32077e-05       92.761 
         -50       7.1137  0.000217585  2.34809e-05      92.7593 
         -50      7.19566   0.00021731   2.3825e-05      92.7576 
         -50      7.27816  0.000217067  2.42645e-05      92.7558 
         -50      7.36106  0.000216874  2.48092e-05       92.754 
         -50      7.44451  0.000216741   2.5456e-05      92.7522 
         -50      7.52842  0.000216663  2.61847e-05      92.7504 
         -50      7.61273  0.000216622  2.69571e-05      92.7485 
         -50      7.69758  0.000216591  2.77174e-05      92.7466 
         -50      7.78283  0.000216527  2.83857e-05      92.7447 
         -50      7.86862   0.00021638  2.88597e-05      92.7427 
         -50      7.95481  0.000216089  2.90084e-05      92.7407 
         -50      8.04155  0.000215583  2.86708e-05      92.7387 
         -50      8.12868   0.00021522  2.91402e-05      92.7366 
         -50      8.21635  0.000215059  2.95623e-05      92.7345 
         -50      8.30449  0.000215007   2.9755e-05      92.7324 
         -50      8.39303  0.000215034  2.98735e-05      92.7303 
         -50      8.48211  0.000215108  3.00084e-05      92.7281 
         -50      8.57159  0.000215193  3.01949e-05      92.7259 
         -50      8.66161  0.000215258   3.0426e-05      92.7236 
         -50      8.75203   0.00021528  3.06662e-05      92.7213 
         -50      8.84299  0.000215245  3.08707e-05       92.719 
         -50      8.93443  0.000215152  3.10045e-05      92.7167 
         -50      9.02626  0.000215017   3.1067e-05      92.7143 
         -50      9.11863  0.000214875  3.11194e-05      92.7118 
         -50      9.21139  0.000214781   3.1315e-05      92.7094 
         -50      9.30471  0.000214813  3.19352e-05      92.7069 
         -50      9.39841  0.000214511  3.21939e-05      92.7044 
         -50      9.49267   0.00021394  3.17788e-05      92.7018 
         -50      9.58739  0.000213568  3.16166e-05      92.6992 
         -50      9.68251  0.000213332  3.16496e-05      92.6965 
         -50      9.77817  0.000213178  3.18299e-05      92.6939 
         -50      9.87422  0.000213068  3.21173e-05      92.6911 
         -50      9.97083  0.000212972  3.24805e-05      92.6884 
         -50      10.0678  0.000212872   3.2894e-05      92.6856 
         -50      10.1654  0.000212755  3.33398e-05      92.6828 
         -50      10.2633  0.000212619  3.38041e-05      92.6799 
         -50      10.3618  0.000212463  3.42788e-05       92.677 
         -50      10.4607  0.000212293  3.47589e-05       92.674 
         -50      10.5601  0.000212118  3.52422e-05      92.6711 
         -50        10.66  0.000211947  3.57302e-05       92.668 
         -50      10.7603  0.000211791  3.62242e-05       92.665 
         -50      10.8611   0.00021166   3.6728e-05      92.6619 
         -50      10.9623  0.000211563  3.72441e-05      92.6587 
         -50      11.0641  0.000211507  3.77762e-05      92.6555 
         -50      11.1663  0.000211496  3.83255e-05      92.6523 
         -50       11.269  0.000211531   3.8892e-05       92.649 
         -50      11.3721  0.000211607  3.94748e-05      92.6457 
         -50      11.4757  0.000211717  4.00689e-05      92.6424 
         -50      11.5798   0.00021185  4.06684e-05       92.639 
         -50      11.6844  0.000211989  4.12629e-05      92.6355 
         -50      11.7894  0.000212115  4.18405e-05       92.632 
         -50       11.895  0.000212205  4.23853e-05      92.6285 
         -50      12.0009  0.000212234  4.28784e-05       92.625 
         -50      12.1073  0.000212175  4.32996e-05      92.6213 
         -50      12.2142  0.000212003   4.3625e-05      92.6177 
         -50      12.3216  0.000211694  4.38305e-05       92.614 
         -50      12.4294  0.000211228  4.38901e-05      92.6102 
         -50      12.5378  0.000210592  4.37784e-05      92.6065 
         -50      12.6465  0.000209959  4.35248e-05      92.6026 
         -50      12.7558   0.00020951  4.20434e-05      92.5987 
         -50      12.8656  0.000209936  4.44222e-05      92.5948 
         -50      12.9757   0.00021038  4.61421e-05      92.5908 
         -50      13.0864  0.000210354  4.69732e-05      92.5868 
         -50      13.1975  0.000210186  4.75012e-05      92.5828 
         -50      13.3092  0.000209917  4.78192e-05      92.5787 
         -50      13.4212  0.000209585  4.80022e-05      92.5745 
         -50      13.5338  0.000209221   4.8111e-05      92.5703 
         -50      13.6468  0.000208849  4.81918e-05      92.5661 
         -50      13.7603  0.000208491   4.8279e-05      92.5618 
         -50      13.8743  0.000208159  4.83963e-05      92.5574 
         -50      13.9886  0.000207865   4.8558e-05       92.553 
         -50      14.1036  0.000207613  4.87708e-05      92.5486 
         -50      14.2189  0.000207404  4.90346e-05      92.5441 
         -50      14.3348  0.000207233  4.93453e-05      92.5396 
         -50       14.451  0.000207096  4.96939e-05       92.535 
         -50      14.5678  0.000206982  5.00703e-05      92.5303 
         -50      14.6851   0.00020688  5.04624e-05      92.5256 
         -50      14.8028  0.000206776  5.08577e-05      92.5209 
         -50       14.921  0.000206657  5.12459e-05      92.5161 
         -50      15.0396  0.000206509   5.1617e-05      92.5113 
         -50      15.1588  0.000206318   5.1965e-05      92.5064 
         -50      15.2783  0.000206075  5.22859e-05      92.5015 
         -50      15.3984  0.000205771  5.25803e-05      92.4965 
         -50       15.519  0.000205403  5.28523e-05      92.4914 
         -50        15.64  0.000204973  5.31101e-05      92.4864 
         -50      15.7615  0.000204491  5.33666e-05      92.4812 
         -50      15.8834  0.000203973  5.36379e-05       92.476 
         -50      16.0058  0.000203447  5.39441e-05      92.4708 
         -50      16.1286  0.000202953  5.43071e-05      92.4655 
         -50       16.252  0.000202544  5.47517e-05      92.4601 
         -50      16.3759  0.000202288  5.53021e-05      92.4547 
         -50      16.5002  0.000202273  5.59809e-05      92.4493 
         -50       16.625  0.000202604  5.68094e-05      92.4438 
         -50      16.7501   0.00020274  5.72226e-05      92.4382 
         -50      16.8759  0.000202271   5.7147e-05      92.4326 
         -50       17.002  0.000201852  5.72401e-05       92.427 
         -50      17.1287  0.000201472  5.74546e-05      92.4213 
         -50      17.2557  0.000201122  5.77514e-05      92.4155 
         -50      17.3834  0.000200796  5.80995e-05      92.4097 
         -50      17.5115  0.000200488  5.84741e-05      92.4038 
         -50      17.6399  0.000200195  5.88566e-05      92.3979 
         -50       17.769  0.000199914  5.92347e-05      92.3919 
         -50      17.8984  0.000199645  5.95993e-05      92.3858 
         -50      18.0284  0.000199386  5.99467e-05      92.3797 
         -50      18.1587  0.000199138  6.02751e-05      92.3736 
         -50      18.2896  0.000198899  6.05862e-05      92.3674 
         -50       18.421  0.000198671  6.08827e-05      92.3611 
         -50      18.5528  0.000198453  6.11685e-05      92.3548 
         -50      18.6851  0.000198243  6.14486e-05      92.3485 
         -50      18.8178  0.000198042  6.17266e-05       92.342 
         -50      18.9511  0.000197847  6.20065e-05      92.3356 
         -50      19.0847  0.000197655  6.22895e-05       92.329 
         -50      19.2189  0.000197463  6.25761e-05      92.3224 
         -50      19.3535  0.000197266  6.28632e-05      92.3158 
         -50      19.4886  0.000197057  6.31455e-05      92.3091 
         -50      19.6242   0.00019683  6.34138e-05      92.3023 
         -50      19.7602  0.000196577  6.36549e-05      92.2955 
         -50      19.8968  0.000196288  6.38521e-05      92.2887 
         -50      20.0337  0.000195953  6.39838e-05      92.2818 
         -50      20.1712  0.000195559   6.4024e-05      92.2748 
         -50      20.3091   0.00019514  6.40915e-05      92.2677 
         -50      20.4475  0.000194773   6.4404e-05      92.2606 
         -50      20.5864  0.000194303  6.45094e-05      92.2535 
         -50      20.7257  0.000193741  6.46042e-05      92.2463 
         -50      20.8655  0.000193094  6.49175e-05       92.239 
         -50      21.0058  0.000192371  6.57109e-05      92.2317 
         -50      21.1465  0.000191584  6.72799e-05      92.2243 
         -50      21.2877   0.00019013  6.65129e-05      92.2169 
         -50      21.4294  0.000189112  6.38113e-05      92.2094 
         -50      21.5716  0.000189278  6.34372e-05      92.2019 
         -50      21.7142  0.000190023  6.46394e-05      92.1943 
         -50      21.8573  0.000190823  6.67531e-05      92.1866 
         -50      22.0008  0.000191031  6.84701e-05      92.1789 
         -50      22.1449  0.000190548  6.84641e-05      92.1712 
         -50      22.2893  0.000190014  6.82729e-05      92.1633 
         -50      22.4344  0.000189459  6.80046e-05      92.1554 
         -50      22.5797  0.000188911  6.77465e-05      92.1475 
         -50      22.7257  0.000188392  6.75635e-05      92.1395 
         -50      22.8721  0.000187916  6.75007e-05      92.1315 
         -50      23.0189   0.00018749  6.75829e-05      92.1233 
         -50      23.1663  0.000187115  6.78168e-05      92.1152 
         -50       23.314  0.000186784  6.81921e-05       92.107 
         -50      23.4623  0.000186486   6.8685e-05      92.0987 
         -50       23.611  0.000186203  6.92592e-05      92.0903 
         -50      23.7602  0.000185916  6.98718e-05      92.0819 
         -50        23.91  0.000185601  7.04743e-05      92.0735 
         -50        24.06  0.000185237  7.10187e-05       92.065 
         -50      24.2107  0.000184805  7.14633e-05      92.0564 
         -50      24.3617  0.000184294  7.17761e-05      92.0478 
         -50      24.5133  0.000183699  7.19439e-05      92.0391 
         -50      24.6653  0.000183035  7.19771e-05      92.0304 
         -50      24.8178  0.000182329  7.19188e-05      92.0216 
         -50      24.9708  0.000181637  7.18533e-05      92.0127 
         -50      25.1242  0.000181043  7.19154e-05      92.0038 
         -50      25.2781  0.000180668  7.23007e-05      91.9949 
         -50      25.4324  0.000180676   7.3276e-05      91.9859 
         -50      25.5873   0.00018084  7.30062e-05      91.9768 
         -50      25.7426  0.000180821  7.31641e-05      91.9677 
         -50      25.8984  0.000180631  7.36782e-05      91.9585 
         -50      26.0546  0.000180294   7.4326e-05      91.9492 
         -50      26.2114  0.000179837  7.49332e-05      91.9399 
         -50      26.3686  0.000179292  7.53792e-05      91.9306 
         -50      26.5262  0.000178683  7.56036e-05      91.9212 
         -50      26.6844   0.00017803  7.56076e-05      91.9117 
         -50      26.8429  0.000177346  7.54491e-05      91.9022 
         -50       27.002  0.000176643  7.52356e-05      91.8926 
         -50      27.1615  0.000175937  7.51121e-05       91.883 
         -50      27.3216  0.000175253  7.52423e-05      91.8733 
         -50      27.4821  0.000174645   7.5787e-05      91.8636 
         -50       27.643  0.000174503  7.58822e-05      91.8538 
         -50      27.8044  0.000174419  7.55833e-05      91.8439 
         -50      27.9663  0.000174193  7.53705e-05       91.834 
         -50      28.1287  0.000173864  7.52479e-05      91.8241 
         -50      28.2914  0.000173468  7.52165e-05      91.8141 
         -50      28.4548   0.00017303  7.52735e-05       91.804 
         -50      28.6185  0.000172574  7.54136e-05      91.7939 
         -50      28.7828  0.000172113  7.56294e-05      91.7837 
         -50      28.9475  0.000171661  7.59114e-05      91.7735 
         -50      29.1126  0.000171226  7.62486e-05      91.7632 
         -50      29.2784  0.000170809  7.66298e-05      91.7529 
         -50      29.4444  0.000170414  7.70423e-05      91.7425 
         -50       29.611  0.000170038  7.74745e-05       91.732 
         -50       29.778  0.000169678  7.79139e-05      91.7216 
         -50      29.9456  0.000169329  7.83496e-05       91.711 
         -50      30.1137  0.000168985  7.87709e-05      91.7004 
         -50      30.2821   0.00016864   7.9168e-05      91.6898 
         -50      30.4511  0.000168286  7.95336e-05      91.6791 
         -50      30.6204  0.000167919  7.98606e-05      91.6683 
         -50      30.7903   0.00016753   8.0145e-05      91.6575 
         -50      30.9606  0.000167117  8.03834e-05      91.6467 
         -50      31.1315  0.000166674   8.0575e-05      91.6357 
         -50      31.3028  0.000166198  8.07206e-05      91.6248 
         -50      31.4745   0.00016569  8.08226e-05      91.6138 
         -50      31.6468  0.000165147  8.08857e-05      91.6027 
         -50      31.8194  0.000164574  8.09156e-05      91.5916 
         -50      31.9926  0.000163972  8.09195e-05      91.5805 
         -50      32.1662  0.000163347  8.09058e-05      91.5693 
         -50      32.3404  0.000162706  8.08833e-05       91.558 
         -50      32.5149  0.000162056  8.08611e-05      91.5467 
         -50        32.69  0.000161405   8.0848e-05      91.5354 
         -50      32.8655  0.000160764  8.08519e-05      91.5239 
         -50      33.0414  0.000160142  8.08793e-05      91.5125 
         -50       33.218  0.000159549  8.09341e-05       91.501 
         -50      33.3948  0.000158993  8.10172e-05      91.4895 
         -50      33.5723  0.000158482  8.11253e-05      91.4779 
         -50        33.75  0.000158021  8.12498e-05      91.4662 
         -50      33.9284  0.000157612   8.1376e-05      91.4545 
         -50      34.1073  0.000157253  8.14813e-05      91.4428 
         -50      34.2865  0.000156939  8.15343e-05       91.431 
         -50      34.4663  0.000156656  8.14931e-05      91.4192 
         -50      34.6465  0.000156384  8.13036e-05      91.4073 
         -50      34.8272  0.000156093  8.08977e-05      91.3954 
         -50      35.0083  0.000155611  8.05476e-05      91.3834 
         -50        35.19  0.000155358   8.0586e-05      91.3714 
         -50      35.3721  0.000155626  8.09326e-05      91.3594 
         -50      35.5546  0.000156183   8.1515e-05      91.3473 
         -50      35.7377  0.000155211  8.15667e-05      91.3351 
         -50      35.9211  0.000154159  8.16854e-05       91.323 
         -50      36.1052  0.000153041  8.18609e-05      91.3107 
         -50      36.2895  0.000151872  8.20824e-05      91.2985 
         -50      36.4745  0.000150661  8.23395e-05      91.2861 
         -50      36.6598   0.00014942  8.26209e-05      91.2738 
         -50      36.8457  0.000148209  8.29158e-05      91.2614 
         -50      37.0321   0.00014799  8.31657e-05      91.2489 
         -50      37.2188  0.000147855  8.33298e-05      91.2365 
         -50      37.4062  0.000147773  8.34315e-05      91.2239 
         -50      37.5938  0.000147719    8.349e-05      91.2114 
         -50      37.7821  0.000147671  8.35211e-05      91.1988 
         -50      37.9707  0.000147611  8.35372e-05      91.1861 
         -50      38.1599  0.000147524  8.35483e-05      91.1734 
         -50      38.3496  0.000147398  8.35616e-05      91.1607 
         -50      38.5396  0.000147225  8.35821e-05       91.148 
         -50      38.7302  0.000146999  8.36133e-05      91.1352 
         -50      38.9211  0.000146717  8.36569e-05      91.1223 
         -50      39.1127  0.000146378  8.37136e-05      91.1094 
         -50      39.3046  0.000145983  8.37826e-05      91.0965 
         -50      39.4971  0.000145536  8.38631e-05      91.0836 
         -50      39.6899  0.000145043  8.39531e-05      91.0706 
         -50      39.8833  0.000144508  8.40506e-05      91.0575 
         -50      40.0772  0.000143941  8.41534e-05      91.0445 
         -50      40.2714  0.000143349   8.4259e-05      91.0314 
         -50      40.4663  0.000142743  8.43653e-05      91.0182 
         -50      40.6615   0.00014213  8.44701e-05      91.0051 
         -50      40.8573  0.000141522  8.45715e-05      90.9919 
         -50      41.0534  0.000140926  8.46676e-05      90.9786 
         -50      41.2501   0.00014035   8.4757e-05      90.9654 
         -50      41.4473  0.000139803  8.48381e-05      90.9521 
         -50      41.6448  0.000139289  8.49093e-05      90.9387 
         -50      41.8429  0.000138813  8.49691e-05      90.9253 
         -50      42.0414  0.000138376  8.50153e-05      90.9119 
         -50      42.2405  0.000137977  8.50454e-05      90.8985 
         -50      42.4399  0.000137612   8.5056e-05       90.885 
         -50      42.6399  0.000137272  8.50423e-05      90.8715 
         -50      42.8404  0.000136946  8.49981e-05       90.858 
         -50      43.0412  0.000136619  8.49152e-05      90.8444 
         -50      43.2426  0.000136268  8.47827e-05      90.8308 
         -50      43.4444  0.000135867  8.45869e-05      90.8172 
         -50      43.6467  0.000135382    8.431e-05      90.8036 
         -50      43.8494  0.000134776  8.39305e-05      90.7899 
         -50      44.0527  0.000134001  8.34207e-05      90.7762 
         -50      44.2563  0.000133023  8.27686e-05      90.7625 
         -50      44.4606   0.00013274  8.28793e-05      90.7487 
         -50      44.6653  0.000132383  8.29577e-05      90.7349 
         -50      44.8704  0.000131974  8.30113e-05      90.7211 
         -50       45.076  0.000131529  8.30449e-05      90.7072 
         -50       45.282  0.000131061  8.30613e-05      90.6934 
         -50      45.4886  0.000130579   8.3062e-05      90.6795 
         -50      45.6955  0.000130093  8.30484e-05      90.6655 
         -50       45.903  0.000129611  8.30221e-05      90.6516 
         -50      46.1111  0.000129139  8.29858e-05      90.6376 
         -50      46.3194  0.000128689  8.29442e-05      90.6236 
         -50      46.5283  0.000128271  8.29046e-05      90.6096 
         -50      46.7376  0.000127902  8.28778e-05      90.5956 
         -50      46.9475  0.000127604   8.2879e-05      90.5815 
         -50      47.1577  0.000127404  8.29282e-05      90.5674 
         -50      47.3685  0.000126993   8.2995e-05      90.5533 
         -50      47.5798  0.000126135  8.29552e-05      90.5391 
         -50      47.7914  0.000125393  8.28675e-05       90.525 
         -50      48.0037  0.000124747  8.27444e-05      90.5108 