Variables = x, y, u, v, p

Zone, I=800, F=POINT
          -5            0            0            0      102.816 
          -5     0.000234  1.95741e-05 -1.13279e-09      102.816 
          -5     0.000939  7.37806e-05 -4.42398e-09      102.816 
          -5     0.002113  0.000149461 -9.52392e-09      102.816 
          -5     0.003759  0.000229098 -1.59546e-08      102.816 
          -5     0.005872  0.000295019 -2.31532e-08      102.816 
          -5     0.008457    0.0003351 -3.06397e-08      102.816 
          -5      0.01151  0.000345586 -3.80261e-08      102.816 
          -5     0.015036  0.000332314 -4.50991e-08      102.816 
          -5     0.019031  0.000308332  -5.1744e-08      102.816 
          -5     0.023493  0.000288847 -5.78818e-08      102.816 
          -5     0.028429  0.000284761 -6.33432e-08      102.816 
          -5     0.033831  0.000297399 -6.77107e-08      102.816 
          -5     0.039706  0.000317101 -7.02786e-08      102.816 
          -5     0.046047  0.000328097 -7.00704e-08      102.816 
          -5     0.052863  0.000319888 -6.60371e-08      102.816 
          -5      0.06015  0.000300344 -5.73837e-08      102.816 
          -5       0.0679  0.000297811 -4.39423e-08      102.816 
          -5     0.076126  0.000326075 -2.62238e-08      102.816 
          -5     0.084816  0.000299813 -4.68869e-09      102.816 
          -5     0.093982  0.000308874  2.63497e-08      102.816 
          -5     0.103611   0.00031096   6.6209e-08      102.816 
          -5     0.113718  0.000309607  1.11981e-07      102.816 
          -5     0.124286  0.000307346  1.62787e-07      102.816 
          -5     0.135333  0.000305595  2.19757e-07      102.816 
          -5      0.14685  0.000304736  2.84983e-07      102.816 
          -5     0.158827  0.000304384   3.6053e-07      102.816 
          -5     0.171284  0.000303814  4.47446e-07      102.816 
          -5     0.184201  0.000302474    5.444e-07      102.816 
          -5     0.197599  0.000300422  6.48266e-07      102.816 
          -5     0.211455  0.000298454  7.55368e-07      102.816 
          -5     0.225792  0.000297552  8.67203e-07      102.816 
          -5       0.2406  0.000297196  9.99761e-07      102.816 
          -5     0.255865  0.000294675   1.1683e-06      102.816 
          -5     0.271613  0.000293303  1.32386e-06      102.816 
          -5     0.287818   0.00029196   1.4735e-06      102.816 
          -5     0.304506  0.000290631  1.62244e-06      102.816 
          -5      0.32165  0.000289307  1.77679e-06      102.816 
          -5     0.339278  0.000287994  1.93701e-06      102.816 
          -5     0.357377  0.000286702  2.10308e-06      102.816 
          -5      0.37593  0.000285437  2.27485e-06      102.816 
          -5     0.394968  0.000284207  2.45249e-06      102.816 
          -5     0.414461  0.000283019  2.63546e-06      102.816 
          -5      0.43444  0.000281878  2.82369e-06      102.816 
          -5     0.454872   0.00028079  3.01636e-06      102.816 
          -5     0.475791   0.00027976  3.21319e-06      102.816 
          -5     0.497163  0.000278792  3.41314e-06      102.816 
          -5     0.519021  0.000277888  3.61571e-06      102.816 
          -5      0.54135  0.000277052  3.81991e-06      102.816 
          -5     0.564131  0.000276283  4.02465e-06      102.816 
          -5       0.5874  0.000275583  4.22936e-06      102.816 
          -5     0.611121   0.00027495  4.43283e-06      102.816 
          -5      0.63533  0.000274383  4.63456e-06      102.816 
          -5      0.65999   0.00027388   4.8335e-06      102.816 
          -5     0.685139  0.000273438  5.02937e-06      102.816 
          -5     0.710759  0.000273054  5.22158e-06      102.816 
          -5     0.736828  0.000272723  5.40973e-06      102.816 
          -5     0.763387  0.000272442  5.59404e-06      102.816 
          -5     0.790396  0.000272208  5.77437e-06      102.816 
          -5     0.817896  0.000272015  5.95127e-06      102.816 
          -5     0.845843  0.000271863  6.12486e-06      102.816 
          -5     0.874283  0.000271747  6.29584e-06      102.816 
          -5      0.90317  0.000271666  6.46428e-06      102.816 
          -5     0.932551  0.000271619   6.6305e-06      102.816 
          -5     0.962401  0.000271607  6.79388e-06      102.816 
          -5     0.992697   0.00027163  6.95302e-06      102.816 
          -5      1.02349  0.000271692  7.10567e-06      102.817 
          -5      1.05472  0.000271793  7.24738e-06      102.817 
          -5      1.08645  0.000271939  7.37182e-06      102.817 
          -5      1.11863  0.000272132  7.46919e-06      102.817 
          -5       1.1513  0.000272363  7.55013e-06      102.817 
          -5      1.18444  0.000272606  7.69261e-06      102.817 
          -5      1.21802   0.00027291  7.80311e-06      102.817 
          -5      1.25211  0.000273275  7.89036e-06      102.817 
          -5      1.28663  0.000273701  7.96089e-06      102.817 
          -5      1.32165  0.000274186  8.01981e-06      102.817 
          -5      1.35712  0.000274725  8.07039e-06      102.817 
          -5      1.39308  0.000275316  8.11469e-06      102.817 
          -5      1.42951  0.000275955  8.15343e-06      102.817 
          -5      1.46638  0.000276637  8.18635e-06      102.817 
          -5      1.50375   0.00027736  8.21251e-06      102.817 
          -5      1.54156   0.00027812   8.2303e-06      102.817 
          -5      1.57987  0.000278915  8.23789e-06      102.817 
          -5      1.61863  0.000279745  8.23324e-06      102.818 
          -5      1.65788   0.00028061  8.21438e-06      102.818 
          -5      1.69757  0.000281512  8.17949e-06      102.818 
          -5      1.73776  0.000282453  8.12686e-06      102.818 
          -5      1.77842  0.000283437    8.055e-06      102.818 
          -5      1.81952  0.000284476    7.986e-06      102.818 
          -5      1.86113  0.000285561  7.90743e-06      102.818 
          -5      1.90316  0.000286695  7.82026e-06      102.818 
          -5      1.94571  0.000287884  7.72562e-06      102.818 
          -5      1.98869  0.000289128  7.62098e-06      102.818 
          -5      2.03217  0.000290426  7.49723e-06      102.819 
          -5      2.07612   0.00029177  7.33635e-06      102.819 
          -5      2.12051  0.000293096  7.19272e-06      102.819 
          -5       2.1654   0.00029436  7.05572e-06      102.819 
          -5      2.21073  0.000295573  6.87326e-06      102.819 
          -5      2.25656  0.000296717  6.65703e-06      102.819 
          -5      2.30283  0.000297768  6.40943e-06      102.819 
          -5       2.3496  0.000298706  6.12489e-06      102.819 
          -5      2.39685  0.000299501  5.83344e-06      102.819 
          -5      2.44452  0.000300118  5.54216e-06       102.82 
          -5      2.49271  0.000300552  5.21699e-06       102.82 
          -5      2.54132  0.000300793  4.85838e-06       102.82 
          -5      2.59044  0.000300838  4.46876e-06       102.82 
          -5         2.64  0.000300689  4.05403e-06       102.82 
          -5      2.69006  0.000300351  3.62034e-06       102.82 
          -5      2.74056  0.000299835  3.17591e-06       102.82 
          -5      2.79156  0.000299156  2.72769e-06      102.821 
          -5      2.84304  0.000298335  2.28309e-06      102.821 
          -5      2.89494  0.000297396  1.84844e-06      102.821 
          -5      2.94735  0.000296369  1.42753e-06      102.821 
          -5       3.0002  0.000295286  1.02377e-06      102.821 
          -5      3.05355  0.000294182  6.37461e-07      102.821 
          -5      3.10733  0.000293097  2.68537e-07      102.821 
          -5      3.16163   0.00029207 -8.54158e-08      102.822 
          -5      3.21639  0.000291142  -4.2629e-07      102.822 
          -5      3.27158  0.000290352  -7.5523e-07      102.822 
          -5      3.32729  0.000289738 -1.07177e-06      102.822 
          -5      3.38342  0.000289319 -1.33926e-06      102.822 
          -5      3.44007   0.00028913 -1.52461e-06      102.822 
          -5      3.49714  0.000289091 -1.69142e-06      102.823 
          -5      3.55472  0.000289086 -1.86759e-06      102.823 
          -5      3.61273  0.000289027 -2.07363e-06      102.823 
          -5      3.67125  0.000288866 -2.31777e-06      102.823 
          -5      3.73025    0.0002886 -2.58861e-06      102.823 
          -5      3.78967  0.000288282  -2.8492e-06      102.823 
          -5      3.84961  0.000288026 -3.03146e-06      102.823 
          -5      3.90996  0.000288022 -3.02864e-06      102.824 
          -5      3.97084  0.000287837 -3.41009e-06      102.824 
          -5      4.03214  0.000287724 -3.63091e-06      102.824 
          -5      4.09395  0.000287657 -3.78928e-06      102.824 
          -5      4.15624  0.000287612 -3.95229e-06      102.824 
          -5      4.21895  0.000287577 -4.15369e-06      102.824 
          -5      4.28217  0.000287547 -4.40272e-06      102.825 
          -5      4.34582  0.000287524 -4.69092e-06      102.825 
          -5      4.40998  0.000287512 -5.00093e-06      102.825 
          -5      4.47457  0.000287514 -5.31124e-06      102.825 
          -5      4.53968  0.000287533 -5.60342e-06      102.825 
          -5      4.60525  0.000287568 -5.86448e-06      102.825 
          -5      4.67125  0.000287616 -6.09026e-06      102.826 
          -5      4.73777  0.000287668 -6.28642e-06      102.826 
          -5       4.8047  0.000287713 -6.46575e-06      102.826 
          -5      4.87216  0.000287735 -6.64538e-06      102.826 
          -5      4.94003  0.000287721 -6.83875e-06      102.826 
          -5      5.00843  0.000287656 -7.04667e-06      102.826 
          -5      5.07724  0.000287537 -7.24236e-06      102.827 
          -5      5.14658   0.00028737 -7.35492e-06      102.827 
          -5      5.21639  0.000287181 -7.33295e-06      102.827 
          -5      5.28661  0.000286943 -7.08027e-06      102.827 
          -5      5.35736  0.000286815 -7.16599e-06      102.827 
          -5      5.42852  0.000286673 -7.26964e-06      102.827 
          -5      5.50021  0.000286614 -7.30651e-06      102.827 
          -5      5.57231  0.000286574 -7.28995e-06      102.827 
          -5      5.64493  0.000286539 -7.26881e-06      102.828 
          -5      5.71803    0.0002865 -7.27149e-06      102.828 
          -5      5.79154  0.000286457 -7.31052e-06      102.828 
          -5      5.86558  0.000286412 -7.38702e-06      102.828 
          -5      5.94003  0.000286369 -7.49454e-06      102.828 
          -5      6.01501  0.000286333 -7.62303e-06      102.828 
          -5       6.0904  0.000286308  -7.7613e-06      102.828 
          -5      6.16632  0.000286298 -7.90023e-06      102.828 
          -5      6.24271    0.0002863 -8.03371e-06      102.828 
          -5       6.3195  0.000286313 -8.15978e-06      102.828 
          -5      6.39683   0.00028633 -8.28082e-06      102.829 
          -5      6.47457  0.000286345 -8.40152e-06      102.829 
          -5      6.55284  0.000286347 -8.52717e-06      102.829 
          -5      6.63152   0.00028633  -8.6589e-06      102.829 
          -5      6.71073  0.000286289 -8.78898e-06      102.829 
          -5      6.79034  0.000286229 -8.89277e-06      102.829 
          -5      6.87049  0.000286163 -8.92027e-06      102.829 
          -5      6.95111  0.000286123 -8.78417e-06      102.829 
          -5      7.03214  0.000286158 -8.39253e-06      102.829 
          -5       7.1137  0.000286107 -8.77192e-06      102.829 
          -5      7.19566  0.000285952 -8.85792e-06      102.829 
          -5      7.27816  0.000285725 -8.77724e-06      102.829 
          -5      7.36106  0.000285455 -8.61183e-06      102.829 
          -5      7.44451  0.000285172 -8.40856e-06      102.829 
          -5      7.52842  0.000284903 -8.18908e-06      102.829 
          -5      7.61273  0.000284668 -7.95811e-06      102.829 
          -5      7.69758  0.000284485 -7.71038e-06      102.829 
          -5      7.78283  0.000284359 -7.43856e-06      102.829 
          -5      7.86862  0.000284293 -7.13699e-06      102.829 
          -5      7.95481  0.000284277 -6.80733e-06      102.829 
          -5      8.04155  0.000284296 -6.45893e-06      102.829 
          -5      8.12868  0.000284331 -6.11138e-06      102.829 
          -5      8.21635  0.000284356 -5.79068e-06      102.828 
          -5      8.30449  0.000284345 -5.52734e-06      102.828 
          -5      8.39303  0.000284274  -5.3489e-06      102.828 
          -5      8.48211  0.000284127 -5.27038e-06      102.828 
          -5      8.57159  0.000284015 -5.19101e-06      102.828 
          -5      8.66161  0.000284005 -5.05761e-06      102.828 
          -5      8.75203  0.000284029 -4.86779e-06      102.828 
          -5      8.84299  0.000284091 -4.58457e-06      102.828 
          -5      8.93443  0.000284183 -4.25133e-06      102.827 
          -5      9.02626  0.000284284 -4.02072e-06      102.827 
          -5      9.11863   0.00028436 -3.79689e-06      102.827 
          -5      9.21139  0.000284333 -3.75872e-06      102.827 
          -5      9.30471  0.000284252 -3.84916e-06      102.827 
          -5      9.39841  0.000284167 -3.90395e-06      102.826 
          -5      9.49267  0.000284112 -3.84527e-06      102.826 
          -5      9.58739  0.000284106 -3.66144e-06      102.826 
          -5      9.68251  0.000284108 -3.41261e-06      102.826 
          -5      9.77817   0.00028391 -3.30461e-06      102.825 
          -5      9.87422  0.000283816   -3.217e-06      102.825 
          -5      9.97083  0.000283793  -3.1337e-06      102.825 
          -5      10.0678   0.00028381 -3.03754e-06      102.825 
          -5      10.1654   0.00028384 -2.91473e-06      102.824 
          -5      10.2633  0.000283861   -2.759e-06      102.824 
          -5      10.3618  0.000283862 -2.57235e-06      102.824 
          -5      10.4607  0.000283834 -2.36554e-06      102.823 
          -5      10.5601  0.000283779 -2.15499e-06      102.823 
          -5        10.66    0.0002837 -1.95718e-06      102.822 
          -5      10.7603  0.000283603 -1.78184e-06      102.822 
          -5      10.8611  0.000283489 -1.62001e-06      102.822 
          -5      10.9623   0.00028335 -1.43115e-06      102.821 
          -5      11.0641  0.000283159 -1.12448e-06      102.821 
          -5      11.1663  0.000282861 -5.38689e-07       102.82 
          -5       11.269  0.000282667   5.4359e-08       102.82 
          -5      11.3721  0.000282894  -1.4289e-07      102.819 
          -5      11.4757  0.000282926 -1.54651e-07      102.819 
          -5      11.5798  0.000282836 -2.75843e-08      102.818 
          -5      11.6844   0.00028268  1.98049e-07      102.818 
          -5      11.7894  0.000282498  4.88701e-07      102.817 
          -5       11.895  0.000282319  8.16217e-07      102.817 
          -5      12.0009  0.000282163  1.15806e-06      102.816 
          -5      12.1073   0.00028204  1.49816e-06      102.816 
          -5      12.2142  0.000281953  1.82502e-06      102.815 
          -5      12.3216  0.000281899  2.13401e-06      102.814 
          -5      12.4294  0.000281872  2.42552e-06      102.814 
          -5      12.5378  0.000281862  2.70736e-06      102.813 
          -5      12.6465  0.000281857  2.99344e-06      102.813 
          -5      12.7558  0.000281844  3.30632e-06      102.812 
          -5      12.8656   0.00028173  3.60878e-06      102.811 
          -5      12.9757  0.000281627  3.97701e-06      102.811 
          -5      13.0864  0.000281565  4.38496e-06       102.81 
          -5      13.1975   0.00028155  4.80999e-06      102.809 
          -5      13.3092  0.000281585  5.24292e-06      102.808 
          -5      13.4212  0.000281659   5.6833e-06      102.808 
          -5      13.5338  0.000281758  6.13891e-06      102.807 
          -5      13.6468  0.000281859  6.61873e-06      102.806 
          -5      13.7603  0.000281936  7.12801e-06      102.805 
          -5      13.8743   0.00028196  7.66216e-06      102.804 
          -5      13.9886  0.000281901  8.19485e-06      102.804 
          -5      14.1036  0.000281736  8.67067e-06      102.803 
          -5      14.2189  0.000281441  9.07839e-06      102.802 
          -5      14.3348  0.000281216  9.52233e-06      102.801 
          -5       14.451  0.000281102  9.94336e-06        102.8 
          -5      14.5678  0.000281043  1.03546e-05      102.799 
          -5      14.6851  0.000281002  1.07616e-05      102.798 
          -5      14.8028  0.000280951  1.11653e-05      102.797 
          -5       14.921  0.000280878   1.1564e-05      102.796 
          -5      15.0396  0.000280777  1.19529e-05      102.795 
          -5      15.1588  0.000280652   1.2328e-05      102.794 
          -5      15.2783  0.000280507  1.26845e-05      102.793 
          -5      15.3984  0.000280351  1.30209e-05      102.792 
          -5       15.519  0.000280193  1.33372e-05      102.791 
          -5        15.64  0.000280037  1.36372e-05       102.79 
          -5      15.7615  0.000279888  1.39297e-05      102.789 
          -5      15.8834  0.000279744  1.42271e-05      102.788 
          -5      16.0058  0.000279596  1.45477e-05      102.787 
          -5      16.1286  0.000279661  1.48313e-05      102.785 
          -5       16.252  0.000279795  1.50765e-05      102.784 
          -5      16.3759  0.000279843  1.53238e-05      102.783 
          -5      16.5002  0.000279808  1.55763e-05      102.782 
          -5       16.625  0.000279699  1.58397e-05      102.781 
          -5      16.7501  0.000279529    1.612e-05      102.779 
          -5      16.8759  0.000279313  1.64236e-05      102.778 
          -5       17.002  0.000279075  1.67552e-05      102.777 
          -5      17.1287  0.000278836  1.71172e-05      102.775 
          -5      17.2557   0.00027862  1.75066e-05      102.774 
          -5      17.3834  0.000278448  1.79149e-05      102.773 
          -5      17.5115  0.000278341  1.83235e-05      102.771 
          -5      17.6399  0.000278309  1.87023e-05       102.77 
          -5       17.769  0.000278357  1.90075e-05      102.769 
          -5      17.8984    0.0002785  1.91737e-05      102.767 
          -5      18.0284  0.000278539  1.93287e-05      102.766 
          -5      18.1587  0.000278497  1.95036e-05      102.764 
          -5      18.2896  0.000278402  1.97147e-05      102.763 
          -5       18.421   0.00027827  1.99708e-05      102.761 
          -5      18.5528  0.000278114  2.02749e-05       102.76 
          -5      18.6851  0.000277941  2.06253e-05      102.758 
          -5      18.8178  0.000277757  2.10154e-05      102.757 
          -5      18.9511  0.000277565  2.14359e-05      102.755 
          -5      19.0847  0.000277373  2.18737e-05      102.753 
          -5      19.2189  0.000277328  2.21515e-05      102.752 
          -5      19.3535  0.000277442  2.21977e-05       102.75 
          -5      19.4886  0.000277456  2.23279e-05      102.748 
          -5      19.6242  0.000277402  2.25329e-05      102.747 
          -5      19.7602  0.000277309  2.27955e-05      102.745 
          -5      19.8968  0.000277197  2.30939e-05      102.743 
          -5      20.0337  0.000277082  2.34023e-05      102.742 
          -5      20.1712  0.000276974  2.36952e-05       102.74 
          -5      20.3091  0.000276876  2.39482e-05      102.738 
          -5      20.4475  0.000276786   2.4143e-05      102.736 
          -5      20.5864  0.000276696  2.42688e-05      102.734 
          -5      20.7257  0.000276598  2.43266e-05      102.732 
          -5      20.8655  0.000276481  2.43327e-05      102.731 
          -5      21.0058  0.000276335  2.43227e-05      102.729 
          -5      21.1465  0.000276154  2.43555e-05      102.727 
          -5      21.2877  0.000275943  2.45177e-05      102.725 
          -5      21.4294  0.000275715  2.49291e-05      102.723 
          -5      21.5716    0.0002755  2.57468e-05      102.721 
          -5      21.7142  0.000275458  2.59159e-05      102.719 
          -5      21.8573  0.000275436  2.59127e-05      102.717 
          -5      22.0008  0.000275379  2.59803e-05      102.715 
          -5      22.1449  0.000275276  2.61131e-05      102.713 
          -5      22.2893  0.000275129  2.63053e-05      102.711 
          -5      22.4344  0.000274944  2.65496e-05      102.708 
          -5      22.5797  0.000274733  2.68353e-05      102.706 
          -5      22.7257   0.00027451  2.71482e-05      102.704 
          -5      22.8721   0.00027429  2.74685e-05      102.702 
          -5      23.0189  0.000274084   2.7771e-05        102.7 
          -5      23.1663  0.000273903  2.80249e-05      102.697 
          -5       23.314  0.000273751  2.81931e-05      102.695 
          -5      23.4623  0.000273642  2.82672e-05      102.693 
          -5       23.611  0.000273594  2.84774e-05      102.691 
          -5      23.7602  0.000273525  2.87598e-05      102.688 
          -5        23.91  0.000273434  2.90935e-05      102.686 
          -5        24.06  0.000273321  2.94569e-05      102.684 
          -5      24.2107  0.000273191  2.98306e-05      102.681 
          -5      24.3617  0.000273048  3.01955e-05      102.679 
          -5      24.5133  0.000272899   3.0537e-05      102.676 
          -5      24.6653  0.000272752  3.08431e-05      102.674 
          -5      24.8178  0.000272613  3.11082e-05      102.671 
          -5      24.9708  0.000272486  3.13324e-05      102.669 
          -5      25.1242  0.000272375  3.15232e-05      102.666 
          -5      25.2781  0.000272276  3.16973e-05      102.664 
          -5      25.4324   0.00027218  3.18808e-05      102.661 
          -5      25.5873   0.00027207  3.21115e-05      102.659 
          -5      25.7426  0.000271915  3.24389e-05      102.656 
          -5      25.8984  0.000271672  3.29273e-05      102.653 
          -5      26.0546  0.000271282  3.36544e-05      102.651 
          -5      26.2114   0.00027104  3.40588e-05      102.648 
          -5      26.3686   0.00027098  3.41104e-05      102.645 
          -5      26.5262  0.000270902  3.41819e-05      102.642 
          -5      26.6844    0.0002708  3.42869e-05       102.64 
          -5      26.8429  0.000270675  3.44329e-05      102.637 
          -5       27.002  0.000270527  3.46228e-05      102.634 
          -5      27.1615   0.00027036  3.48549e-05      102.631 
          -5      27.3216  0.000270178  3.51249e-05      102.628 
          -5      27.4821  0.000269985  3.54254e-05      102.625 
          -5       27.643  0.000269786   3.5747e-05      102.623 
          -5      27.8044  0.000269584  3.60802e-05       102.62 
          -5      27.9663  0.000269383  3.64143e-05      102.617 
          -5      28.1287  0.000269184  3.67397e-05      102.614 
          -5      28.2914  0.000268988  3.70471e-05      102.611 
          -5      28.4548  0.000268796  3.73296e-05      102.608 
          -5      28.6185  0.000268607  3.75816e-05      102.605 
          -5      28.7828   0.00026842  3.78013e-05      102.601 
          -5      28.9475  0.000268232  3.79891e-05      102.598 
          -5      29.1126  0.000268042  3.81496e-05      102.595 
          -5      29.2784   0.00026785  3.82913e-05      102.592 
          -5      29.4444  0.000267658  3.84268e-05      102.589 
          -5       29.611  0.000267468  3.85737e-05      102.586 
          -5       29.778  0.000267289  3.87536e-05      102.582 
          -5      29.9456  0.000267134  3.89937e-05      102.579 
          -5      30.1137  0.000267023  3.93255e-05      102.576 
          -5      30.2821  0.000266983  3.97852e-05      102.573 
          -5      30.4511  0.000267037  4.03661e-05      102.569 
          -5      30.6204  0.000266791  4.00693e-05      102.566 
          -5      30.7903  0.000266531  3.98778e-05      102.562 
          -5      30.9606  0.000266263  3.97875e-05      102.559 
          -5      31.1315  0.000265991  3.97929e-05      102.556 
          -5      31.3028   0.00026572  3.98872e-05      102.552 
          -5      31.4745  0.000265453  4.00608e-05      102.549 
          -5      31.6468  0.000265195   4.0301e-05      102.545 
          -5      31.8194  0.000264947  4.05896e-05      102.542 
          -5      31.9926  0.000264712  4.09039e-05      102.538 
          -5      32.1662   0.00026449  4.12128e-05      102.535 
          -5      32.3404   0.00026428  4.14781e-05      102.531 
          -5      32.5149  0.000264083  4.16506e-05      102.527 
          -5        32.69  0.000263896  4.16705e-05      102.524 
          -5      32.8655  0.000263844  4.17505e-05       102.52 
          -5      33.0414  0.000263785  4.19716e-05      102.516 
          -5       33.218  0.000263612  4.21613e-05      102.513 
          -5      33.3948  0.000263357  4.23287e-05      102.509 
          -5      33.5723  0.000263047   4.2483e-05      102.505 
          -5        33.75  0.000262708  4.26317e-05      102.501 
          -5      33.9284  0.000262357  4.27819e-05      102.497 
          -5      34.1073   0.00026201  4.29396e-05      102.493 
          -5      34.2865  0.000261679  4.31093e-05       102.49 
          -5      34.4663  0.000261373  4.32954e-05      102.486 
          -5      34.6465  0.000261096  4.35004e-05      102.482 
          -5      34.8272  0.000260852  4.37263e-05      102.478 
          -5      35.0083  0.000260641  4.39736e-05      102.474 
          -5        35.19  0.000260461  4.42425e-05       102.47 
          -5      35.3721  0.000260309  4.45315e-05      102.466 
          -5      35.5546  0.000260179  4.48381e-05      102.462 
          -5      35.7377  0.000260065  4.51598e-05      102.458 
          -5      35.9211   0.00025996  4.54921e-05      102.453 
          -5      36.1052  0.000259855  4.58308e-05      102.449 
          -5      36.2895  0.000259741  4.61701e-05      102.445 
          -5      36.4745   0.00025961  4.65046e-05      102.441 
          -5      36.6598  0.000259454  4.68273e-05      102.437 
          -5      36.8457  0.000259263  4.71321e-05      102.433 
          -5      37.0321  0.000259029  4.74119e-05      102.428 
          -5      37.2188  0.000258746  4.76595e-05      102.424 
          -5      37.4062  0.000258407  4.78688e-05       102.42 
          -5      37.5938  0.000258007   4.8033e-05      102.415 
          -5      37.7821  0.000257542  4.81468e-05      102.411 
          -5      37.9707  0.000257012  4.82051e-05      102.407 
          -5      38.1599  0.000256677   4.8197e-05      102.402 
          -5      38.3496  0.000256396  4.82658e-05      102.398 
          -5      38.5396  0.000256161  4.84079e-05      102.393 
          -5      38.7302  0.000255965   4.8616e-05      102.389 
          -5      38.9211  0.000255797   4.8878e-05      102.384 
          -5      39.1127  0.000255647  4.91793e-05       102.38 
          -5      39.3046  0.000255505  4.95014e-05      102.375 
          -5      39.4971   0.00025536  4.98249e-05      102.371 
          -5      39.6899  0.000255204  5.01279e-05      102.366 
          -5      39.8833  0.000255029  5.03892e-05      102.361 
          -5      40.0772  0.000254831  5.05878e-05      102.357 
          -5      40.2714   0.00025461  5.07044e-05      102.352 
          -5      40.4663  0.000254371  5.07236e-05      102.347 
          -5      40.6615  0.000254126  5.06344e-05      102.343 
          -5      40.8573  0.000253893  5.04318e-05      102.338 
          -5      41.0534  0.000253951  5.03077e-05      102.333 
          -5      41.2501  0.000253903  5.02552e-05      102.328 
          -5      41.4473  0.000253689  5.02717e-05      102.323 
          -5      41.6448   0.00025336  5.03925e-05      102.319 
          -5      41.8429  0.000252961  5.06433e-05      102.314 
          -5      42.0414  0.000252537  5.10377e-05      102.309 
          -5      42.2405  0.000252127  5.15772e-05      102.304 
          -5      42.4399  0.000251818  5.20448e-05      102.299 
          -5      42.6399  0.000251694  5.18399e-05      102.294 
          -5      42.8404  0.000251534     5.17e-05      102.289 
          -5      43.0412   0.00025134  5.16216e-05      102.284 
          -5      43.2426  0.000251116  5.16001e-05      102.279 
          -5      43.4444  0.000250865  5.16304e-05      102.274 
          -5      43.6467  0.000250592   5.1707e-05      102.269 
          -5      43.8494  0.000250299  5.18237e-05      102.264 
          -5      44.0527   0.00024999  5.19745e-05      102.258 
          -5      44.2563  0.000249668  5.21527e-05      102.253 
          -5      44.4606  0.000249337  5.23524e-05      102.248 
          -5      44.6653     0.000249  5.25674e-05      102.243 
          -5      44.8704   0.00024866  5.27917e-05      102.238 
          -5       45.076  0.000248318  5.30201e-05      102.232 
          -5       45.282  0.000247978  5.32473e-05      102.227 
          -5      45.4886  0.000247642  5.34693e-05      102.222 
          -5      45.6955   0.00024731   5.3682e-05      102.216 
          -5       45.903  0.000246985  5.38826e-05      102.211 
          -5      46.1111  0.000246667  5.40685e-05      102.206 
          -5      46.3194  0.000246358   5.4238e-05        102.2 
          -5      46.5283  0.000246056  5.43904e-05      102.195 
          -5      46.7376  0.000245763  5.45255e-05      102.189 
          -5      46.9475  0.000245477   5.4644e-05      102.184 
          -5      47.1577  0.000245197  5.47471e-05      102.178 
          -5      47.3685  0.000244924   5.4837e-05      102.173 
          -5      47.5798  0.000244654  5.49161e-05      102.167 
          -5      47.7914  0.000244387  5.49874e-05      102.162 
          -5      48.0037   0.00024412  5.50546e-05      102.156 