Variables = x, y, u, v, p

Zone, I=800, F=POINT
         450            0            0            0     -26.7298 
         450     0.000234 -3.54189e-06 -8.27754e-12     -26.7298 
         450     0.000939 -1.32393e-05 -1.35693e-10     -26.7298 
         450     0.002113 -2.64079e-05 -6.85614e-10     -26.7298 
         450     0.003759 -3.94623e-05  -2.1543e-09     -26.7298 
         450     0.005872 -4.87999e-05 -5.20275e-09     -26.7298 
         450     0.008457 -5.19325e-05  -1.0651e-08     -26.7298 
         450      0.01151 -4.81063e-05 -1.94211e-08     -26.7298 
         450     0.015036 -3.85232e-05 -3.25409e-08     -26.7298 
         450     0.019031 -2.59012e-05 -5.10529e-08     -26.7298 
         450     0.023493 -1.34276e-05 -7.59976e-08     -26.7298 
         450     0.028429 -3.42534e-06 -1.08428e-07     -26.7298 
         450     0.033831   3.6908e-06  -1.4922e-07     -26.7298 
         450     0.039706  9.79025e-06 -1.99224e-07     -26.7298 
         450     0.046047  1.80214e-05 -2.59013e-07     -26.7298 
         450     0.052863  3.05831e-05 -3.29107e-07     -26.7298 
         450      0.06015  4.60043e-05 -4.09675e-07     -26.7298 
         450       0.0679    5.862e-05 -5.00569e-07     -26.7298 
         450     0.076126  6.54203e-05 -6.01619e-07     -26.7298 
         450     0.084816  8.28543e-05 -7.12078e-07     -26.7298 
         450     0.093982  9.38728e-05 -8.31218e-07     -26.7298 
         450     0.103611  0.000106232 -9.57722e-07     -26.7298 
         450     0.113718   0.00011919 -1.09037e-06     -26.7298 
         450     0.124286   0.00013216 -1.22731e-06     -26.7298 
         450     0.135333  0.000144805 -1.36693e-06     -26.7298 
         450      0.14685   0.00015696 -1.50709e-06     -26.7298 
         450     0.158827   0.00016861 -1.64553e-06     -26.7298 
         450     0.171284  0.000179838 -1.78027e-06     -26.7298 
         450     0.184201  0.000190666 -1.90882e-06     -26.7298 
         450     0.197599  0.000201043 -2.02912e-06     -26.7298 
         450     0.211455  0.000210758 -2.13874e-06     -26.7298 
         450     0.225792  0.000219618 -2.23576e-06     -26.7298 
         450       0.2406   0.00022772  -2.3181e-06     -26.7298 
         450     0.255865  0.000235532 -2.38393e-06     -26.7298 
         450     0.271613  0.000242372 -2.43161e-06     -26.7298 
         450     0.287818  0.000248559 -2.45956e-06     -26.7298 
         450     0.304506  0.000254106 -2.46671e-06     -26.7298 
         450      0.32165  0.000259018 -2.45215e-06     -26.7298 
         450     0.339278  0.000263329 -2.41514e-06     -26.7298 
         450     0.357377   0.00026707 -2.35523e-06     -26.7298 
         450      0.37593   0.00027028 -2.27226e-06     -26.7298 
         450     0.394968  0.000273015 -2.16611e-06     -26.7298 
         450     0.414461  0.000275323 -2.03719e-06     -26.7298 
         450      0.43444   0.00027726 -1.88577e-06     -26.7298 
         450     0.454872  0.000278879  -1.7128e-06     -26.7298 
         450     0.475791   0.00028023 -1.51888e-06     -26.7298 
         450     0.497163  0.000281356 -1.30543e-06     -26.7298 
         450     0.519021  0.000282297 -1.07335e-06     -26.7298 
         450      0.54135  0.000283086 -8.24219e-07     -26.7298 
         450     0.564131  0.000283751 -5.59823e-07     -26.7298 
         450       0.5874  0.000284323 -2.81479e-07     -26.7298 
         450     0.611121  0.000284836  8.13721e-09     -26.7298 
         450      0.63533  0.000285259  3.05784e-07     -26.7298 
         450      0.65999  0.000285628   6.1227e-07     -26.7298 
         450     0.685139  0.000285931  9.24563e-07     -26.7298 
         450     0.710759  0.000286144  1.23891e-06     -26.7298 
         450     0.736828   0.00028624  1.55151e-06     -26.7298 
         450     0.763387  0.000286184  1.85937e-06     -26.7298 
         450     0.790396  0.000285934  2.15857e-06     -26.7298 
         450     0.817896  0.000285445  2.44619e-06     -26.7298 
         450     0.845843   0.00028467  2.71852e-06     -26.7298 
         450     0.874283  0.000283556  2.97286e-06     -26.7298 
         450      0.90317  0.000282055  3.20581e-06     -26.7298 
         450     0.932551  0.000280115  3.41495e-06     -26.7298 
         450     0.962401  0.000277691  3.59744e-06     -26.7298 
         450     0.992697  0.000274748  3.75081e-06     -26.7298 
         450      1.02349  0.000271246  3.87321e-06     -26.7298 
         450      1.05472  0.000267171   3.9626e-06     -26.7298 
         450      1.08645  0.000262503  4.01766e-06     -26.7298 
         450      1.11863  0.000257252   4.0372e-06     -26.7298 
         450       1.1513  0.000251426  4.02059e-06     -26.7298 
         450      1.18444   0.00024506  3.96762e-06     -26.7298 
         450      1.21802  0.000238204  3.87877e-06     -26.7298 
         450      1.25211  0.000230907  3.75495e-06     -26.7298 
         450      1.28663  0.000223253  3.59819e-06     -26.7298 
         450      1.32165  0.000215309  3.41093e-06     -26.7298 
         450      1.35712  0.000207173  3.19722e-06     -26.7298 
         450      1.39308  0.000198912  2.96166e-06     -26.7298 
         450      1.42951  0.000190601  2.71082e-06     -26.7298 
         450      1.46638  0.000182295  2.45296e-06     -26.7298 
         450      1.50375  0.000173987  2.19769e-06     -26.7298 
         450      1.54156  0.000165595  1.91581e-06     -26.7298 
         450      1.57987  0.000157388  1.63481e-06     -26.7298 
         450      1.61863  0.000149358  1.35649e-06     -26.7298 
         450      1.65788  0.000141457  1.07924e-06     -26.7298 
         450      1.69757  0.000133664   8.0256e-07     -26.7298 
         450      1.73776  0.000125939  5.25165e-07     -26.7298 
         450      1.77842  0.000118262  2.46614e-07     -26.7298 
         450      1.81952  0.000110616 -3.33546e-08     -26.7298 
         450      1.86113  0.000102971 -3.15546e-07     -26.7298 
         450      1.90316  9.53224e-05 -5.99692e-07     -26.7298 
         450      1.94571   8.7646e-05 -8.86301e-07     -26.7298 
         450      1.98869  7.99456e-05 -1.17482e-06     -26.7298 
         450      2.03217  7.22031e-05 -1.46552e-06     -26.7298 
         450      2.07612  6.44229e-05 -1.75784e-06     -26.7298 
         450      2.12051   5.6612e-05 -2.05114e-06     -26.7298 
         450       2.1654  4.87624e-05  -2.3454e-06     -26.7298 
         450      2.21073  4.08934e-05 -2.63958e-06     -26.7298 
         450      2.25656  3.30021e-05 -2.93357e-06     -26.7298 
         450      2.30283  2.51129e-05 -3.22628e-06     -26.7298 
         450       2.3496  1.72275e-05 -3.51754e-06     -26.7298 
         450      2.39685  9.36781e-06 -3.80651e-06     -26.7298 
         450      2.44452  1.55737e-06 -4.09238e-06     -26.7298 
         450      2.49271 -6.19775e-06 -4.37508e-06     -26.7298 
         450      2.54132 -1.38664e-05  -4.6537e-06     -26.7298 
         450      2.59044 -2.14414e-05 -4.92831e-06     -26.7299 
         450         2.64 -2.88912e-05  -5.1982e-06     -26.7299 
         450      2.69006 -3.62085e-05 -5.46362e-06     -26.7299 
         450      2.74056 -4.33636e-05 -5.72408e-06     -26.7299 
         450      2.79156 -5.03507e-05 -5.98006e-06     -26.7299 
         450      2.84304 -5.71481e-05 -6.23149e-06     -26.7299 
         450      2.89494 -6.37366e-05 -6.47843e-06     -26.7299 
         450      2.94735 -7.01144e-05 -6.72157e-06     -26.7299 
         450       3.0002  -7.6261e-05 -6.96089e-06     -26.7299 
         450      3.05355 -8.21777e-05 -7.19711e-06     -26.7299 
         450      3.10733 -8.78491e-05 -7.43016e-06     -26.7299 
         450      3.16163 -9.32795e-05 -7.66057e-06     -26.7299 
         450      3.21639 -9.84613e-05 -7.88811e-06     -26.7299 
         450      3.27158 -0.000103389 -8.11226e-06     -26.7299 
         450      3.32729 -0.000108068  -8.3326e-06     -26.7299 
         450      3.38342  -0.00011249 -8.54743e-06     -26.7299 
         450      3.44007 -0.000116659   -8.755e-06     -26.7299 
         450      3.49714  -0.00012056 -8.95197e-06     -26.7299 
         450      3.55472  -0.00012419 -9.13448e-06     -26.7299 
         450      3.61273 -0.000127525  -9.2967e-06     -26.7299 
         450      3.67125 -0.000130545 -9.43162e-06     -26.7299 
         450      3.73025  -0.00013321 -9.52983e-06     -26.7299 
         450      3.78967 -0.000135674 -9.68204e-06     -26.7299 
         450      3.84961 -0.000137949 -9.85672e-06     -26.7299 
         450      3.90996 -0.000139966 -1.00056e-05     -26.7299 
         450      3.97084 -0.000141739 -1.01271e-05     -26.7299 
         450      4.03214 -0.000143279 -1.02192e-05     -26.7299 
         450      4.09395 -0.000144584 -1.03377e-05     -26.7299 
         450      4.15624 -0.000145634 -1.06131e-05     -26.7299 
         450      4.21895 -0.000146494 -1.08389e-05     -26.7299 
         450      4.28217 -0.000147171 -1.10254e-05     -26.7299 
         450      4.34582 -0.000147672 -1.11808e-05     -26.7299 
         450      4.40998 -0.000148007 -1.13123e-05     -26.7299 
         450      4.47457 -0.000148183 -1.14254e-05     -26.7299 
         450      4.53968  -0.00014821 -1.15247e-05     -26.7299 
         450      4.60525 -0.000148097 -1.16131e-05     -26.7299 
         450      4.67125 -0.000147854 -1.16927e-05     -26.7299 
         450      4.73777  -0.00014749  -1.1765e-05     -26.7299 
         450       4.8047 -0.000147015   -1.183e-05     -26.7299 
         450      4.87216 -0.000146438 -1.18878e-05     -26.7299 
         450      4.94003 -0.000145769 -1.19373e-05     -26.7299 
         450      5.00843 -0.000145016 -1.19775e-05     -26.7299 
         450      5.07724 -0.000144189 -1.20066e-05     -26.7299 
         450      5.14658 -0.000143296 -1.20231e-05     -26.7299 
         450      5.21639 -0.000142344 -1.20254e-05     -26.7299 
         450      5.28661 -0.000141343 -1.20116e-05     -26.7299 
         450      5.35736 -0.000140298 -1.19806e-05     -26.7299 
         450      5.42852 -0.000139217 -1.19311e-05     -26.7299 
         450      5.50021 -0.000138104 -1.18624e-05     -26.7299 
         450      5.57231 -0.000136966 -1.17743e-05     -26.7299 
         450      5.64493 -0.000135807 -1.16669e-05     -26.7299 
         450      5.71803 -0.000134631  -1.1541e-05     -26.7299 
         450      5.79154 -0.000133445 -1.13981e-05     -26.7299 
         450      5.86558 -0.000132249 -1.12395e-05     -26.7299 
         450      5.94003 -0.000131049 -1.10679e-05     -26.7299 
         450      6.01501 -0.000129847 -1.08855e-05     -26.7299 
         450       6.0904 -0.000128648 -1.06954e-05     -26.7299 
         450      6.16632 -0.000127454 -1.04999e-05     -26.7299 
         450      6.24271 -0.000126271 -1.03019e-05     -26.7299 
         450       6.3195 -0.000125106 -1.01036e-05     -26.7299 
         450      6.39683 -0.000123962 -9.90577e-06     -26.7299 
         450      6.47457 -0.000122851 -9.70871e-06     -26.7299 
         450      6.55284 -0.000121781 -9.51022e-06     -26.7299 
         450      6.63152 -0.000120768 -9.30642e-06     -26.7299 
         450      6.71073 -0.000119825 -9.08978e-06     -26.7299 
         450      6.79034  -0.00011881 -8.93908e-06     -26.7299 
         450      6.87049 -0.000117793 -8.81732e-06     -26.7299 
         450      6.95111 -0.000116807 -8.70127e-06     -26.7299 
         450      7.03214 -0.000115854 -8.58321e-06     -26.7299 
         450       7.1137 -0.000114933 -8.45692e-06     -26.7299 
         450      7.19566 -0.000114041 -8.31862e-06     -26.7299 
         450      7.27816 -0.000113175 -8.16637e-06     -26.7299 
         450      7.36106 -0.000112329 -8.00113e-06     -26.7299 
         450      7.44451 -0.000111499 -7.82585e-06     -26.7299 
         450      7.52842 -0.000110678 -7.64641e-06     -26.7299 
         450      7.61273 -0.000109865 -7.47109e-06     -26.7299 
         450      7.69758 -0.000109053 -7.30996e-06     -26.7299 
         450      7.78283 -0.000108242 -7.17547e-06     -26.7299 
         450      7.86862 -0.000107431 -7.08102e-06     -26.7299 
         450      7.95481 -0.000106624 -7.04116e-06     -26.7299 
         450      8.04155 -0.000105826 -7.07027e-06     -26.7299 
         450      8.12868 -0.000105058 -6.98378e-06     -26.7299 
         450      8.21635 -0.000104315 -6.81898e-06     -26.7299 
         450      8.30449  -0.00010359 -6.67617e-06     -26.7299 
         450      8.39303 -0.000102882 -6.55036e-06     -26.7299 
         450      8.48211 -0.000102187 -6.43701e-06     -26.7299 
         450      8.57159 -0.000101505 -6.33266e-06     -26.7299 
         450      8.66161 -0.000100833 -6.23416e-06     -26.7299 
         450      8.75203 -0.000100173 -6.13934e-06     -26.7299 
         450      8.84299 -9.95206e-05 -6.04628e-06     -26.7299 
         450      8.93443 -9.88768e-05 -5.95385e-06     -26.7299 
         450      9.02626 -9.82412e-05 -5.86139e-06     -26.7299 
         450      9.11863 -9.76122e-05 -5.76847e-06     -26.7299 
         450      9.21139 -9.69905e-05 -5.67531e-06     -26.7299 
         450      9.30471 -9.63751e-05 -5.58218e-06     -26.7299 
         450      9.39841 -9.57667e-05 -5.48985e-06     -26.7299 
         450      9.49267 -9.51645e-05 -5.39898e-06     -26.7299 
         450      9.58739 -9.45693e-05 -5.31055e-06     -26.7299 
         450      9.68251 -9.39817e-05 -5.22553e-06     -26.7299 
         450      9.77817 -9.34012e-05 -5.14459e-06     -26.7299 
         450      9.87422  -9.2829e-05 -5.06851e-06     -26.7299 
         450      9.97083 -9.22648e-05 -4.99754e-06     -26.7299 
         450      10.0678 -9.17097e-05 -4.93177e-06     -26.7299 
         450      10.1654 -9.11633e-05 -4.87062e-06     -26.7299 
         450      10.2633 -9.06267e-05 -4.81307e-06     -26.7299 
         450      10.3618 -9.00991e-05  -4.7572e-06     -26.7299 
         450      10.4607 -8.95811e-05  -4.7004e-06     -26.7299 
         450      10.5601 -8.90728e-05 -4.63905e-06     -26.7299 
         450        10.66 -8.85728e-05  -4.5683e-06     -26.7299 
         450      10.7603 -8.80812e-05 -4.48224e-06       -26.73 
         450      10.8611  -8.7596e-05 -4.37329e-06       -26.73 
         450      10.9623 -8.71162e-05 -4.23266e-06       -26.73 
         450      11.0641 -8.66419e-05 -4.23623e-06       -26.73 
         450      11.1663  -8.6181e-05 -4.21522e-06       -26.73 
         450       11.269 -8.57341e-05 -4.16798e-06       -26.73 
         450      11.3721 -8.52987e-05 -4.10184e-06       -26.73 
         450      11.4757 -8.48723e-05 -4.02466e-06       -26.73 
         450      11.5798 -8.44502e-05 -3.94389e-06       -26.73 
         450      11.6844 -8.40289e-05 -3.86636e-06       -26.73 
         450      11.7894 -8.36044e-05 -3.79718e-06       -26.73 
         450       11.895 -8.31761e-05 -3.73939e-06       -26.73 
         450      12.0009 -8.27466e-05 -3.69291e-06       -26.73 
         450      12.1073 -8.23227e-05 -3.65353e-06       -26.73 
         450      12.2142 -8.19197e-05 -3.61221e-06       -26.73 
         450      12.3216 -8.15059e-05 -3.56088e-06       -26.73 
         450      12.4294 -8.10731e-05 -3.49811e-06       -26.73 
         450      12.5378 -8.06731e-05 -3.42389e-06       -26.73 
         450      12.6465 -8.02968e-05 -3.34458e-06       -26.73 
         450      12.7558  -7.9936e-05 -3.26495e-06       -26.73 
         450      12.8656 -7.95848e-05 -3.18868e-06       -26.73 
         450      12.9757 -7.92391e-05 -3.11831e-06       -26.73 
         450      13.0864 -7.88952e-05 -3.05521e-06       -26.73 
         450      13.1975 -7.85518e-05  -3.0001e-06       -26.73 
         450      13.3092 -7.82074e-05 -2.95276e-06       -26.73 
         450      13.4212 -7.78625e-05  -2.9125e-06       -26.73 
         450      13.5338 -7.75174e-05 -2.87803e-06       -26.73 
         450      13.6468 -7.71735e-05 -2.84777e-06       -26.73 
         450      13.7603 -7.68329e-05 -2.81986e-06       -26.73 
         450      13.8743 -7.64967e-05 -2.79227e-06       -26.73 
         450      13.9886 -7.61677e-05 -2.76301e-06       -26.73 
         450      14.1036 -7.58472e-05 -2.73006e-06       -26.73 
         450      14.2189 -7.55376e-05 -2.69171e-06       -26.73 
         450      14.3348   -7.524e-05 -2.64635e-06       -26.73 
         450       14.451 -7.49561e-05 -2.59286e-06       -26.73 
         450      14.5678 -7.46862e-05 -2.53036e-06       -26.73 
         450      14.6851 -7.44309e-05 -2.45855e-06       -26.73 
         450      14.8028 -7.41901e-05 -2.37768e-06       -26.73 
         450       14.921 -7.39626e-05  -2.2883e-06       -26.73 
         450      15.0396 -7.37471e-05 -2.19182e-06       -26.73 
         450      15.1588 -7.35414e-05 -2.08989e-06       -26.73 
         450      15.2783 -7.33431e-05   -1.985e-06       -26.73 
         450      15.3984 -7.31488e-05 -1.87981e-06       -26.73 
         450       15.519 -7.29551e-05 -1.77767e-06       -26.73 
         450        15.64 -7.27582e-05 -1.68227e-06       -26.73 
         450      15.7615 -7.25539e-05 -1.59734e-06       -26.73 
         450      15.8834 -7.23386e-05 -1.52699e-06       -26.73 
         450      16.0058 -7.21081e-05 -1.47509e-06       -26.73 
         450      16.1286 -7.18595e-05 -1.44545e-06       -26.73 
         450       16.252 -7.15902e-05 -1.44134e-06       -26.73 
         450      16.3759 -7.12989e-05 -1.46542e-06       -26.73 
         450      16.5002 -7.09863e-05  -1.5193e-06       -26.73 
         450       16.625  -7.0654e-05 -1.60345e-06       -26.73 
         450      16.7501 -7.03745e-05 -1.61247e-06       -26.73 
         450      16.8759  -7.0135e-05  -1.5689e-06       -26.73 
         450       17.002 -6.99197e-05 -1.49847e-06       -26.73 
         450      17.1287 -6.97403e-05 -1.38241e-06       -26.73 
         450      17.2557 -6.96113e-05 -1.19742e-06       -26.73 
         450      17.3834 -6.95496e-05  -9.1422e-07       -26.73 
         450      17.5115 -6.94978e-05  -7.2186e-07       -26.73 
         450      17.6399 -6.93009e-05 -9.83298e-07       -26.73 
         450       17.769 -6.91265e-05 -1.15119e-06       -26.73 
         450      17.8984 -6.89732e-05 -9.59303e-07       -26.73 
         450      18.0284 -6.88349e-05  -8.1758e-07       -26.73 
         450      18.1587 -6.87055e-05 -7.15607e-07       -26.73 
         450      18.2896 -6.85801e-05 -6.43905e-07       -26.73 
         450       18.421 -6.84551e-05 -5.94509e-07       -26.73 
         450      18.5528 -6.83283e-05 -5.60567e-07       -26.73 
         450      18.6851 -6.81978e-05 -5.36265e-07       -26.73 
         450      18.8178 -6.80632e-05 -5.16918e-07       -26.73 
         450      18.9511 -6.79243e-05 -4.98713e-07       -26.73 
         450      19.0847 -6.77819e-05 -4.78778e-07       -26.73 
         450      19.2189 -6.76366e-05 -4.54965e-07       -26.73 
         450      19.3535 -6.74899e-05 -4.25908e-07       -26.73 
         450      19.4886  -6.7343e-05 -3.90785e-07       -26.73 
         450      19.6242 -6.71974e-05 -3.49394e-07       -26.73 
         450      19.7602 -6.70547e-05  -3.0202e-07       -26.73 
         450      19.8968 -6.69159e-05 -2.49223e-07       -26.73 
         450      20.0337 -6.67823e-05 -1.92035e-07       -26.73 
         450      20.1712 -6.66546e-05 -1.31549e-07       -26.73 
         450      20.3091 -6.65334e-05 -6.92062e-08       -26.73 
         450      20.4475 -6.64187e-05   -6.338e-09       -26.73 
         450      20.5864 -6.63106e-05  5.55555e-08       -26.73 
         450      20.7257 -6.62086e-05  1.15029e-07       -26.73 
         450      20.8655 -6.61117e-05  1.70899e-07       -26.73 
         450      21.0058 -6.60189e-05  2.21974e-07       -26.73 
         450      21.1465 -6.59289e-05   2.6747e-07       -26.73 
         450      21.2877 -6.58403e-05  3.06742e-07       -26.73 
         450      21.4294 -6.57515e-05  3.39615e-07       -26.73 
         450      21.5716 -6.56613e-05  3.66206e-07       -26.73 
         450      21.7142 -6.55687e-05  3.87068e-07       -26.73 
         450      21.8573 -6.54732e-05  4.03263e-07       -26.73 
         450      22.0008  -6.5375e-05  4.16267e-07       -26.73 
         450      22.1449 -6.52752e-05  4.28106e-07       -26.73 
         450      22.2893 -6.51765e-05  4.41276e-07       -26.73 
         450      22.4344 -6.50828e-05   4.5883e-07       -26.73 
         450      22.5797 -6.50003e-05  4.84275e-07       -26.73 
         450      22.7257 -6.49375e-05  5.21688e-07     -26.7301 
         450      22.8721 -6.49057e-05  5.75562e-07     -26.7301 
         450      23.0189 -6.49197e-05  6.50773e-07     -26.7301 
         450      23.1663 -6.49257e-05  7.43498e-07     -26.7301 
         450       23.314 -6.47604e-05  7.89216e-07     -26.7301 
         450      23.4623  -6.4644e-05  8.02998e-07     -26.7301 
         450       23.611 -6.45643e-05  7.99864e-07     -26.7301 
         450      23.7602 -6.45104e-05  7.91383e-07     -26.7301 
         450        23.91 -6.44731e-05  7.86008e-07     -26.7301 
         450        24.06 -6.44446e-05  7.89406e-07     -26.7301 
         450      24.2107 -6.44186e-05  8.04827e-07     -26.7301 
         450      24.3617 -6.43901e-05  8.33391e-07     -26.7301 
         450      24.5133 -6.43552e-05  8.74522e-07     -26.7301 
         450      24.6653 -6.43116e-05  9.26074e-07     -26.7301 
         450      24.8178 -6.42576e-05  9.84889e-07     -26.7301 
         450      24.9708 -6.41931e-05  1.04681e-06     -26.7301 
         450      25.1242 -6.41188e-05  1.10707e-06     -26.7301 
         450      25.2781 -6.40364e-05  1.16068e-06     -26.7301 
         450      25.4324 -6.39485e-05  1.20234e-06     -26.7301 
         450      25.5873 -6.38587e-05  1.22698e-06     -26.7301 
         450      25.7426 -6.37715e-05   1.2297e-06     -26.7301 
         450      25.8984 -6.36921e-05  1.20602e-06     -26.7301 
         450      26.0546 -6.36266e-05  1.15207e-06     -26.7301 
         450      26.2114 -6.35818e-05   1.0645e-06     -26.7301 
         450      26.3686 -6.35657e-05  9.40755e-07     -26.7301 
         450      26.5262 -6.35989e-05  8.58054e-07     -26.7301 
         450      26.6844  -6.3607e-05  8.27875e-07     -26.7301 
         450      26.8429 -6.35814e-05  8.23769e-07     -26.7301 
         450       27.002 -6.35294e-05  8.37244e-07     -26.7301 
         450      27.1615 -6.34589e-05  8.60404e-07     -26.7301 
         450      27.3216 -6.33779e-05  8.86202e-07     -26.7301 
         450      27.4821 -6.32941e-05  9.08517e-07     -26.7301 
         450       27.643 -6.32152e-05  9.22372e-07     -26.7301 
         450      27.8044 -6.31474e-05  9.24093e-07     -26.7301 
         450      27.9663 -6.30965e-05  9.11364e-07     -26.7301 
         450      28.1287 -6.30662e-05  8.83304e-07     -26.7301 
         450      28.2914 -6.30584e-05   8.4061e-07     -26.7301 
         450      28.4548 -6.30722e-05  7.85397e-07     -26.7301 
         450      28.6185 -6.31039e-05  7.21453e-07     -26.7301 
         450      28.7828 -6.31458e-05  6.53851e-07     -26.7301 
         450      28.9475 -6.31859e-05  5.89208e-07     -26.7301 
         450      29.1126 -6.32068e-05  5.35399e-07     -26.7301 
         450      29.2784 -6.31856e-05  5.01274e-07     -26.7301 
         450      29.4444 -6.30922e-05  4.96708e-07     -26.7301 
         450       29.611 -6.31462e-05  4.76852e-07     -26.7301 
         450       29.778  -6.3181e-05  4.61743e-07     -26.7301 
         450      29.9456 -6.31456e-05  4.63731e-07     -26.7301 
         450      30.1137 -6.30728e-05  4.78632e-07     -26.7301 
         450      30.2821 -6.29877e-05  5.02627e-07     -26.7301 
         450      30.4511 -6.29085e-05  5.32333e-07     -26.7301 
         450      30.6204 -6.28473e-05  5.64627e-07     -26.7301 
         450      30.7903 -6.28112e-05  5.96802e-07     -26.7301 
         450      30.9606 -6.28029e-05   6.2635e-07     -26.7301 
         450      31.1315 -6.28216e-05  6.51148e-07     -26.7301 
         450      31.3028 -6.28635e-05  6.69274e-07     -26.7301 
         450      31.4745  -6.2923e-05  6.79105e-07     -26.7302 
         450      31.6468 -6.29931e-05  6.79317e-07     -26.7302 
         450      31.8194 -6.30659e-05  6.68865e-07     -26.7302 
         450      31.9926 -6.31337e-05  6.46991e-07     -26.7302 
         450      32.1662  -6.3189e-05  6.13326e-07     -26.7302 
         450      32.3404 -6.32254e-05  5.67778e-07     -26.7302 
         450      32.5149 -6.32377e-05  5.10793e-07     -26.7302 
         450        32.69 -6.32229e-05  4.43111e-07     -26.7302 
         450      32.8655 -6.31796e-05  3.66128e-07     -26.7302 
         450      33.0414 -6.31092e-05  2.81856e-07     -26.7302 
         450       33.218 -6.30153e-05  1.92776e-07     -26.7302 
         450      33.3948 -6.29046e-05  1.02398e-07     -26.7302 
         450      33.5723  -6.2786e-05  1.48154e-08     -26.7302 
         450        33.75 -6.26714e-05 -6.46265e-08     -26.7302 
         450      33.9284 -6.25749e-05 -1.29742e-07     -26.7302 
         450      34.1073 -6.25129e-05 -1.72906e-07     -26.7302 
         450      34.2865 -6.25039e-05 -1.85172e-07     -26.7302 
         450      34.4663 -6.25675e-05 -1.56059e-07     -26.7302 
         450      34.6465 -6.27242e-05 -7.33872e-08     -26.7302 
         450      34.8272 -6.29949e-05  7.71433e-08     -26.7302 
         450      35.0083 -6.34321e-05  4.12381e-07     -26.7302 
         450        35.19 -6.29809e-05  1.68717e-07     -26.7302 
         450      35.3721 -6.26918e-05   9.8386e-09     -26.7302 
         450      35.5546 -6.25274e-05  -8.5467e-08     -26.7302 
         450      35.7377 -6.24553e-05 -1.35063e-07     -26.7302 
         450      35.9211 -6.24487e-05 -1.53349e-07     -26.7302 
         450      36.1052 -6.24855e-05 -1.51955e-07     -26.7302 
         450      36.2895 -6.25474e-05 -1.39891e-07     -26.7302 
         450      36.4745 -6.26202e-05 -1.23877e-07     -26.7302 
         450      36.6598 -6.26931e-05 -1.08694e-07     -26.7302 
         450      36.8457  -6.2758e-05 -9.73786e-08     -26.7302 
         450      37.0321 -6.28098e-05 -9.15839e-08     -26.7302 
         450      37.2188 -6.28451e-05 -9.17842e-08     -26.7302 
         450      37.4062 -6.28628e-05 -9.75416e-08     -26.7302 
         450      37.5938 -6.28632e-05 -1.07729e-07     -26.7302 
         450      37.7821 -6.28476e-05 -1.20779e-07     -26.7302 
         450      37.9707 -6.28186e-05 -1.34825e-07     -26.7302 
         450      38.1599  -6.2779e-05 -1.47963e-07     -26.7302 
         450      38.3496 -6.27323e-05 -1.58333e-07     -26.7303 
         450      38.5396 -6.26818e-05 -1.64309e-07     -26.7303 
         450      38.7302 -6.26309e-05 -1.64624e-07     -26.7303 
         450      38.9211 -6.25827e-05 -1.58443e-07     -26.7303 
         450      39.1127 -6.25399e-05 -1.45436e-07     -26.7303 
         450      39.3046 -6.25046e-05 -1.25868e-07     -26.7303 
         450      39.4971 -6.24782e-05 -1.00532e-07     -26.7303 
         450      39.6899 -6.24616e-05  -7.0864e-08     -26.7303 
         450      39.8833 -6.24549e-05 -3.87494e-08     -26.7303 
         450      40.0772 -6.24573e-05   -6.606e-09     -26.7303 
         450      40.2714 -6.24678e-05  2.27903e-08     -26.7303 
         450      40.4663 -6.24844e-05  4.65156e-08     -26.7303 
         450      40.6615 -6.25049e-05  6.15224e-08     -26.7303 
         450      40.8573 -6.25271e-05  6.49939e-08     -26.7303 
         450      41.0534 -6.25486e-05  5.45134e-08     -26.7303 
         450      41.2501 -6.25673e-05  2.83738e-08     -26.7303 
         450      41.4473 -6.25819e-05 -1.40501e-08     -26.7303 
         450      41.6448 -6.25922e-05 -7.18835e-08     -26.7303 
         450      41.8429 -6.25995e-05 -1.42514e-07     -26.7303 
         450      42.0414  -6.2607e-05 -2.20768e-07     -26.7303 
         450      42.2405 -6.26208e-05 -2.98803e-07     -26.7303 
         450      42.4399 -6.26841e-05 -3.21872e-07     -26.7303 
         450      42.6399 -6.27943e-05  -2.1014e-07     -26.7303 
         450      42.8404 -6.27982e-05 -1.14975e-07     -26.7303 
         450      43.0412  -6.2721e-05 -2.64425e-08     -26.7303 
         450      43.2426 -6.25917e-05  6.13704e-08     -26.7303 
         450      43.4444 -6.24438e-05  1.49946e-07     -26.7303 
         450      43.6467 -6.23144e-05  2.36995e-07     -26.7303 
         450      43.8494  -6.2245e-05   2.9782e-07     -26.7303 
         450      44.0527 -6.22266e-05  3.11345e-07     -26.7304 
         450      44.2563 -6.22344e-05  3.23699e-07     -26.7304 
         450      44.4606 -6.22606e-05  3.36111e-07     -26.7304 
         450      44.6653 -6.22988e-05   3.4926e-07     -26.7304 
         450      44.8704 -6.23436e-05  3.63326e-07     -26.7304 
         450       45.076  -6.2391e-05  3.78039e-07     -26.7304 
         450       45.282 -6.24375e-05  3.92627e-07     -26.7304 
         450      45.4886 -6.24811e-05  4.05922e-07     -26.7304 
         450      45.6955 -6.25203e-05  4.16292e-07     -26.7304 
         450       45.903 -6.25549e-05  4.21747e-07     -26.7304 
         450      46.1111 -6.25851e-05  4.19888e-07     -26.7304 
         450      46.3194 -6.26121e-05  4.07987e-07     -26.7304 
         450      46.5283 -6.26307e-05  3.89173e-07     -26.7304 
         450      46.7376 -6.25957e-05  4.11042e-07     -26.7304 
         450      46.9475 -6.25648e-05  4.27639e-07     -26.7304 
         450      47.1577 -6.25371e-05  4.39832e-07     -26.7304 
         450      47.3685  -6.2512e-05  4.48477e-07     -26.7304 
         450      47.5798 -6.24891e-05   4.5433e-07     -26.7304 
         450      47.7914 -6.24681e-05  4.58073e-07     -26.7304 
         450      48.0037 -6.24489e-05  4.60304e-07     -26.7304 