Variables = x, y, u, v, p

Zone, I=800, F=POINT
          -5            0            0            0      63.5422 
          -5     0.000234  1.18423e-05 -6.99935e-10      63.5422 
          -5     0.000939  4.46703e-05 -2.71176e-09      63.5422 
          -5     0.002113  9.06053e-05 -5.75942e-09      63.5422 
          -5     0.003759  0.000139131 -9.46198e-09      63.5422 
          -5     0.005872  0.000179577  -1.3377e-08      63.5422 
          -5     0.008457  0.000204521 -1.71087e-08      63.5422 
          -5      0.01151  0.000211492 -2.03117e-08      63.5422 
          -5     0.015036  0.000203754 -2.27132e-08      63.5422 
          -5     0.019031  0.000188968 -2.40387e-08      63.5422 
          -5     0.023493  0.000176267 -2.39388e-08      63.5422 
          -5     0.028429  0.000172443  -2.1895e-08      63.5422 
          -5     0.033831  0.000178791 -1.71915e-08      63.5422 
          -5     0.039706  0.000190109 -8.96693e-09      63.5422 
          -5     0.046047  0.000197354  3.57446e-09      63.5422 
          -5     0.052863  0.000194102  2.09538e-08      63.5422 
          -5      0.06015  0.000184194  4.32273e-08      63.5422 
          -5       0.0679  0.000183398  7.03826e-08      63.5422 
          -5     0.076126  0.000200237   1.0412e-07      63.5422 
          -5     0.084816  0.000187928  1.51426e-07      63.5422 
          -5     0.093982  0.000193663  1.99369e-07      63.5422 
          -5     0.103611  0.000195888  2.48004e-07      63.5422 
          -5     0.113718  0.000196341  3.09149e-07      63.5422 
          -5     0.124286  0.000196264  3.87129e-07      63.5422 
          -5     0.135333   0.00019636   4.8018e-07      63.5422 
          -5      0.14685  0.000196821  5.82402e-07      63.5422 
          -5     0.158827  0.000197463  6.87477e-07      63.5422 
          -5     0.171284  0.000197937  7.92958e-07      63.5422 
          -5     0.184201   0.00019798  9.02842e-07      63.5422 
          -5     0.197599  0.000197628   1.0287e-06      63.5422 
          -5     0.211455  0.000197283  1.18363e-06      63.5422 
          -5     0.225792  0.000197442  1.36818e-06      63.5422 
          -5       0.2406  0.000197874  1.53922e-06      63.5422 
          -5     0.255865  0.000197253  1.64566e-06      63.5422 
          -5     0.271613  0.000197176  1.81388e-06      63.5422 
          -5     0.287818  0.000197097  2.00035e-06      63.5422 
          -5     0.304506  0.000197028  2.20148e-06      63.5422 
          -5      0.32165  0.000196984  2.41158e-06      63.5423 
          -5     0.339278  0.000196974  2.63043e-06      63.5423 
          -5     0.357377  0.000197006  2.85725e-06      63.5423 
          -5      0.37593  0.000197087  3.09115e-06      63.5423 
          -5     0.394968  0.000197223  3.33178e-06      63.5423 
          -5     0.414461  0.000197419  3.57802e-06      63.5423 
          -5      0.43444  0.000197679  3.82948e-06      63.5423 
          -5     0.454872  0.000198002  4.08493e-06      63.5423 
          -5     0.475791  0.000198389  4.34401e-06      63.5423 
          -5     0.497163  0.000198836  4.60552e-06      63.5423 
          -5     0.519021  0.000199341  4.86909e-06      63.5423 
          -5      0.54135  0.000199896   5.1338e-06      63.5423 
          -5     0.564131  0.000200492  5.39877e-06      63.5423 
          -5       0.5874  0.000201122  5.66378e-06      63.5424 
          -5     0.611121  0.000201771  5.92787e-06      63.5424 
          -5      0.63533  0.000202429  6.19096e-06      63.5424 
          -5      0.65999   0.00020308  6.45225e-06      63.5424 
          -5     0.685139  0.000203711   6.7118e-06      63.5424 
          -5     0.710759  0.000204308  6.96918e-06      63.5424 
          -5     0.736828  0.000204854    7.224e-06      63.5424 
          -5     0.763387  0.000205338  7.47653e-06      63.5425 
          -5     0.790396  0.000205746  7.72628e-06      63.5425 
          -5     0.817896  0.000206068  7.97356e-06      63.5425 
          -5     0.845843  0.000206294  8.21784e-06      63.5425 
          -5     0.874283  0.000206418  8.45929e-06      63.5425 
          -5      0.90317  0.000206437  8.69717e-06      63.5426 
          -5     0.932551  0.000206349  8.93127e-06      63.5426 
          -5     0.962401  0.000206156  9.16044e-06      63.5426 
          -5     0.992697  0.000205863  9.38318e-06      63.5426 
          -5      1.02349  0.000205474  9.59791e-06      63.5427 
          -5      1.05472  0.000204996  9.80161e-06      63.5427 
          -5      1.08645  0.000204435  9.99105e-06      63.5427 
          -5      1.11863  0.000203793  1.01612e-05      63.5428 
          -5       1.1513  0.000203047  1.03194e-05      63.5428 
          -5      1.18444  0.000202207  1.05088e-05      63.5428 
          -5      1.21802  0.000201391  1.06766e-05      63.5429 
          -5      1.25211   0.00020058  1.08263e-05      63.5429 
          -5      1.28663  0.000199763  1.09605e-05      63.5429 
          -5      1.32165  0.000198934  1.10816e-05       63.543 
          -5      1.35712  0.000198095  1.11911e-05       63.543 
          -5      1.39308  0.000197252  1.12904e-05       63.543 
          -5      1.42951  0.000196413  1.13802e-05      63.5431 
          -5      1.46638  0.000195592   1.1461e-05      63.5431 
          -5      1.50375    0.0001948  1.15331e-05      63.5432 
          -5      1.54156  0.000194051  1.15963e-05      63.5432 
          -5      1.57987  0.000193354  1.16507e-05      63.5433 
          -5      1.61863  0.000192718  1.16963e-05      63.5433 
          -5      1.65788  0.000192144  1.17337e-05      63.5434 
          -5      1.69757  0.000191631  1.17638e-05      63.5434 
          -5      1.73776   0.00019117  1.17885e-05      63.5435 
          -5      1.77842  0.000190746  1.18108e-05      63.5435 
          -5      1.81952  0.000190366  1.17966e-05      63.5436 
          -5      1.86113  0.000189995  1.17698e-05      63.5436 
          -5      1.90316  0.000189619  1.17318e-05      63.5437 
          -5      1.94571  0.000189221   1.1682e-05      63.5438 
          -5      1.98869  0.000188788  1.16217e-05      63.5438 
          -5      2.03217   0.00018831  1.15537e-05      63.5439 
          -5      2.07612   0.00018778  1.14816e-05       63.544 
          -5      2.12051  0.000187158  1.13325e-05       63.544 
          -5       2.1654  0.000186424  1.11301e-05      63.5441 
          -5      2.21073  0.000185609  1.09327e-05      63.5442 
          -5      2.25656  0.000184715  1.07251e-05      63.5442 
          -5      2.30283  0.000183752  1.04972e-05      63.5443 
          -5       2.3496  0.000182724  1.02431e-05      63.5444 
          -5      2.39685  0.000181608  9.96547e-06      63.5445 
          -5      2.44452  0.000180424  9.67001e-06      63.5445 
          -5      2.49271  0.000179202  9.35463e-06      63.5446 
          -5      2.54132   0.00017795  9.01998e-06      63.5447 
          -5      2.59044  0.000176671  8.66545e-06      63.5448 
          -5         2.64  0.000175378  8.29149e-06      63.5449 
          -5      2.69006  0.000174082  7.89755e-06      63.5449 
          -5      2.74056  0.000172797  7.48456e-06       63.545 
          -5      2.79156  0.000171538  7.05267e-06      63.5451 
          -5      2.84304  0.000170323  6.60363e-06      63.5452 
          -5      2.89494  0.000169167  6.13992e-06      63.5453 
          -5      2.94735  0.000168086  5.66376e-06      63.5454 
          -5       3.0002  0.000167094   5.1797e-06      63.5455 
          -5      3.05355  0.000166202  4.69164e-06      63.5456 
          -5      3.10733  0.000165419  4.20579e-06      63.5457 
          -5      3.16163  0.000164748  3.72753e-06      63.5458 
          -5      3.21639  0.000164187  3.26386e-06      63.5459 
          -5      3.27158  0.000163727  2.82193e-06       63.546 
          -5      3.32729  0.000163351  2.40766e-06      63.5461 
          -5      3.38342  0.000163123  1.99514e-06      63.5462 
          -5      3.44007  0.000163033  1.60194e-06      63.5463 
          -5      3.49714  0.000162972  1.25642e-06      63.5464 
          -5      3.55472  0.000162968  9.40339e-07      63.5465 
          -5      3.61273  0.000163031  6.58072e-07      63.5466 
          -5      3.67125  0.000163155  4.24384e-07      63.5467 
          -5      3.73025  0.000163328  2.55915e-07      63.5468 
          -5      3.78967  0.000163535  1.60441e-07      63.5469 
          -5      3.84961  0.000163756  1.27461e-07       63.547 
          -5      3.90996  0.000163964  1.19922e-07      63.5471 
          -5      3.97084  0.000164146  1.29584e-07      63.5472 
          -5      4.03214  0.000164373  1.93484e-07      63.5473 
          -5      4.09395  0.000164618  2.94241e-07      63.5474 
          -5      4.15624  0.000164858  4.19736e-07      63.5475 
          -5      4.21895  0.000165084  5.62024e-07      63.5476 
          -5      4.28217  0.000165291  7.16532e-07      63.5477 
          -5      4.34582  0.000165478  8.80121e-07      63.5478 
          -5      4.40998  0.000165648  1.05105e-06      63.5479 
          -5      4.47457  0.000165804  1.22713e-06       63.548 
          -5      4.53968  0.000165949  1.40617e-06      63.5481 
          -5      4.60525  0.000166086  1.58464e-06      63.5482 
          -5      4.67125  0.000166213  1.75802e-06      63.5483 
          -5      4.73777   0.00016633  1.92148e-06      63.5484 
          -5       4.8047  0.000166431  2.06958e-06      63.5485 
          -5      4.87216  0.000166513  2.19843e-06      63.5485 
          -5      4.94003  0.000166574  2.30634e-06      63.5486 
          -5      5.00843  0.000166615  2.39689e-06      63.5487 
          -5      5.07724  0.000166644    2.481e-06      63.5488 
          -5      5.14658  0.000166683  2.58117e-06      63.5489 
          -5      5.21639  0.000166773  2.68283e-06       63.549 
          -5      5.28661  0.000166909  2.73801e-06      63.5491 
          -5      5.35736  0.000166971  2.82097e-06      63.5492 
          -5      5.42852  0.000166971  2.82184e-06      63.5492 
          -5      5.50021  0.000166917  2.85579e-06      63.5493 
          -5      5.57231  0.000166855  2.90159e-06      63.5494 
          -5      5.64493  0.000166792  2.94503e-06      63.5495 
          -5      5.71803  0.000166729  2.97715e-06      63.5495 
          -5      5.79154  0.000166662  2.99369e-06      63.5496 
          -5      5.86558  0.000166589  2.99435e-06      63.5497 
          -5      5.94003  0.000166504  2.98201e-06      63.5497 
          -5      6.01501  0.000166406  2.96197e-06      63.5498 
          -5       6.0904  0.000166292  2.94117e-06      63.5499 
          -5      6.16632  0.000166162  2.92734e-06      63.5499 
          -5      6.24271   0.00016602   2.9282e-06        63.55 
          -5       6.3195  0.000165873  2.95057e-06        63.55 
          -5      6.39683  0.000165725  2.99964e-06      63.5501 
          -5      6.47457  0.000165587  3.07787e-06      63.5501 
          -5      6.55284  0.000165465  3.18458e-06      63.5501 
          -5      6.63152  0.000165362  3.31456e-06      63.5502 
          -5      6.71073  0.000165277  3.45798e-06      63.5502 
          -5      6.79034  0.000165198  3.59882e-06      63.5502 
          -5      6.87049  0.000165099  3.71501e-06      63.5502 
          -5      6.95111  0.000164934  3.77694e-06      63.5503 
          -5      7.03214  0.000164645  3.75797e-06      63.5503 
          -5       7.1137  0.000164582  3.87837e-06      63.5503 
          -5      7.19566  0.000164489  3.89687e-06      63.5503 
          -5      7.27816  0.000164389  3.87183e-06      63.5503 
          -5      7.36106  0.000164298  3.84673e-06      63.5503 
          -5      7.44451   0.00016422  3.85151e-06      63.5503 
          -5      7.52842  0.000164157  3.90406e-06      63.5503 
          -5      7.61273  0.000164107  4.01161e-06      63.5502 
          -5      7.69758  0.000164062  4.17285e-06      63.5502 
          -5      7.78283  0.000164017  4.37913e-06      63.5502 
          -5      7.86862  0.000163966  4.61747e-06      63.5502 
          -5      7.95481  0.000163903  4.87145e-06      63.5501 
          -5      8.04155  0.000163826  5.12508e-06      63.5501 
          -5      8.12868  0.000163736  5.36368e-06        63.55 
          -5      8.21635  0.000163637  5.57816e-06        63.55 
          -5      8.30449  0.000163538  5.76652e-06      63.5499 
          -5      8.39303  0.000163449  5.93754e-06      63.5498 
          -5      8.48211  0.000163386  6.11429e-06      63.5498 
          -5      8.57159  0.000163344  6.33193e-06      63.5497 
          -5      8.66161  0.000163352  6.55025e-06      63.5496 
          -5      8.75203  0.000163411  6.73826e-06      63.5495 
          -5      8.84299  0.000163486  6.88734e-06      63.5494 
          -5      8.93443  0.000163526  7.00307e-06      63.5493 
          -5      9.02626   0.00016346  7.11333e-06      63.5492 
          -5      9.11863  0.000163533  7.37569e-06      63.5491 
          -5      9.21139  0.000163693    7.762e-06      63.5489 
          -5      9.30471  0.000163793  8.18349e-06      63.5488 
          -5      9.39841  0.000163852   8.6202e-06      63.5487 
          -5      9.49267  0.000163896  9.06918e-06      63.5485 
          -5      9.58739  0.000163956  9.53865e-06      63.5484 
          -5      9.68251  0.000164045   1.0037e-05      63.5482 
          -5      9.77817  0.000164032  1.05026e-05      63.5481 
          -5      9.87422  0.000164005  1.09463e-05      63.5479 
          -5      9.97083  0.000163967  1.13588e-05      63.5477 
          -5      10.0678  0.000163921  1.17383e-05      63.5475 
          -5      10.1654  0.000163864  1.20907e-05      63.5473 
          -5      10.2633  0.000163795  1.24246e-05      63.5471 
          -5      10.3618  0.000163709  1.27506e-05      63.5469 
          -5      10.4607  0.000163605  1.30776e-05      63.5467 
          -5      10.5601   0.00016348  1.34109e-05      63.5464 
          -5        10.66  0.000163331  1.37513e-05      63.5462 
          -5      10.7603  0.000163157  1.40909e-05       63.546 
          -5      10.8611  0.000162961  1.44137e-05      63.5457 
          -5      10.9623  0.000162743  1.46921e-05      63.5454 
          -5      11.0641  0.000162507  1.48876e-05      63.5452 
          -5      11.1663  0.000162257  1.49482e-05      63.5449 
          -5       11.269  0.000162068  1.49893e-05      63.5446 
          -5      11.3721    0.0001621  1.53927e-05      63.5443 
          -5      11.4757  0.000162195  1.58065e-05       63.544 
          -5      11.5798  0.000162315  1.61854e-05      63.5437 
          -5      11.6844  0.000162434  1.65015e-05      63.5434 
          -5      11.7894  0.000162538  1.67443e-05      63.5431 
          -5       11.895  0.000162617  1.69152e-05      63.5427 
          -5      12.0009  0.000162672  1.70254e-05      63.5424 
          -5      12.1073  0.000162706  1.70927e-05       63.542 
          -5      12.2142  0.000162725   1.7138e-05      63.5416 
          -5      12.3216  0.000162736  1.71828e-05      63.5413 
          -5      12.4294  0.000162747  1.72464e-05      63.5409 
          -5      12.5378  0.000162764  1.73431e-05      63.5405 
          -5      12.6465  0.000162791  1.74795e-05      63.5401 
          -5      12.7558  0.000162831  1.76534e-05      63.5397 
          -5      12.8656   0.00016281  1.80419e-05      63.5392 
          -5      12.9757   0.00016278  1.83171e-05      63.5388 
          -5      13.0864   0.00016274  1.84828e-05      63.5384 
          -5      13.1975  0.000162683  1.85683e-05      63.5379 
          -5      13.3092  0.000162601  1.86001e-05      63.5375 
          -5      13.4212  0.000162489  1.86009e-05       63.537 
          -5      13.5338  0.000162346  1.85892e-05      63.5365 
          -5      13.6468  0.000162171  1.85781e-05       63.536 
          -5      13.7603  0.000161967  1.85741e-05      63.5355 
          -5      13.8743  0.000161738  1.85755e-05       63.535 
          -5      13.9886  0.000161495  1.85713e-05      63.5345 
          -5      14.1036  0.000161246  1.85385e-05      63.5339 
          -5      14.2189   0.00016114  1.84231e-05      63.5334 
          -5      14.3348  0.000161113   1.8282e-05      63.5328 
          -5       14.451  0.000161005  1.82025e-05      63.5323 
          -5      14.5678  0.000160891  1.81997e-05      63.5317 
          -5      14.6851   0.00016082  1.82764e-05      63.5311 
          -5      14.8028  0.000160814  1.84247e-05      63.5305 
          -5       14.921  0.000160875  1.86295e-05      63.5299 
          -5      15.0396  0.000160991  1.88698e-05      63.5293 
          -5      15.1588   0.00016114  1.91223e-05      63.5287 
          -5      15.2783  0.000161294  1.93614e-05       63.528 
          -5      15.3984  0.000161423  1.95628e-05      63.5274 
          -5       15.519  0.000161499  1.97036e-05      63.5267 
          -5        15.64  0.000161499  1.97641e-05       63.526 
          -5      15.7615  0.000161409  1.97285e-05      63.5253 
          -5      15.8834  0.000161223  1.95855e-05      63.5246 
          -5      16.0058  0.000160946   1.9328e-05      63.5239 
          -5      16.1286  0.000160813  1.93847e-05      63.5232 
          -5       16.252  0.000160786  1.96538e-05      63.5225 
          -5      16.3759  0.000160738  1.98836e-05      63.5217 
          -5      16.5002  0.000160669  2.00689e-05       63.521 
          -5       16.625   0.00016058  2.02045e-05      63.5202 
          -5      16.7501  0.000160474  2.02869e-05      63.5194 
          -5      16.8759  0.000160356  2.03177e-05      63.5187 
          -5       17.002  0.000160232  2.03054e-05      63.5179 
          -5      17.1287  0.000160112  2.02689e-05       63.517 
          -5      17.2557  0.000160004  2.02408e-05      63.5162 
          -5      17.3834   0.00015992  2.02708e-05      63.5154 
          -5      17.5115  0.000159873  2.04298e-05      63.5145 
          -5      17.6399  0.000159877  2.08138e-05      63.5137 
          -5       17.769  0.000159947  2.15501e-05      63.5128 
          -5      17.8984  0.000159578  2.11383e-05      63.5119 
          -5      18.0284   0.00015931   2.0738e-05       63.511 
          -5      18.1587  0.000159176  2.04976e-05      63.5101 
          -5      18.2896  0.000159143  2.03966e-05      63.5092 
          -5       18.421  0.000159184  2.04107e-05      63.5082 
          -5      18.5528  0.000159267   2.0511e-05      63.5073 
          -5      18.6851  0.000159363  2.06652e-05      63.5063 
          -5      18.8178  0.000159439  2.08367e-05      63.5054 
          -5      18.9511  0.000159463  2.09862e-05      63.5044 
          -5      19.0847  0.000159401  2.10717e-05      63.5034 
          -5      19.2189  0.000159372   2.1094e-05      63.5024 
          -5      19.3535  0.000159542  2.11853e-05      63.5014 
          -5      19.4886  0.000159656  2.13152e-05      63.5003 
          -5      19.6242  0.000159708  2.14695e-05      63.4993 
          -5      19.7602    0.0001597  2.16326e-05      63.4982 
          -5      19.8968  0.000159639  2.17899e-05      63.4971 
          -5      20.0337   0.00015954  2.19285e-05       63.496 
          -5      20.1712  0.000159423  2.20389e-05      63.4949 
          -5      20.3091  0.000159307  2.21155e-05      63.4938 
          -5      20.4475  0.000159214  2.21574e-05      63.4927 
          -5      20.5864  0.000159161  2.21681e-05      63.4916 
          -5      20.7257  0.000159159  2.21556e-05      63.4904 
          -5      20.8655  0.000159209  2.21314e-05      63.4892 
          -5      21.0058  0.000159299  2.21092e-05      63.4881 
          -5      21.1465  0.000159397  2.21034e-05      63.4869 
          -5      21.2877  0.000159446  2.21267e-05      63.4857 
          -5      21.4294  0.000159361  2.21872e-05      63.4844 
          -5      21.5716   0.00015902  2.22851e-05      63.4832 
          -5      21.7142  0.000158828   2.2299e-05       63.482 
          -5      21.8573   0.00015878   2.2295e-05      63.4807 
          -5      22.0008  0.000158748  2.22985e-05      63.4794 
          -5      22.1449  0.000158708  2.23084e-05      63.4781 
          -5      22.2893  0.000158654  2.23235e-05      63.4768 
          -5      22.4344  0.000158594  2.23419e-05      63.4755 
          -5      22.5797  0.000158539  2.23608e-05      63.4742 
          -5      22.7257  0.000158504  2.23759e-05      63.4729 
          -5      22.8721  0.000158496  2.23802e-05      63.4715 
          -5      23.0189   0.00015851  2.23636e-05      63.4701 
          -5      23.1663   0.00015852  2.23114e-05      63.4687 
          -5       23.314  0.000158474  2.22028e-05      63.4673 
          -5      23.4623  0.000158377   2.2075e-05      63.4659 
          -5       23.611  0.000158536  2.22103e-05      63.4645 
          -5      23.7602  0.000158601  2.23606e-05      63.4631 
          -5        23.91  0.000158579  2.25083e-05      63.4616 
          -5        24.06  0.000158482  2.26437e-05      63.4601 
          -5      24.2107  0.000158323  2.27643e-05      63.4587 
          -5      24.3617  0.000158118  2.28732e-05      63.4572 
          -5      24.5133  0.000157886  2.29775e-05      63.4556 
          -5      24.6653  0.000157644  2.30866e-05      63.4541 
          -5      24.8178  0.000157406  2.32104e-05      63.4526 
          -5      24.9708  0.000157188  2.33564e-05       63.451 
          -5      25.1242  0.000156998  2.35269e-05      63.4495 
          -5      25.2781  0.000156838   2.3717e-05      63.4479 
          -5      25.4324  0.000156705  2.39102e-05      63.4463 
          -5      25.5873  0.000156585  2.40752e-05      63.4447 
          -5      25.7426  0.000156452  2.41616e-05       63.443 
          -5      25.8984  0.000156268  2.40959e-05      63.4414 
          -5      26.0546  0.000155977  2.37762e-05      63.4397 
          -5      26.2114  0.000155793  2.39558e-05      63.4381 
          -5      26.3686  0.000155814  2.44753e-05      63.4364 
          -5      26.5262  0.000155881   2.4836e-05      63.4347 
          -5      26.6844  0.000155969  2.50719e-05      63.4329 
          -5      26.8429  0.000156058  2.52133e-05      63.4312 
          -5       27.002  0.000156133  2.52884e-05      63.4295 
          -5      27.1615  0.000156185  2.53217e-05      63.4277 
          -5      27.3216  0.000156209  2.53343e-05      63.4259 
          -5      27.4821  0.000156204  2.53437e-05      63.4241 
          -5       27.643  0.000156171  2.53633e-05      63.4223 
          -5      27.8044  0.000156115  2.54032e-05      63.4205 
          -5      27.9663  0.000156041  2.54692e-05      63.4187 
          -5      28.1287  0.000155958   2.5564e-05      63.4168 
          -5      28.2914  0.000155873  2.56863e-05       63.415 
          -5      28.4548  0.000155793  2.58324e-05      63.4131 
          -5      28.6185  0.000155725  2.59956e-05      63.4112 
          -5      28.7828  0.000155674  2.61676e-05      63.4093 
          -5      28.9475  0.000155641  2.63383e-05      63.4074 
          -5      29.1126  0.000155626  2.64973e-05      63.4054 
          -5      29.2784  0.000155624  2.66348e-05      63.4035 
          -5      29.4444  0.000155623  2.67421e-05      63.4015 
          -5       29.611  0.000155606  2.68138e-05      63.3995 
          -5       29.778   0.00015555   2.6848e-05      63.3975 
          -5      29.9456  0.000155424  2.68489e-05      63.3955 
          -5      30.1137  0.000155187  2.68275e-05      63.3934 
          -5      30.2821  0.000154788  2.68046e-05      63.3914 
          -5      30.4511   0.00015419  2.68384e-05      63.3893 
          -5      30.6204  0.000154014  2.74056e-05      63.3873 
          -5      30.7903   0.00015387  2.78667e-05      63.3852 
          -5      30.9606  0.000153751    2.823e-05      63.3831 
          -5      31.1315  0.000153653  2.85057e-05      63.3809 
          -5      31.3028   0.00015357  2.87034e-05      63.3788 
          -5      31.4745  0.000153499  2.88332e-05      63.3766 
          -5      31.6468  0.000153434  2.89052e-05      63.3745 
          -5      31.8194  0.000153373  2.89289e-05      63.3723 
          -5      31.9926  0.000153313  2.89136e-05      63.3701 
          -5      32.1662  0.000153255  2.88675e-05      63.3679 
          -5      32.3404  0.000153199  2.87981e-05      63.3656 
          -5      32.5149  0.000153147  2.87119e-05      63.3634 
          -5        32.69  0.000153107  2.86138e-05      63.3611 
          -5      32.8655  0.000153104  2.87707e-05      63.3588 
          -5      33.0414  0.000153093  2.90736e-05      63.3565 
          -5       33.218  0.000153047  2.93055e-05      63.3542 
          -5      33.3948  0.000152971  2.94804e-05      63.3519 
          -5      33.5723  0.000152868  2.96116e-05      63.3496 
          -5        33.75  0.000152744  2.97104e-05      63.3472 
          -5      33.9284    0.0001526   2.9787e-05      63.3448 
          -5      34.1073  0.000152441  2.98501e-05      63.3424 
          -5      34.2865  0.000152271  2.99067e-05        63.34 
          -5      34.4663  0.000152092  2.99628e-05      63.3376 
          -5      34.6465   0.00015191  3.00229e-05      63.3352 
          -5      34.8272  0.000151725  3.00901e-05      63.3327 
          -5      35.0083  0.000151543  3.01664e-05      63.3303 
          -5        35.19  0.000151365  3.02526e-05      63.3278 
          -5      35.3721  0.000151195  3.03484e-05      63.3253 
          -5      35.5546  0.000151033  3.04522e-05      63.3228 
          -5      35.7377  0.000150884   3.0562e-05      63.3202 
          -5      35.9211  0.000150747  3.06745e-05      63.3177 
          -5      36.1052  0.000150625   3.0786e-05      63.3151 
          -5      36.2895  0.000150519   3.0892e-05      63.3126 
          -5      36.4745  0.000150428  3.09878e-05        63.31 
          -5      36.6598  0.000150354  3.10682e-05      63.3074 
          -5      36.8457  0.000150295  3.11282e-05      63.3047 
          -5      37.0321   0.00015025  3.11625e-05      63.3021 
          -5      37.2188  0.000150218  3.11662e-05      63.2994 
          -5      37.4062  0.000150196  3.11351e-05      63.2968 
          -5      37.5938  0.000150181  3.10653e-05      63.2941 
          -5      37.7821  0.000150169  3.09542e-05      63.2914 
          -5      37.9707  0.000150157  3.08004e-05      63.2887 
          -5      38.1599  0.000149902  3.09232e-05      63.2859 
          -5      38.3496  0.000149655  3.10085e-05      63.2832 
          -5      38.5396  0.000149416  3.10682e-05      63.2804 
          -5      38.7302  0.000149187  3.11148e-05      63.2777 
          -5      38.9211  0.000148968  3.11596e-05      63.2749 
          -5      39.1127  0.000148761  3.12131e-05      63.2721 
          -5      39.3046  0.000148567  3.12836e-05      63.2692 
          -5      39.4971  0.000148391  3.13774e-05      63.2664 
          -5      39.6899  0.000148235  3.14978e-05      63.2635 
          -5      39.8833  0.000148106  3.16451e-05      63.2607 
          -5      40.0772  0.000148011  3.18153e-05      63.2578 
          -5      40.2714  0.000147962  3.19997e-05      63.2549 
          -5      40.4663   0.00014797  3.21852e-05       63.252 
          -5      40.6615  0.000148052   3.2352e-05      63.2491 
          -5      40.8573  0.000148228  3.24743e-05      63.2461 
          -5      41.0534   0.00014786  3.26943e-05      63.2431 
          -5      41.2501  0.000147379  3.29111e-05      63.2402 
          -5      41.4473  0.000146993  3.30638e-05      63.2372 
          -5      41.6448  0.000146703  3.31448e-05      63.2342 
          -5      41.8429  0.000146508   3.3151e-05      63.2312 
          -5      42.0414  0.000146409  3.30844e-05      63.2281 
          -5      42.2405  0.000146403   3.2953e-05      63.2251 
          -5      42.4399  0.000146465  3.28319e-05       63.222 
          -5      42.6399  0.000146443  3.29447e-05      63.2189 
          -5      42.8404  0.000146366  3.30883e-05      63.2158 
          -5      43.0412  0.000146245  3.32501e-05      63.2127 
          -5      43.2426   0.00014609  3.34206e-05      63.2096 
          -5      43.4444  0.000145911   3.3592e-05      63.2065 
          -5      43.6467  0.000145715  3.37588e-05      63.2033 
          -5      43.8494  0.000145509  3.39169e-05      63.2001 
          -5      44.0527  0.000145298   3.4064e-05      63.1969 
          -5      44.2563  0.000145086  3.41985e-05      63.1938 
          -5      44.4606  0.000144876  3.43203e-05      63.1905 
          -5      44.6653  0.000144672  3.44299e-05      63.1873 
          -5      44.8704  0.000144475  3.45282e-05      63.1841 
          -5       45.076  0.000144286  3.46168e-05      63.1808 
          -5       45.282  0.000144106  3.46973e-05      63.1775 
          -5      45.4886  0.000143933  3.47714e-05      63.1743 
          -5      45.6955  0.000143769   3.4841e-05       63.171 
          -5       45.903  0.000143612  3.49075e-05      63.1676 
          -5      46.1111  0.000143461  3.49722e-05      63.1643 
          -5      46.3194  0.000143315  3.50361e-05       63.161 
          -5      46.5283  0.000143172  3.50999e-05      63.1576 
          -5      46.7376   0.00014303  3.51635e-05      63.1543 
          -5      46.9475  0.000142889   3.5227e-05      63.1509 
          -5      47.1577  0.000142748  3.52894e-05      63.1475 
          -5      47.3685  0.000142604  3.53501e-05      63.1441 
          -5      47.5798  0.000142457  3.54077e-05      63.1406 
          -5      47.7914  0.000142306  3.54607e-05      63.1372 
          -5      48.0037  0.000142151   3.5508e-05      63.1337 