Variables = x, y, u, v, p

Zone, I=800, F=POINT
         -25            0  2.91797e-19  2.21521e-23      139.707 
         -25     0.000234  1.44556e-05  1.11081e-09      139.707 
         -25     0.000939  5.44567e-05   4.3436e-09      139.707 
         -25     0.002113  0.000110194  9.37567e-09      139.707 
         -25     0.003759  0.000168585  1.57835e-08      139.707 
         -25     0.005872  0.000216387  2.30979e-08      139.707 
         -25     0.008457  0.000244437  3.09819e-08      139.707 
         -25      0.01151  0.000249777  3.92443e-08      139.707 
         -25     0.015036  0.000236601  4.79221e-08      139.707 
         -25     0.019031  0.000214574  5.71906e-08      139.707 
         -25     0.023493  0.000195133  6.72891e-08      139.707 
         -25     0.028429  0.000186716  7.83941e-08      139.707 
         -25     0.033831  0.000190842  9.04367e-08      139.707 
         -25     0.039706    0.0002009  1.03106e-07      139.707 
         -25     0.046047  0.000205566  1.15837e-07      139.707 
         -25     0.052863  0.000196964  1.28036e-07      139.707 
         -25      0.06015  0.000180259  1.39217e-07      139.707 
         -25       0.0679  0.000175538  1.48983e-07      139.707 
         -25     0.076126   0.00019318  1.56279e-07      139.707 
         -25     0.084816  0.000173139  1.57902e-07      139.707 
         -25     0.093982  0.000177473  1.56334e-07      139.707 
         -25     0.103611  0.000177285    1.486e-07      139.707 
         -25     0.113718  0.000175015  1.33485e-07      139.707 
         -25     0.124286  0.000172416  1.09796e-07      139.707 
         -25     0.135333  0.000170459  7.62714e-08      139.707 
         -25      0.14685  0.000169405  3.17149e-08      139.707 
         -25     0.158827  0.000168987 -2.50104e-08      139.707 
         -25     0.171284  0.000168706 -9.51533e-08      139.707 
         -25     0.184201   0.00016819 -1.79704e-07      139.707 
         -25     0.197599  0.000167484 -2.79827e-07      139.707 
         -25     0.211455  0.000167132 -3.96248e-07      139.707 
         -25     0.225792  0.000167768 -5.29855e-07      139.707 
         -25       0.2406  0.000168908 -6.80925e-07      139.707 
         -25     0.255865  0.000168745 -8.49642e-07      139.707 
         -25     0.271613  0.000169795 -1.03707e-06      139.707 
         -25     0.287818  0.000170854 -1.24301e-06      139.707 
         -25     0.304506  0.000171954 -1.46797e-06      139.707 
         -25      0.32165   0.00017311 -1.71098e-06      139.707 
         -25     0.339278  0.000174324 -1.97122e-06      139.707 
         -25     0.357377  0.000175587 -2.24679e-06      139.707 
         -25      0.37593  0.000176876 -2.53537e-06      139.707 
         -25     0.394968  0.000178168 -2.83537e-06      139.707 
         -25     0.414461  0.000179429 -3.14439e-06      139.707 
         -25      0.43444  0.000180634 -3.46152e-06      139.707 
         -25     0.454872  0.000181759 -3.78551e-06      139.707 
         -25     0.475791  0.000182792 -4.11713e-06      139.707 
         -25     0.497163  0.000183729 -4.45711e-06      139.707 
         -25     0.519021  0.000184578 -4.80823e-06      139.707 
         -25      0.54135   0.00018535 -5.17322e-06      139.707 
         -25     0.564131  0.000186051 -5.55484e-06      139.707 
         -25       0.5874  0.000186665 -5.95593e-06      139.706 
         -25     0.611121  0.000187135 -6.37917e-06      139.706 
         -25      0.63533  0.000187585 -6.83948e-06      139.706 
         -25      0.65999  0.000187962 -7.28868e-06      139.706 
         -25     0.685139  0.000188282 -7.72933e-06      139.706 
         -25     0.710759  0.000188559  -8.1626e-06      139.706 
         -25     0.736828  0.000188807 -8.58923e-06      139.706 
         -25     0.763387  0.000189038 -9.01064e-06      139.706 
         -25     0.790396  0.000189261 -9.42659e-06      139.706 
         -25     0.817896  0.000189488 -9.83779e-06      139.706 
         -25     0.845843  0.000189724 -1.02434e-05      139.706 
         -25     0.874283  0.000189979 -1.06437e-05      139.706 
         -25      0.90317  0.000190257 -1.10375e-05      139.706 
         -25     0.932551  0.000190563 -1.14249e-05      139.706 
         -25     0.962401  0.000190902 -1.18049e-05      139.706 
         -25     0.992697  0.000191276 -1.21767e-05      139.706 
         -25      1.02349   0.00019169 -1.25405e-05      139.706 
         -25      1.05472  0.000192145 -1.28955e-05      139.706 
         -25      1.08645  0.000192646 -1.32423e-05      139.706 
         -25      1.11863  0.000193194 -1.35805e-05      139.706 
         -25       1.1513  0.000193793 -1.39111e-05      139.706 
         -25      1.18444  0.000194445 -1.42341e-05      139.706 
         -25      1.21802  0.000195154 -1.45496e-05      139.705 
         -25      1.25211  0.000195922 -1.48583e-05      139.705 
         -25      1.28663   0.00019675  -1.5159e-05      139.705 
         -25      1.32165  0.000197639 -1.54504e-05      139.705 
         -25      1.35712  0.000198586 -1.57287e-05      139.705 
         -25      1.39308  0.000199585 -1.59885e-05      139.705 
         -25      1.42951  0.000200623 -1.62204e-05      139.705 
         -25      1.46638  0.000201679 -1.64105e-05      139.705 
         -25      1.50375  0.000202723 -1.65397e-05      139.705 
         -25      1.54156  0.000203957 -1.66131e-05      139.705 
         -25      1.57987  0.000205339 -1.67238e-05      139.705 
         -25      1.61863  0.000206826   -1.686e-05      139.704 
         -25      1.65788  0.000208393 -1.70085e-05      139.704 
         -25      1.69757  0.000210014 -1.71568e-05      139.704 
         -25      1.73776   0.00021167 -1.72945e-05      139.704 
         -25      1.77842  0.000213339  -1.7412e-05      139.704 
         -25      1.81952  0.000215003 -1.75012e-05      139.704 
         -25      1.86113   0.00021665 -1.75557e-05      139.704 
         -25      1.90316  0.000218265 -1.75704e-05      139.704 
         -25      1.94571   0.00021984 -1.75416e-05      139.703 
         -25      1.98869  0.000221364 -1.74674e-05      139.703 
         -25      2.03217  0.000222833  -1.7347e-05      139.703 
         -25      2.07612  0.000224241 -1.71812e-05      139.703 
         -25      2.12051  0.000225584 -1.69721e-05      139.703 
         -25       2.1654  0.000226861  -1.6723e-05      139.703 
         -25      2.21073  0.000228071 -1.64386e-05      139.702 
         -25      2.25656  0.000229213 -1.61242e-05      139.702 
         -25      2.30283  0.000230288 -1.57869e-05      139.702 
         -25       2.3496  0.000231295 -1.54335e-05      139.702 
         -25      2.39685  0.000232236 -1.50723e-05      139.702 
         -25      2.44452  0.000233108 -1.47122e-05      139.702 
         -25      2.49271  0.000233913 -1.43616e-05      139.701 
         -25      2.54132  0.000234648   -1.403e-05      139.701 
         -25      2.59044  0.000235311 -1.37258e-05      139.701 
         -25         2.64  0.000235897 -1.34582e-05      139.701 
         -25      2.69006  0.000236402 -1.32349e-05        139.7 
         -25      2.74056  0.000236819 -1.30638e-05        139.7 
         -25      2.79156  0.000237142 -1.29512e-05        139.7 
         -25      2.84304   0.00023736 -1.29024e-05        139.7 
         -25      2.89494  0.000237466 -1.29217e-05      139.699 
         -25      2.94735  0.000237451 -1.30114e-05      139.699 
         -25       3.0002  0.000237305  -1.3172e-05      139.699 
         -25      3.05355  0.000237021 -1.34026e-05      139.699 
         -25      3.10733  0.000236594 -1.36995e-05      139.698 
         -25      3.16163  0.000236022 -1.40576e-05      139.698 
         -25      3.21639   0.00023531 -1.44689e-05      139.698 
         -25      3.27158  0.000234468 -1.49227e-05      139.697 
         -25      3.32729  0.000233515 -1.54072e-05      139.697 
         -25      3.38342  0.000232484 -1.59069e-05      139.697 
         -25      3.44007   0.00023142 -1.64055e-05      139.696 
         -25      3.49714  0.000230388 -1.68833e-05      139.696 
         -25      3.55472  0.000229474 -1.73204e-05      139.696 
         -25      3.61273  0.000228791  -1.7694e-05      139.695 
         -25      3.67125  0.000228483 -1.79821e-05      139.695 
         -25      3.73025  0.000228731  -1.8161e-05      139.695 
         -25      3.78967  0.000228782 -1.81679e-05      139.694 
         -25      3.84961  0.000228421 -1.81523e-05      139.694 
         -25      3.90996  0.000228011 -1.81639e-05      139.693 
         -25      3.97084  0.000227585 -1.81991e-05      139.693 
         -25      4.03214  0.000227165 -1.82497e-05      139.693 
         -25      4.09395  0.000226767 -1.83046e-05      139.692 
         -25      4.15624  0.000226401 -1.83506e-05      139.692 
         -25      4.21895  0.000226069 -1.83745e-05      139.691 
         -25      4.28217  0.000225772 -1.83636e-05      139.691 
         -25      4.34582  0.000225504 -1.83078e-05       139.69 
         -25      4.40998  0.000225259 -1.81994e-05       139.69 
         -25      4.47457  0.000225031  -1.8035e-05      139.689 
         -25      4.53968  0.000224809 -1.78151e-05      139.689 
         -25      4.60525  0.000224588 -1.75449e-05      139.688 
         -25      4.67125   0.00022436 -1.72341e-05      139.688 
         -25      4.73777  0.000224121 -1.68956e-05      139.687 
         -25       4.8047  0.000223868 -1.65459e-05      139.687 
         -25      4.87216  0.000223601 -1.62019e-05      139.686 
         -25      4.94003  0.000223322 -1.58806e-05      139.685 
         -25      5.00843  0.000223036 -1.55944e-05      139.685 
         -25      5.07724  0.000222747 -1.53497e-05      139.684 
         -25      5.14658  0.000222462 -1.51405e-05      139.684 
         -25      5.21639  0.000222184 -1.49451e-05      139.683 
         -25      5.28661  0.000221917 -1.47189e-05      139.682 
         -25      5.35736  0.000221657  -1.4387e-05      139.682 
         -25      5.42852  0.000221402 -1.39122e-05      139.681 
         -25      5.50021  0.000221119 -1.34528e-05       139.68 
         -25      5.57231  0.000220753 -1.30381e-05       139.68 
         -25      5.64493  0.000220448 -1.29176e-05      139.679 
         -25      5.71803  0.000220337 -1.29973e-05      139.678 
         -25      5.79154  0.000220187  -1.2981e-05      139.677 
         -25      5.86558  0.000219999 -1.28938e-05      139.677 
         -25      5.94003  0.000219775 -1.27549e-05      139.676 
         -25      6.01501  0.000219522 -1.25779e-05      139.675 
         -25       6.0904  0.000219252 -1.23728e-05      139.674 
         -25      6.16632  0.000218977 -1.21453e-05      139.673 
         -25      6.24271  0.000218709 -1.18991e-05      139.673 
         -25       6.3195  0.000218476   -1.168e-05      139.672 
         -25      6.39683  0.000218292 -1.15265e-05      139.671 
         -25      6.47457  0.000218141 -1.13814e-05       139.67 
         -25      6.55284  0.000218024  -1.1236e-05      139.669 
         -25      6.63152   0.00021794 -1.10814e-05      139.668 
         -25      6.71073  0.000217884 -1.09088e-05      139.667 
         -25      6.79034   0.00021785 -1.07124e-05      139.666 
         -25      6.87049  0.000217828 -1.04888e-05      139.665 
         -25      6.95111  0.000217808 -1.02389e-05      139.664 
         -25      7.03214  0.000217781   -9.967e-06      139.663 
         -25       7.1137  0.000217734 -9.67957e-06      139.662 
         -25      7.19566  0.000217661 -9.38544e-06      139.661 
         -25      7.27816  0.000217554 -9.09176e-06       139.66 
         -25      7.36106  0.000217416 -8.80288e-06      139.659 
         -25      7.44451  0.000217252 -8.51456e-06      139.658 
         -25      7.52842  0.000217083 -8.21059e-06      139.657 
         -25      7.61273  0.000216939 -7.85615e-06      139.656 
         -25      7.69758   0.00021687 -7.38954e-06      139.655 
         -25      7.78283  0.000216947 -6.71586e-06      139.654 
         -25      7.86862  0.000216868 -6.20687e-06      139.653 
         -25      7.95481  0.000216513 -6.26361e-06      139.651 
         -25      8.04155  0.000216202 -6.49635e-06       139.65 
         -25      8.12868  0.000215888 -6.52958e-06      139.649 
         -25      8.21635  0.000215782 -5.86974e-06      139.648 
         -25      8.30449  0.000215652 -5.33703e-06      139.646 
         -25      8.39303  0.000215521  -4.9096e-06      139.645 
         -25      8.48211  0.000215405  -4.5612e-06      139.644 
         -25      8.57159  0.000215309 -4.26445e-06      139.643 
         -25      8.66161  0.000215237 -3.98944e-06      139.641 
         -25      8.75203  0.000215185  -3.7067e-06       139.64 
         -25      8.84299  0.000215093 -3.41158e-06      139.638 
         -25      8.93443  0.000215021 -3.11305e-06      139.637 
         -25      9.02626  0.000214989 -2.81028e-06      139.636 
         -25      9.11863  0.000214983 -2.50575e-06      139.634 
         -25      9.21139  0.000214991 -2.20118e-06      139.633 
         -25      9.30471  0.000215004 -1.89607e-06      139.631 
         -25      9.39841  0.000215014 -1.59002e-06       139.63 
         -25      9.49267  0.000215013 -1.28119e-06      139.628 
         -25      9.58739  0.000214998 -9.68368e-07      139.626 
         -25      9.68251  0.000214965 -6.50492e-07      139.625 
         -25      9.77817  0.000214912 -3.26124e-07      139.623 
         -25      9.87422   0.00021484  4.62513e-09      139.622 
         -25      9.97083  0.000214749  3.42082e-07       139.62 
         -25      10.0678   0.00021464  6.84909e-07      139.618 
         -25      10.1654  0.000214518  1.03238e-06      139.617 
         -25      10.2633  0.000214385  1.38237e-06      139.615 
         -25      10.3618  0.000214244  1.73395e-06      139.613 
         -25      10.4607  0.000214097  2.08584e-06      139.611 
         -25      10.5601  0.000213948  2.43785e-06       139.61 
         -25        10.66  0.000213794   2.7925e-06      139.608 
         -25      10.7603  0.000213635  3.15386e-06      139.606 
         -25      10.8611  0.000213464  3.53101e-06      139.604 
         -25      10.9623  0.000213271  3.93687e-06      139.602 
         -25      11.0641  0.000213043  4.39215e-06        139.6 
         -25      11.1663  0.000213039  4.77882e-06      139.598 
         -25       11.269  0.000213459  4.96409e-06      139.596 
         -25      11.3721  0.000213807  5.18784e-06      139.594 
         -25      11.4757  0.000214072  5.45024e-06      139.592 
         -25      11.5798  0.000214246   5.7486e-06       139.59 
         -25      11.6844  0.000214326  6.07709e-06      139.588 
         -25      11.7894  0.000214317  6.43001e-06      139.586 
         -25       11.895  0.000214227  6.80122e-06      139.584 
         -25      12.0009  0.000214071  7.18586e-06      139.581 
         -25      12.1073   0.00021387  7.58225e-06      139.579 
         -25      12.2142   0.00021365  7.99041e-06      139.577 
         -25      12.3216  0.000213441  8.41508e-06      139.575 
         -25      12.4294  0.000213278  8.86334e-06      139.572 
         -25      12.5378  0.000213199  9.34735e-06       139.57 
         -25      12.6465  0.000213241  9.88118e-06      139.568 
         -25      12.7558  0.000213322  1.02649e-05      139.565 
         -25      12.8656  0.000213182  1.03789e-05      139.563 
         -25      12.9757  0.000212995  1.06625e-05      139.561 
         -25      13.0864  0.000212778  1.10769e-05      139.558 
         -25      13.1975  0.000212545  1.15827e-05      139.556 
         -25      13.3092  0.000212309  1.21435e-05      139.553 
         -25      13.4212   0.00021208  1.27245e-05       139.55 
         -25      13.5338  0.000211867  1.32969e-05      139.548 
         -25      13.6468  0.000211678  1.38364e-05      139.545 
         -25      13.7603  0.000211521  1.43261e-05      139.543 
         -25      13.8743  0.000211402  1.47596e-05       139.54 
         -25      13.9886   0.00021133  1.51397e-05      139.537 
         -25      14.1036  0.000211316  1.54831e-05      139.534 
         -25      14.2189  0.000211376    1.582e-05      139.532 
         -25      14.3348  0.000211534  1.61983e-05      139.529 
         -25       14.451  0.000211821  1.66836e-05      139.526 
         -25      14.5678  0.000212282  1.73637e-05      139.523 
         -25      14.6851  0.000212116  1.76903e-05       139.52 
         -25      14.8028  0.000211745  1.78934e-05      139.517 
         -25       14.921  0.000211453  1.81604e-05      139.514 
         -25      15.0396  0.000211219  1.84647e-05      139.511 
         -25      15.1588  0.000211027  1.87862e-05      139.508 
         -25      15.2783  0.000210862  1.91086e-05      139.505 
         -25      15.3984  0.000210714   1.9421e-05      139.502 
         -25       15.519  0.000210575  1.97155e-05      139.499 
         -25        15.64  0.000210441  1.99876e-05      139.496 
         -25      15.7615  0.000210308  2.02362e-05      139.492 
         -25      15.8834  0.000210176  2.04615e-05      139.489 
         -25      16.0058  0.000210045  2.06661e-05      139.486 
         -25      16.1286  0.000209917  2.08533e-05      139.482 
         -25       16.252  0.000209793  2.10278e-05      139.479 
         -25      16.3759  0.000209677  2.11938e-05      139.476 
         -25      16.5002  0.000209573  2.13558e-05      139.472 
         -25       16.625  0.000209484  2.15181e-05      139.469 
         -25      16.7501  0.000209414  2.16833e-05      139.465 
         -25      16.8759  0.000209364  2.18539e-05      139.462 
         -25       17.002  0.000209339  2.20298e-05      139.458 
         -25      17.1287  0.000209339  2.22103e-05      139.454 
         -25      17.2557  0.000209367   2.2392e-05      139.451 
         -25      17.3834  0.000209422  2.25701e-05      139.447 
         -25      17.5115  0.000209504  2.27374e-05      139.443 
         -25      17.6399  0.000209612  2.28849e-05      139.439 
         -25       17.769  0.000209744  2.30015e-05      139.436 
         -25      17.8984  0.000209799  2.32308e-05      139.432 
         -25      18.0284  0.000209747  2.36648e-05      139.428 
         -25      18.1587   0.00020965  2.41751e-05      139.424 
         -25      18.2896  0.000209486  2.47306e-05       139.42 
         -25       18.421  0.000209238  2.52789e-05      139.416 
         -25      18.5528  0.000208895  2.57438e-05      139.412 
         -25      18.6851  0.000208451  2.60232e-05      139.408 
         -25      18.8178  0.000207911  2.59835e-05      139.404 
         -25      18.9511  0.000207693  2.65934e-05      139.399 
         -25      19.0847  0.000207553   2.7285e-05      139.395 
         -25      19.2189  0.000207344  2.77662e-05      139.391 
         -25      19.3535   0.00020708  2.81251e-05      139.387 
         -25      19.4886  0.000206777  2.84249e-05      139.382 
         -25      19.6242  0.000206472  2.87181e-05      139.378 
         -25      19.7602  0.000206273  2.90244e-05      139.373 
         -25      19.8968  0.000206152  2.93061e-05      139.369 
         -25      20.0337   0.00020607  2.95576e-05      139.364 
         -25      20.1712     0.000206   2.9781e-05       139.36 
         -25      20.3091  0.000205923  2.99826e-05      139.355 
         -25      20.4475  0.000205829  3.01725e-05      139.351 
         -25      20.5864  0.000205712  3.03616e-05      139.346 
         -25      20.7257  0.000205573  3.05611e-05      139.341 
         -25      20.8655  0.000205413   3.0781e-05      139.336 
         -25      21.0058  0.000205239  3.10285e-05      139.332 
         -25      21.1465  0.000205056  3.13083e-05      139.327 
         -25      21.2877   0.00020487  3.16206e-05      139.322 
         -25      21.4294  0.000204685  3.19626e-05      139.317 
         -25      21.5716  0.000204505  3.23269e-05      139.312 
         -25      21.7142  0.000204332  3.27024e-05      139.307 
         -25      21.8573  0.000204164  3.30763e-05      139.302 
         -25      22.0008  0.000204001  3.34327e-05      139.297 
         -25      22.1449  0.000203839  3.37568e-05      139.292 
         -25      22.2893  0.000203673  3.40344e-05      139.286 
         -25      22.4344  0.000203498  3.42563e-05      139.281 
         -25      22.5797  0.000203312  3.44194e-05      139.276 
         -25      22.7257  0.000203114  3.45315e-05       139.27 
         -25      22.8721  0.000202909  3.46141e-05      139.265 
         -25      23.0189  0.000202707  3.47071e-05       139.26 
         -25      23.1663   0.00020253  3.48743e-05      139.254 
         -25       23.314  0.000202411  3.52081e-05      139.249 
         -25      23.4623  0.000202399   3.5837e-05      139.243 
         -25       23.611  0.000202563  3.69303e-05      139.237 
         -25      23.7602  0.000202158  3.74493e-05      139.232 
         -25        23.91  0.000201172  3.69749e-05      139.226 
         -25        24.06  0.000200548  3.68194e-05       139.22 
         -25      24.2107  0.000200189  3.68989e-05      139.215 
         -25      24.3617  0.000200014  3.71424e-05      139.209 
         -25      24.5133  0.000199957  3.74907e-05      139.203 
         -25      24.6653  0.000199965  3.78949e-05      139.197 
         -25      24.8178  0.000199995   3.8317e-05      139.191 
         -25      24.9708  0.000200019  3.87273e-05      139.185 
         -25      25.1242  0.000200013  3.91043e-05      139.179 
         -25      25.2781  0.000199966   3.9435e-05      139.173 
         -25      25.4324  0.000199869  3.97115e-05      139.166 
         -25      25.5873  0.000199723  3.99327e-05       139.16 
         -25      25.7426  0.000199529  4.01015e-05      139.154 
         -25      25.8984  0.000199295  4.02253e-05      139.148 
         -25      26.0546  0.000199028  4.03141e-05      139.141 
         -25      26.2114   0.00019874  4.03803e-05      139.135 
         -25      26.3686   0.00019844  4.04378e-05      139.128 
         -25      26.5262  0.000198139  4.05008e-05      139.122 
         -25      26.6844  0.000197846  4.05836e-05      139.115 
         -25      26.8429  0.000197568   4.0699e-05      139.109 
         -25       27.002  0.000197312  4.08585e-05      139.102 
         -25      27.1615   0.00019708  4.10707e-05      139.095 
         -25      27.3216  0.000196874  4.13413e-05      139.088 
         -25      27.4821   0.00019669  4.16719e-05      139.082 
         -25       27.643  0.000196526  4.20591e-05      139.075 
         -25      27.8044  0.000196373  4.24954e-05      139.068 
         -25      27.9663  0.000196223  4.29663e-05      139.061 
         -25      28.1287  0.000196066  4.34524e-05      139.054 
         -25      28.2914  0.000195889  4.39261e-05      139.047 
         -25      28.4548  0.000195682  4.43542e-05       139.04 
         -25      28.6185  0.000195435  4.46945e-05      139.033 
         -25      28.7828  0.000195146  4.47382e-05      139.025 
         -25      28.9475  0.000195075  4.44325e-05      139.018 
         -25      29.1126   0.00019534  4.39574e-05      139.011 
         -25      29.2784  0.000194566  4.43628e-05      139.004 
         -25      29.4444  0.000193918  4.48535e-05      138.996 
         -25       29.611  0.000193736  4.53488e-05      138.989 
         -25       29.778  0.000193692  4.57385e-05      138.981 
         -25      29.9456  0.000193635  4.60402e-05      138.974 
         -25      30.1137  0.000193538  4.63079e-05      138.966 
         -25      30.2821  0.000193385  4.65775e-05      138.958 
         -25      30.4511  0.000193169  4.68699e-05      138.951 
         -25      30.6204  0.000192891  4.71929e-05      138.943 
         -25      30.7903  0.000192556  4.75459e-05      138.935 
         -25      30.9606  0.000192174    4.792e-05      138.927 
         -25      31.1315  0.000191757  4.83031e-05      138.919 
         -25      31.3028  0.000191319  4.86798e-05      138.912 
         -25      31.4745  0.000190875  4.90341e-05      138.904 
         -25      31.6468  0.000190437  4.93522e-05      138.896 
         -25      31.8194  0.000190018  4.96221e-05      138.887 
         -25      31.9926  0.000189627  4.98361e-05      138.879 
         -25      32.1662  0.000189272  4.99907e-05      138.871 
         -25      32.3404  0.000188953  5.00878e-05      138.863 
         -25      32.5149  0.000188673  5.01344e-05      138.855 
         -25        32.69  0.000188426  5.01427e-05      138.846 
         -25      32.8655  0.000188204   5.0129e-05      138.838 
         -25      33.0414  0.000187999  5.01134e-05      138.829 
         -25       33.218  0.000187796  5.01177e-05      138.821 
         -25      33.3948  0.000187581  5.01638e-05      138.812 
         -25      33.5723   0.00018734  5.02713e-05      138.804 
         -25        33.75  0.000187058  5.04547e-05      138.795 
         -25      33.9284  0.000186723  5.07199e-05      138.786 
         -25      34.1073  0.000186328  5.10601e-05      138.778 
         -25      34.2865  0.000185874  5.14513e-05      138.769 
         -25      34.4663  0.000185406  5.16689e-05       138.76 
         -25      34.6465  0.000185235  5.13265e-05      138.751 
         -25      34.8272  0.000185237  5.12312e-05      138.742 
         -25      35.0083  0.000185317  5.12958e-05      138.733 
         -25        35.19  0.000185404   5.1455e-05      138.724 
         -25      35.3721   0.00018545  5.16623e-05      138.715 
         -25      35.5546  0.000185425  5.18866e-05      138.706 
         -25      35.7377  0.000185313  5.21103e-05      138.697 
         -25      35.9211  0.000185113  5.23248e-05      138.688 
         -25      36.1052  0.000184833  5.25297e-05      138.678 
         -25      36.2895  0.000184486  5.27286e-05      138.669 
         -25      36.4745  0.000184092  5.29286e-05       138.66 
         -25      36.6598  0.000183669  5.31368e-05       138.65 
         -25      36.8457  0.000183235  5.33599e-05      138.641 
         -25      37.0321  0.000182805  5.36019e-05      138.631 
         -25      37.2188  0.000182388   5.3863e-05      138.622 
         -25      37.4062  0.000181984  5.41396e-05      138.612 
         -25      37.5938  0.000181584  5.44221e-05      138.602 
         -25      37.7821  0.000181165  5.46968e-05      138.593 
         -25      37.9707  0.000180694  5.49439e-05      138.583 
         -25      38.1599  0.000180119  5.51397e-05      138.573 
         -25      38.3496  0.000179375  5.52565e-05      138.563 
         -25      38.5396  0.000178977  5.53143e-05      138.553 
         -25      38.7302  0.000179208  5.53222e-05      138.543 
         -25      38.9211  0.000179301  5.52605e-05      138.533 
         -25      39.1127  0.000179257  5.51784e-05      138.523 
         -25      39.3046  0.000179087  5.51166e-05      138.513 
         -25      39.4971  0.000178806  5.51061e-05      138.503 
         -25      39.6899   0.00017844  5.51669e-05      138.493 
         -25      39.8833   0.00017802  5.53077e-05      138.483 
         -25      40.0772  0.000177585  5.55244e-05      138.473 
         -25      40.2714  0.000177181  5.57988e-05      138.462 
         -25      40.4663  0.000176858  5.60988e-05      138.452 
         -25      40.6615  0.000176675  5.63753e-05      138.441 
         -25      40.8573  0.000176694  5.65636e-05      138.431 
         -25      41.0534  0.000176669  5.64705e-05       138.42 
         -25      41.2501  0.000176316  5.62602e-05       138.41 
         -25      41.4473  0.000175973  5.61666e-05      138.399 
         -25      41.6448  0.000175637  5.61701e-05      138.389 
         -25      41.8429  0.000175304   5.6253e-05      138.378 
         -25      42.0414  0.000174971  5.63992e-05      138.367 
         -25      42.2405  0.000174635  5.65944e-05      138.357 
         -25      42.4399  0.000174296  5.68257e-05      138.346 
         -25      42.6399  0.000173951  5.70821e-05      138.335 
         -25      42.8404  0.000173599  5.73535e-05      138.324 
         -25      43.0412  0.000173242  5.76311e-05      138.313 
         -25      43.2426  0.000172878  5.79081e-05      138.302 
         -25      43.4444  0.000172509  5.81778e-05      138.291 
         -25      43.6467  0.000172134  5.84357e-05       138.28 
         -25      43.8494  0.000171756  5.86774e-05      138.269 
         -25      44.0527  0.000171376     5.89e-05      138.258 
         -25      44.2563  0.000170995  5.91012e-05      138.246 
         -25      44.4606  0.000170615  5.92799e-05      138.235 
         -25      44.6653  0.000170238  5.94351e-05      138.224 
         -25      44.8704  0.000169867   5.9567e-05      138.212 
         -25       45.076  0.000169503  5.96763e-05      138.201 
         -25       45.282  0.000169148  5.97642e-05       138.19 
         -25      45.4886  0.000168805  5.98325e-05      138.178 
         -25      45.6955  0.000168475  5.98833e-05      138.167 
         -25       45.903   0.00016816  5.99192e-05      138.155 
         -25      46.1111  0.000167861  5.99432e-05      138.144 
         -25      46.3194   0.00016758  5.99585e-05      138.132 
         -25      46.5283  0.000167318  5.99687e-05       138.12 
         -25      46.7376  0.000167074  5.99775e-05      138.109 
         -25      46.9475  0.000166849  5.99891e-05      138.097 
         -25      47.1577  0.000166642  6.00075e-05      138.085 
         -25      47.3685  0.000166452  6.00373e-05      138.073 
         -25      47.5798  0.000166278  6.00829e-05      138.061 
         -25      47.7914  0.000166115   6.0149e-05       138.05 
         -25      48.0037  0.000165946  6.02327e-05      138.038 