Variables = x, y, u, v, p

Zone, I=800, F=POINT
         750            0            0            0      24.4492 
         750     0.000234  7.99508e-06  3.82785e-11      24.4492 
         750     0.000939  3.01297e-05  6.16985e-10      24.4492 
         750     0.002113  6.09967e-05  3.11736e-09      24.4492 
         750     0.003759  9.33433e-05  9.83043e-09      24.4492 
         750     0.005872  0.000119745  2.38745e-08      24.4492 
         750     0.008457    0.0001349   4.9231e-08      24.4492 
         750      0.01151  0.000136798  9.05562e-08      24.4492 
         750     0.015036  0.000127263  1.53287e-07      24.4492 
         750     0.019031   0.00011111  2.43305e-07      24.4492 
         750     0.023493  9.42085e-05  3.66944e-07      24.4492 
         750     0.028429  8.09482e-05  5.31179e-07      24.4492 
         750     0.033831  7.21872e-05  7.42749e-07      24.4492 
         750     0.039706  6.45212e-05  1.00904e-06      24.4492 
         750     0.046047  5.20993e-05  1.33681e-06      24.4492 
         750     0.052863  3.08117e-05  1.73347e-06      24.4492 
         750      0.06015  3.38477e-06  2.20547e-06      24.4492 
         750       0.0679 -1.96529e-05  2.75845e-06      24.4492 
         750     0.076126 -3.30121e-05  3.39897e-06      24.4492 
         750     0.084816 -6.83466e-05  4.13107e-06      24.4492 
         750     0.093982 -9.22227e-05  4.95994e-06      24.4492 
         750     0.103611 -0.000120311  5.88768e-06      24.4492 
         750     0.113718 -0.000151156  6.91813e-06      24.4492 
         750     0.124286 -0.000183565  8.05089e-06      24.4492 
         750     0.135333 -0.000216852  9.28817e-06      24.4492 
         750      0.14685 -0.000250625  1.06283e-05      24.4492 
         750     0.158827 -0.000284762  1.20681e-05      24.4492 
         750     0.171284 -0.000319338  1.36072e-05      24.4492 
         750     0.184201 -0.000354231  1.52393e-05      24.4492 
         750     0.197599 -0.000389191  1.69624e-05      24.4492 
         750     0.211455 -0.000423575   1.8768e-05      24.4492 
         750     0.225792 -0.000456809  2.06529e-05      24.4492 
         750       0.2406  -0.00048888  2.26089e-05      24.4492 
         750     0.255865 -0.000520524  2.46269e-05      24.4492 
         750     0.271613 -0.000550144  2.67031e-05      24.4492 
         750     0.287818 -0.000578166  2.88265e-05      24.4492 
         750     0.304506 -0.000604443  3.09927e-05      24.4492 
         750      0.32165 -0.000628775  3.31907e-05      24.4492 
         750     0.339278 -0.000651082  3.54167e-05      24.4492 
         750     0.357377 -0.000671262  3.76624e-05      24.4492 
         750      0.37593 -0.000689254  3.99195e-05      24.4492 
         750     0.394968 -0.000705078  4.21862e-05      24.4492 
         750     0.414461 -0.000718727  4.44542e-05      24.4492 
         750      0.43444 -0.000730271   4.6723e-05      24.4492 
         750     0.454872 -0.000739757  4.89854e-05      24.4492 
         750     0.475791 -0.000747283  5.12426e-05      24.4492 
         750     0.497163 -0.000752927  5.34894e-05      24.4492 
         750     0.519021 -0.000756795  5.57283e-05      24.4492 
         750      0.54135  -0.00075898  5.79579e-05      24.4492 
         750     0.564131 -0.000759592  6.01776e-05      24.4492 
         750       0.5874 -0.000758754  6.23934e-05      24.4492 
         750     0.611121 -0.000756612  6.46062e-05      24.4492 
         750      0.63533 -0.000753172  6.68197e-05      24.4492 
         750      0.65999 -0.000748614    6.903e-05      24.4492 
         750     0.685139 -0.000742992  7.12469e-05      24.4492 
         750     0.710759 -0.000736361  7.34749e-05      24.4492 
         750     0.736828 -0.000728771   7.5718e-05      24.4492 
         750     0.763387  -0.00072024  7.79855e-05      24.4492 
         750     0.790396 -0.000710805  8.02793e-05      24.4492 
         750     0.817896 -0.000700466   8.2608e-05      24.4492 
         750     0.845843 -0.000689249  8.49722e-05      24.4492 
         750     0.874283 -0.000677136  8.73801e-05      24.4492 
         750      0.90317 -0.000664149  8.98311e-05      24.4492 
         750     0.932551 -0.000650265  9.23323e-05      24.4492 
         750     0.962401 -0.000635499  9.48836e-05      24.4492 
         750     0.992697  -0.00061987  9.74847e-05      24.4492 
         750      1.02349 -0.000603369  0.000100141      24.4492 
         750      1.05472 -0.000586051  0.000102847      24.4492 
         750      1.08645  -0.00056793  0.000105608      24.4492 
         750      1.11863 -0.000549093  0.000108417      24.4492 
         750       1.1513 -0.000529589  0.000111276      24.4492 
         750      1.18444 -0.000509529  0.000114179      24.4492 
         750      1.21802 -0.000489048   0.00011712      24.4492 
         750      1.25211 -0.000468249  0.000120097      24.4492 
         750      1.28663 -0.000447316  0.000123098      24.4492 
         750      1.32165 -0.000426379   0.00012612      24.4492 
         750      1.35712 -0.000405634  0.000129148      24.4492 
         750      1.39308 -0.000385204  0.000132174      24.4492 
         750      1.42951 -0.000365236  0.000135181      24.4492 
         750      1.46638 -0.000345835   0.00013815      24.4492 
         750      1.50375  -0.00032699  0.000141065      24.4492 
         750      1.54156  -0.00030842  0.000143999      24.4492 
         750      1.57987 -0.000290957  0.000146885      24.4492 
         750      1.61863 -0.000274533   0.00014971      24.4492 
         750      1.65788 -0.000258985  0.000152478      24.4492 
         750      1.69757 -0.000244209  0.000155183      24.4492 
         750      1.73776  -0.00023006   0.00015783      24.4492 
         750      1.77842 -0.000216434  0.000160414      24.4492 
         750      1.81952 -0.000203236  0.000162933      24.4492 
         750      1.86113  -0.00019035   0.00016539      24.4492 
         750      1.90316 -0.000177708  0.000167778      24.4492 
         750      1.94571 -0.000165212  0.000170102      24.4492 
         750      1.98869 -0.000152815  0.000172356      24.4492 
         750      2.03217 -0.000140438  0.000174542      24.4492 
         750      2.07612 -0.000128042  0.000176657      24.4492 
         750      2.12051 -0.000115598  0.000178698      24.4492 
         750       2.1654 -0.000103057  0.000180666      24.4492 
         750      2.21073 -9.04159e-05  0.000182557      24.4492 
         750      2.25656 -7.76436e-05  0.000184373      24.4492 
         750      2.30283  -6.4755e-05  0.000186109      24.4492 
         750       2.3496 -5.17329e-05  0.000187766      24.4492 
         750      2.39685 -3.85962e-05   0.00018934      24.4492 
         750      2.44452 -2.53708e-05   0.00019083      24.4492 
         750      2.49271 -1.20561e-05  0.000192235      24.4492 
         750      2.54132  1.30309e-06  0.000193551      24.4492 
         750      2.59044  1.47005e-05   0.00019478      24.4492 
         750         2.64  2.80854e-05  0.000195917      24.4492 
         750      2.69006  4.14479e-05  0.000196963      24.4492 
         750      2.74056  5.47359e-05  0.000197914      24.4492 
         750      2.79156  6.79398e-05  0.000198771      24.4492 
         750      2.84304  8.10199e-05   0.00019953      24.4492 
         750      2.89494  9.39394e-05   0.00020019      24.4492 
         750      2.94735  0.000106695  0.000200752      24.4492 
         750       3.0002  0.000119245  0.000201212      24.4492 
         750      3.05355  0.000131593   0.00020157      24.4492 
         750      3.10733  0.000143706  0.000201826      24.4492 
         750      3.16163  0.000155594  0.000201979      24.4492 
         750      3.21639   0.00016724  0.000202028      24.4492 
         750      3.27158  0.000178629  0.000201973      24.4492 
         750      3.32729  0.000189777  0.000201813      24.4492 
         750      3.38342   0.00020066   0.00020155      24.4492 
         750      3.44007  0.000211286  0.000201183      24.4492 
         750      3.49714  0.000221622  0.000200714      24.4492 
         750      3.55472  0.000231659  0.000200142      24.4492 
         750      3.61273  0.000241339   0.00019947      24.4492 
         750      3.67125  0.000250615  0.000198698      24.4492 
         750      3.73025  0.000259389  0.000197829      24.4492 
         750      3.78967  0.000267864  0.000196889      24.4492 
         750      3.84961  0.000276002  0.000195872      24.4492 
         750      3.90996  0.000283652  0.000194771      24.4492 
         750      3.97084  0.000290821  0.000193586      24.4492 
         750      4.03214  0.000297493  0.000192321      24.4492 
         750      4.09395  0.000303679  0.000190975      24.4492 
         750      4.15624  0.000309373  0.000189552      24.4492 
         750      4.21895  0.000314575  0.000188057      24.4492 
         750      4.28217  0.000319297   0.00018649      24.4492 
         750      4.34582   0.00032354  0.000184857      24.4492 
         750      4.40998  0.000327319   0.00018316      24.4492 
         750      4.47457  0.000330639  0.000181405      24.4492 
         750      4.53968  0.000333517  0.000179593      24.4493 
         750      4.60525  0.000335965  0.000177731      24.4493 
         750      4.67125  0.000337996  0.000175825      24.4493 
         750      4.73777  0.000339632  0.000173876      24.4493 
         750       4.8047  0.000340887  0.000171892      24.4493 
         750      4.87216  0.000341783  0.000169875      24.4493 
         750      4.94003  0.000342339  0.000167833      24.4493 
         750      5.00843  0.000342575  0.000165768      24.4493 
         750      5.07724  0.000342513  0.000163688      24.4493 
         750      5.14658  0.000342176  0.000161595      24.4493 
         750      5.21639  0.000341584  0.000159494      24.4493 
         750      5.28661  0.000340761  0.000157393      24.4493 
         750      5.35736  0.000339728  0.000155292      24.4493 
         750      5.42852  0.000338507  0.000153198      24.4493 
         750      5.50021  0.000337119  0.000151113      24.4493 
         750      5.57231  0.000335585  0.000149043      24.4493 
         750      5.64493  0.000333922  0.000146989      24.4493 
         750      5.71803  0.000332152  0.000144954      24.4493 
         750      5.79154  0.000330292  0.000142943      24.4493 
         750      5.86558  0.000328355  0.000140955      24.4493 
         750      5.94003  0.000326359  0.000138995      24.4493 
         750      6.01501  0.000324313   0.00013706      24.4493 
         750       6.0904  0.000322233  0.000135156      24.4493 
         750      6.16632  0.000320122  0.000133278      24.4493 
         750      6.24271  0.000317992  0.000131429      24.4493 
         750       6.3195  0.000315847   0.00012961      24.4493 
         750      6.39683  0.000313761  0.000127837      24.4493 
         750      6.47457  0.000311693  0.000126108      24.4493 
         750      6.55284  0.000309619  0.000124413      24.4493 
         750      6.63152  0.000307546  0.000122754      24.4493 
         750      6.71073  0.000305472  0.000121125      24.4493 
         750      6.79034  0.000303398  0.000119524      24.4493 
         750      6.87049  0.000301322  0.000117945      24.4493 
         750      6.95111  0.000299244  0.000116385      24.4493 
         750      7.03214  0.000297162  0.000114838      24.4493 
         750       7.1137  0.000295071  0.000113297      24.4493 
         750      7.19566  0.000292973   0.00011176      24.4493 
         750      7.27816  0.000290865  0.000110218      24.4493 
         750      7.36106  0.000288749  0.000108669      24.4493 
         750      7.44451  0.000286626  0.000107106      24.4493 
         750      7.52842  0.000284504   0.00010553      24.4493 
         750      7.61273  0.000282392  0.000103939      24.4493 
         750      7.69758  0.000280269  0.000102539      24.4493 
         750      7.78283   0.00027815  0.000101167      24.4493 
         750      7.86862  0.000276043   9.9771e-05      24.4493 
         750      7.95481  0.000273957  9.83597e-05      24.4493 
         750      8.04155  0.000271891  9.69388e-05      24.4493 
         750      8.12868  0.000269849  9.55177e-05      24.4493 
         750      8.21635  0.000267828  9.41007e-05      24.4493 
         750      8.30449  0.000265829  9.26953e-05      24.4493 
         750      8.39303  0.000263852  9.13085e-05      24.4493 
         750      8.48211  0.000261892  8.99437e-05      24.4493 
         750      8.57159  0.000259952  8.86084e-05      24.4493 
         750      8.66161  0.000258026  8.73051e-05      24.4493 
         750      8.75203  0.000256118  8.60407e-05      24.4493 
         750      8.84299  0.000254231  8.47547e-05      24.4493 
         750      8.93443  0.000252378  8.33379e-05      24.4493 
         750      9.02626  0.000250533  8.19944e-05      24.4494 
         750      9.11863  0.000248693  8.07073e-05      24.4494 
         750      9.21139  0.000246861  7.94653e-05      24.4494 
         750      9.30471  0.000245036   7.8255e-05      24.4494 
         750      9.39841  0.000243223  7.70685e-05      24.4494 
         750      9.49267  0.000241422  7.58958e-05      24.4494 
         750      9.58739  0.000239639  7.47316e-05      24.4494 
         750      9.68251  0.000237879  7.35722e-05      24.4494 
         750      9.77817  0.000236142  7.24131e-05      24.4494 
         750      9.87422  0.000234434  7.12546e-05      24.4494 
         750      9.97083  0.000232756   7.0095e-05      24.4494 
         750      10.0678  0.000231113  6.89377e-05      24.4494 
         750      10.1654  0.000229503  6.77833e-05      24.4494 
         750      10.2633   0.00022793  6.66369e-05      24.4494 
         750      10.3618   0.00022639  6.55005e-05      24.4494 
         750      10.4607  0.000224883  6.43791e-05      24.4494 
         750      10.5601  0.000223407  6.32773e-05      24.4494 
         750        10.66  0.000221955  6.21963e-05      24.4494 
         750      10.7603  0.000220522  6.11397e-05      24.4494 
         750      10.8611  0.000219098  6.01059e-05      24.4494 
         750      10.9623  0.000217676  5.90939e-05      24.4494 
         750      11.0641  0.000216242  5.80964e-05      24.4494 
         750      11.1663  0.000214784  5.71044e-05      24.4494 
         750       11.269  0.000213289  5.61039e-05      24.4494 
         750      11.3721  0.000211773  5.51167e-05      24.4494 
         750      11.4757  0.000210344  5.42032e-05      24.4494 
         750      11.5798   0.00020895  5.32759e-05      24.4494 
         750      11.6844   0.00020759  5.23501e-05      24.4494 
         750      11.7894  0.000206259  5.14344e-05      24.4494 
         750       11.895  0.000204956  5.05368e-05      24.4494 
         750      12.0009  0.000203682  4.96622e-05      24.4494 
         750      12.1073  0.000202433  4.88112e-05      24.4494 
         750      12.2142  0.000201212   4.7985e-05      24.4494 
         750      12.3216  0.000200016  4.71806e-05      24.4494 
         750      12.4294  0.000198847  4.63962e-05      24.4494 
         750      12.5378  0.000197705  4.56266e-05      24.4494 
         750      12.6465   0.00019659  4.48688e-05      24.4494 
         750      12.7558    0.0001955   4.4117e-05      24.4494 
         750      12.8656  0.000194435  4.33679e-05      24.4494 
         750      12.9757  0.000193393  4.26189e-05      24.4494 
         750      13.0864  0.000192371  4.18669e-05      24.4494 
         750      13.1975  0.000191365   4.1113e-05      24.4494 
         750      13.3092  0.000190368  4.03578e-05      24.4494 
         750      13.4212  0.000189373  3.96071e-05      24.4494 
         750      13.5338  0.000188371  3.88675e-05      24.4494 
         750      13.6468  0.000187349  3.81507e-05      24.4494 
         750      13.7603  0.000186439  3.74722e-05      24.4494 
         750      13.8743   0.00018553  3.68074e-05      24.4494 
         750      13.9886  0.000184608  3.61538e-05      24.4494 
         750      14.1036  0.000183679   3.5509e-05      24.4494 
         750      14.2189  0.000182753   3.4873e-05      24.4494 
         750      14.3348  0.000181835  3.42444e-05      24.4494 
         750       14.451  0.000180935  3.36243e-05      24.4494 
         750      14.5678  0.000180058  3.30125e-05      24.4494 
         750      14.6851  0.000179209  3.24112e-05      24.4494 
         750      14.8028  0.000178391  3.18234e-05      24.4494 
         750       14.921  0.000177604  3.12517e-05      24.4494 
         750      15.0396  0.000176845  3.07015e-05      24.4494 
         750      15.1588  0.000176107  3.01776e-05      24.4494 
         750      15.2783  0.000175378  2.96874e-05      24.4494 
         750      15.3984   0.00017464  2.92378e-05      24.4494 
         750       15.519  0.000173868  2.88381e-05      24.4494 
         750        15.64  0.000173042  2.84846e-05      24.4494 
         750      15.7615  0.000172444  2.78002e-05      24.4494 
         750      15.8834  0.000171817  2.71732e-05      24.4494 
         750      16.0058  0.000171169  2.65949e-05      24.4494 
         750      16.1286  0.000170508   2.6059e-05      24.4494 
         750       16.252  0.000169839   2.5558e-05      24.4494 
         750      16.3759   0.00016917  2.50863e-05      24.4494 
         750      16.5002  0.000168507  2.46387e-05      24.4494 
         750       16.625  0.000167852  2.42095e-05      24.4494 
         750      16.7501  0.000167211   2.3795e-05      24.4494 
         750      16.8759  0.000166585  2.33907e-05      24.4494 
         750       17.002  0.000165979  2.29941e-05      24.4494 
         750      17.1287  0.000165393  2.26015e-05      24.4494 
         750      17.2557   0.00016483  2.22116e-05      24.4494 
         750      17.3834   0.00016429  2.18219e-05      24.4494 
         750      17.5115  0.000163773  2.14315e-05      24.4494 
         750      17.6399  0.000163279    2.104e-05      24.4494 
         750       17.769  0.000162808  2.06465e-05      24.4494 
         750      17.8984  0.000162358  2.02517e-05      24.4494 
         750      18.0284  0.000161929  1.98557e-05      24.4494 
         750      18.1587  0.000161518  1.94599e-05      24.4494 
         750      18.2896  0.000161123  1.90652e-05      24.4494 
         750       18.421  0.000160743  1.86734e-05      24.4494 
         750      18.5528  0.000160375  1.82868e-05      24.4494 
         750      18.6851  0.000160017  1.79069e-05      24.4494 
         750      18.8178  0.000159666  1.75369e-05      24.4494 
         750      18.9511  0.000159319  1.71786e-05      24.4494 
         750      19.0847  0.000158934  1.68824e-05      24.4494 
         750      19.2189  0.000158476  1.66808e-05      24.4494 
         750      19.3535  0.000158022  1.64795e-05      24.4494 
         750      19.4886  0.000157573  1.62766e-05      24.4494 
         750      19.6242  0.000157133  1.60707e-05      24.4494 
         750      19.7602  0.000156704  1.58613e-05      24.4494 
         750      19.8968  0.000156289  1.56475e-05      24.4494 
         750      20.0337  0.000155891  1.54299e-05      24.4494 
         750      20.1712   0.00015551  1.52085e-05      24.4494 
         750      20.3091  0.000155149  1.49846e-05      24.4494 
         750      20.4475  0.000154809  1.47591e-05      24.4494 
         750      20.5864   0.00015449  1.45337e-05      24.4494 
         750      20.7257  0.000154194  1.43104e-05      24.4494 
         750      20.8655  0.000153919  1.40907e-05      24.4494 
         750      21.0058  0.000153666  1.38767e-05      24.4494 
         750      21.1465  0.000153432  1.36698e-05      24.4494 
         750      21.2877  0.000153216  1.34713e-05      24.4494 
         750      21.4294  0.000153015  1.32819e-05      24.4494 
         750      21.5716  0.000152826  1.31015e-05      24.4494 
         750      21.7142  0.000152647  1.29292e-05      24.4494 
         750      21.8573  0.000152472  1.27621e-05      24.4494 
         750      22.0008  0.000152297  1.25966e-05      24.4494 
         750      22.1449  0.000152116  1.24262e-05      24.4494 
         750      22.2893  0.000151925  1.22428e-05      24.4494 
         750      22.4344  0.000151717  1.20349e-05      24.4494 
         750      22.5797  0.000151459  1.18137e-05      24.4494 
         750      22.7257  0.000151044  1.17041e-05      24.4494 
         750      22.8721   0.00015068  1.15531e-05      24.4494 
         750      23.0189  0.000150362  1.13748e-05      24.4494 
         750      23.1663  0.000150085   1.1181e-05      24.4494 
         750       23.314  0.000149846  1.09818e-05      24.4494 
         750      23.4623  0.000149639  1.07849e-05      24.4494 
         750       23.611  0.000149462  1.05967e-05      24.4494 
         750      23.7602  0.000149308  1.04211e-05      24.4494 
         750        23.91  0.000149175  1.02613e-05      24.4494 
         750        24.06  0.000149059  1.01184e-05      24.4494 
         750      24.2107  0.000148956  9.99199e-06      24.4494 
         750      24.3617  0.000148862  9.88088e-06      24.4494 
         750      24.5133  0.000148775  9.78222e-06      24.4494 
         750      24.6653  0.000148691  9.69248e-06      24.4494 
         750      24.8178  0.000148608   9.6069e-06      24.4494 
         750      24.9708  0.000148523  9.52019e-06      24.4494 
         750      25.1242  0.000148435  9.42636e-06      24.4494 
         750      25.2781  0.000148342   9.3187e-06      24.4494 
         750      25.4324  0.000148242  9.19047e-06      24.4494 
         750      25.5873  0.000148093   9.0406e-06      24.4494 
         750      25.7426  0.000147916  8.89754e-06      24.4494 
         750      25.8984  0.000147759  8.76562e-06      24.4494 
         750      26.0546  0.000147619  8.64503e-06      24.4494 
         750      26.2114  0.000147492   8.5352e-06      24.4494 
         750      26.3686  0.000147376  8.43552e-06      24.4494 
         750      26.5262  0.000147267  8.34509e-06      24.4494 
         750      26.6844  0.000147163  8.26257e-06      24.4494 
         750      26.8429  0.000147063  8.18672e-06      24.4494 
         750       27.002  0.000146964  8.11596e-06      24.4494 
         750      27.1615  0.000146867  8.04883e-06      24.4494 
         750      27.3216   0.00014677  7.98367e-06      24.4494 
         750      27.4821  0.000146673  7.91898e-06      24.4494 
         750       27.643  0.000146576  7.85335e-06      24.4494 
         750      27.8044   0.00014648  7.78533e-06      24.4494 
         750      27.9663  0.000146386  7.71388e-06      24.4494 
         750      28.1287  0.000146294  7.63791e-06      24.4494 
         750      28.2914  0.000146207  7.55688e-06      24.4494 
         750      28.4548  0.000146125  7.47028e-06      24.4494 
         750      28.6185   0.00014605  7.37822e-06      24.4494 
         750      28.7828  0.000145983  7.28093e-06      24.4494 
         750      28.9475  0.000145926  7.17929e-06      24.4494 
         750      29.1126  0.000145878  7.07466e-06      24.4494 
         750      29.2784  0.000145842  6.96867e-06      24.4494 
         750      29.4444  0.000145816  6.86381e-06      24.4494 
         750       29.611  0.000145799  6.76283e-06      24.4494 
         750       29.778   0.00014579   6.6694e-06      24.4494 
         750      29.9456  0.000145785  6.58753e-06      24.4494 
         750      30.1137  0.000145779   6.5221e-06      24.4494 
         750      30.2821  0.000145766  6.47865e-06      24.4494 
         750      30.4511  0.000145737  6.46328e-06      24.4494 
         750      30.6204  0.000145683  6.48294e-06      24.4494 
         750      30.7903  0.000145589  6.54529e-06      24.4494 
         750      30.9606  0.000145439  6.65859e-06      24.4494 
         750      31.1315  0.000145423  6.57807e-06      24.4494 
         750      31.3028  0.000145472  6.40763e-06      24.4494 
         750      31.4745  0.000145492  6.27297e-06      24.4494 
         750      31.6468   0.00014549  6.16833e-06      24.4494 
         750      31.8194  0.000145472   6.0889e-06      24.4494 
         750      31.9926  0.000145443  6.03005e-06      24.4494 
         750      32.1662  0.000145408  5.98786e-06      24.4494 
         750      32.3404  0.000145369   5.9587e-06      24.4494 
         750      32.5149   0.00014533  5.93947e-06      24.4494 
         750        32.69  0.000145293  5.92739e-06      24.4494 
         750      32.8655  0.000145259   5.9201e-06      24.4494 
         750      33.0414   0.00014523  5.91557e-06      24.4494 
         750       33.218  0.000145205  5.91207e-06      24.4494 
         750      33.3948  0.000145185  5.90819e-06      24.4494 
         750      33.5723  0.000145171  5.90277e-06      24.4494 
         750        33.75   0.00014516  5.89489e-06      24.4494 
         750      33.9284  0.000145154  5.88385e-06      24.4494 
         750      34.1073   0.00014515  5.86916e-06      24.4494 
         750      34.2865  0.000145148  5.85047e-06      24.4494 
         750      34.4663  0.000145147  5.82759e-06      24.4494 
         750      34.6465  0.000145146  5.80047e-06      24.4494 
         750      34.8272  0.000145144  5.76911e-06      24.4494 
         750      35.0083   0.00014514  5.73367e-06      24.4494 
         750        35.19  0.000145133  5.69428e-06      24.4494 
         750      35.3721  0.000145122  5.65119e-06      24.4494 
         750      35.5546  0.000145107  5.60468e-06      24.4494 
         750      35.7377  0.000145088  5.55494e-06      24.4494 
         750      35.9211  0.000145064  5.50229e-06      24.4494 
         750      36.1052  0.000145036   5.4469e-06      24.4494 
         750      36.2895  0.000145004  5.38905e-06      24.4494 
         750      36.4745  0.000144969  5.32881e-06      24.4494 
         750      36.6598  0.000144932  5.26639e-06      24.4494 
         750      36.8457  0.000144894  5.20175e-06      24.4494 
         750      37.0321  0.000144856  5.13494e-06      24.4494 
         750      37.2188   0.00014482  5.06594e-06      24.4494 
         750      37.4062  0.000144788  4.99451e-06      24.4494 
         750      37.5938  0.000144762  4.92057e-06      24.4494 
         750      37.7821  0.000144745  4.84373e-06      24.4494 
         750      37.9707  0.000144738  4.76383e-06      24.4494 
         750      38.1599  0.000144745  4.68036e-06      24.4494 
         750      38.3496  0.000144766  4.59301e-06      24.4494 
         750      38.5396  0.000144805  4.50145e-06      24.4494 
         750      38.7302  0.000144853  4.42489e-06      24.4494 
         750      38.9211  0.000144845  4.44239e-06      24.4494 
         750      39.1127  0.000144827  4.45645e-06      24.4494 
         750      39.3046    0.0001448  4.46553e-06      24.4494 
         750      39.4971  0.000144767   4.4679e-06      24.4494 
         750      39.6899  0.000144729  4.46162e-06      24.4494 
         750      39.8833  0.000144689  4.44444e-06      24.4494 
         750      40.0772  0.000144647  4.41385e-06      24.4494 
         750      40.2714  0.000144607  4.36705e-06      24.4494 
         750      40.4663  0.000144569  4.30072e-06      24.4494 
         750      40.6615  0.000144536  4.21136e-06      24.4494 
         750      40.8573  0.000144506  4.09471e-06      24.4494 
         750      41.0534  0.000144481  3.94638e-06      24.4494 
         750      41.2501  0.000144471  3.84008e-06      24.4494 
         750      41.4473  0.000144474  3.81755e-06      24.4494 
         750      41.6448  0.000144476  3.79837e-06      24.4494 
         750      41.8429  0.000144476  3.78499e-06      24.4494 
         750      42.0414  0.000144476   3.7796e-06      24.4494 
         750      42.2405  0.000144476  3.78401e-06      24.4494 
         750      42.4399  0.000144478   3.7997e-06      24.4494 
         750      42.6399  0.000144483  3.82786e-06      24.4494 
         750      42.8404  0.000144494  3.86929e-06      24.4494 
         750      43.0412  0.000144514  3.92441e-06      24.4494 
         750      43.2426  0.000144546  3.99344e-06      24.4494 
         750      43.4444  0.000144581   4.0077e-06      24.4494 
         750      43.6467  0.000144596  3.90851e-06      24.4494 
         750      43.8494  0.000144602  3.81509e-06      24.4494 
         750      44.0527  0.000144603   3.7284e-06      24.4494 
         750      44.2563    0.0001446  3.64938e-06      24.4494 
         750      44.4606  0.000144594  3.57841e-06      24.4494 
         750      44.6653  0.000144588  3.51579e-06      24.4494 
         750      44.8704  0.000144581  3.46156e-06      24.4494 
         750       45.076  0.000144574  3.41543e-06      24.4494 
         750       45.282  0.000144569  3.37709e-06      24.4494 
         750      45.4886  0.000144564  3.34593e-06      24.4494 
         750      45.6955  0.000144561  3.32133e-06      24.4494 
         750       45.903  0.000144558  3.30248e-06      24.4494 
         750      46.1111  0.000144557  3.28854e-06      24.4494 
         750      46.3194  0.000144556  3.27861e-06      24.4494 
         750      46.5283  0.000144556  3.27174e-06      24.4494 
         750      46.7376  0.000144557  3.26701e-06      24.4494 
         750      46.9475  0.000144557  3.26346e-06      24.4494 
         750      47.1577  0.000144558  3.26023e-06      24.4494 
         750      47.3685  0.000144558  3.25646e-06      24.4494 
         750      47.5798  0.000144558  3.25141e-06      24.4494 
         750      47.7914  0.000144558  3.24442e-06      24.4494 
         750      48.0037  0.000144557  3.23493e-06      24.4494 