Variables = x, y, u, v, p

Zone, I=800, F=POINT
         -10            0 -2.43221e-19 -9.05316e-25      1.01052 
         -10     0.000234 -1.20536e-05 -3.95129e-11      1.01052 
         -10     0.000939 -4.54603e-05  -8.2516e-11      1.01052 
         -10     0.002113 -9.21844e-05  9.99158e-11      1.01052 
         -10     0.003759 -0.000141511  8.92217e-10      1.01052 
         -10     0.005872  -0.00018259  2.83105e-09      1.01052 
         -10     0.008457 -0.000207909  6.61688e-09      1.01052 
         -10      0.01151 -0.000215024   1.3095e-08      1.01052 
         -10     0.015036 -0.000207337  2.32772e-08      1.01052 
         -10     0.019031 -0.000192693  3.82924e-08      1.01052 
         -10     0.023493  -0.00018036  5.93868e-08      1.01052 
         -10     0.028429 -0.000177122  8.79545e-08      1.01052 
         -10     0.033831  -0.00018407  1.25385e-07      1.01052 
         -10     0.039706 -0.000195656  1.73208e-07      1.01052 
         -10     0.046047 -0.000202523  2.32871e-07      1.01052 
         -10     0.052863 -0.000198251   3.0596e-07      1.01052 
         -10      0.06015 -0.000187235  3.93901e-07      1.01052 
         -10       0.0679 -0.000186198  4.97954e-07      1.01052 
         -10     0.076126 -0.000203834  6.19482e-07      1.01052 
         -10     0.084816 -0.000190608  7.59296e-07      1.01052 
         -10     0.093982 -0.000197316  9.19165e-07      1.01052 
         -10     0.103611 -0.000200577  1.09945e-06      1.01052 
         -10     0.113718 -0.000202305  1.30117e-06      1.01052 
         -10     0.124286 -0.000203856  1.52456e-06      1.01052 
         -10     0.135333 -0.000205981  1.77032e-06      1.01052 
         -10      0.14685 -0.000208858   2.0384e-06      1.01052 
         -10     0.158827  -0.00021224  2.32851e-06      1.01052 
         -10     0.171284 -0.000215711  2.64088e-06      1.01052 
         -10     0.184201 -0.000218937  2.97463e-06      1.01052 
         -10     0.197599 -0.000221929  3.32976e-06      1.01052 
         -10     0.211455 -0.000225077  3.70502e-06      1.01052 
         -10     0.225792 -0.000228865  4.10024e-06      1.01052 
         -10       0.2406   -0.0002329   4.5142e-06      1.01052 
         -10     0.255865  -0.00023574  4.94537e-06      1.01052 
         -10     0.271613 -0.000239334  5.39298e-06      1.01052 
         -10     0.287818 -0.000242735  5.85525e-06      1.01052 
         -10     0.304506 -0.000245969  6.33221e-06      1.01052 
         -10      0.32165 -0.000249041  6.82227e-06      1.01052 
         -10     0.339278  -0.00025196  7.32537e-06      1.01052 
         -10     0.357377 -0.000254719  7.84029e-06      1.01052 
         -10      0.37593 -0.000257303  8.36568e-06      1.01052 
         -10     0.394968 -0.000259702  8.90166e-06      1.01052 
         -10     0.414461 -0.000261896  9.44672e-06      1.01052 
         -10      0.43444  -0.00026387  1.00012e-05      1.01052 
         -10     0.454872 -0.000265611  1.05638e-05      1.01052 
         -10     0.475791 -0.000267112  1.11352e-05      1.01052 
         -10     0.497163 -0.000268371  1.17145e-05      1.01052 
         -10     0.519021 -0.000269395  1.23024e-05      1.01052 
         -10      0.54135 -0.000270188  1.28986e-05      1.01052 
         -10     0.564131 -0.000270751  1.35021e-05      1.01052 
         -10       0.5874  -0.00027107   1.4113e-05      1.01052 
         -10     0.611121 -0.000271102  1.47278e-05      1.01052 
         -10      0.63533 -0.000270953  1.53429e-05      1.01052 
         -10      0.65999 -0.000270554  1.59699e-05      1.01052 
         -10     0.685139 -0.000269925   1.6606e-05      1.01052 
         -10     0.710759 -0.000269086  1.72473e-05      1.01052 
         -10     0.736828 -0.000268058  1.78903e-05      1.01052 
         -10     0.763387 -0.000266862  1.85335e-05      1.01052 
         -10     0.790396 -0.000265519  1.91737e-05      1.01052 
         -10     0.817896 -0.000264049  1.98103e-05      1.01052 
         -10     0.845843 -0.000262472  2.04406e-05      1.01052 
         -10     0.874283 -0.000260805  2.10646e-05      1.01052 
         -10      0.90317 -0.000259068  2.16802e-05      1.01052 
         -10     0.932551 -0.000257273  2.22874e-05      1.01052 
         -10     0.962401 -0.000255437   2.2885e-05      1.01052 
         -10     0.992697 -0.000253571  2.34714e-05      1.01052 
         -10      1.02349 -0.000251682  2.40466e-05      1.01051 
         -10      1.05472 -0.000249781  2.46082e-05      1.01051 
         -10      1.08645 -0.000247867  2.51557e-05      1.01051 
         -10      1.11863 -0.000245948  2.56862e-05      1.01051 
         -10       1.1513 -0.000244018  2.61986e-05      1.01051 
         -10      1.18444 -0.000242078  2.66903e-05      1.01051 
         -10      1.21802 -0.000240126  2.71584e-05      1.01051 
         -10      1.25211 -0.000238152  2.76017e-05      1.01051 
         -10      1.28663 -0.000236155  2.80179e-05      1.01051 
         -10      1.32165 -0.000234128   2.8407e-05      1.01051 
         -10      1.35712  -0.00023207  2.87694e-05      1.01051 
         -10      1.39308  -0.00022998  2.91087e-05      1.01051 
         -10      1.42951 -0.000227864  2.94313e-05      1.01051 
         -10      1.46638 -0.000225739  2.97477e-05      1.01051 
         -10      1.50375 -0.000223622  3.00754e-05      1.01051 
         -10      1.54156 -0.000221526  3.03132e-05      1.01051 
         -10      1.57987 -0.000219447  3.05098e-05      1.01051 
         -10      1.61863  -0.00021738  3.06764e-05      1.01051 
         -10      1.65788 -0.000215311   3.0817e-05      1.01051 
         -10      1.69757 -0.000213239  3.09343e-05      1.01051 
         -10      1.73776  -0.00021116  3.10303e-05      1.01051 
         -10      1.77842 -0.000209076   3.1106e-05      1.01051 
         -10      1.81952 -0.000206995  3.11615e-05      1.01051 
         -10      1.86113 -0.000204919  3.11959e-05      1.01051 
         -10      1.90316 -0.000202863  3.12079e-05      1.01051 
         -10      1.94571 -0.000200836   3.1195e-05      1.01051 
         -10      1.98869 -0.000198855  3.11545e-05      1.01051 
         -10      2.03217 -0.000196933  3.10828e-05      1.01051 
         -10      2.07612 -0.000195088  3.09762e-05      1.01051 
         -10      2.12051 -0.000193341  3.08307e-05      1.01051 
         -10       2.1654 -0.000191707  3.06417e-05      1.01051 
         -10      2.21073 -0.000190206  3.04052e-05      1.01051 
         -10      2.25656 -0.000188854  3.01166e-05      1.01051 
         -10      2.30283 -0.000187669  2.97725e-05      1.01051 
         -10       2.3496 -0.000186663  2.93689e-05      1.01051 
         -10      2.39685  -0.00018585  2.89029e-05      1.01051 
         -10      2.44452 -0.000185239  2.83729e-05      1.01051 
         -10      2.49271 -0.000184835  2.77767e-05      1.01051 
         -10      2.54132 -0.000184642  2.71149e-05      1.01051 
         -10      2.59044 -0.000184656  2.63872e-05       1.0105 
         -10         2.64 -0.000184872  2.55968e-05       1.0105 
         -10      2.69006 -0.000185279  2.47459e-05       1.0105 
         -10      2.74056 -0.000185859  2.38405e-05       1.0105 
         -10      2.79156 -0.000186594  2.28854e-05       1.0105 
         -10      2.84304 -0.000187455  2.18887e-05       1.0105 
         -10      2.89494 -0.000188412  2.08601e-05       1.0105 
         -10      2.94735 -0.000189432  1.98082e-05       1.0105 
         -10       3.0002 -0.000190475  1.87455e-05       1.0105 
         -10      3.05355 -0.000191503  1.76824e-05       1.0105 
         -10      3.10733 -0.000192473  1.66329e-05       1.0105 
         -10      3.16163 -0.000193344  1.56075e-05       1.0105 
         -10      3.21639 -0.000194079  1.46191e-05       1.0105 
         -10      3.27158 -0.000194641  1.36791e-05       1.0105 
         -10      3.32729 -0.000195008  1.27949e-05       1.0105 
         -10      3.38342 -0.000195161   1.1974e-05       1.0105 
         -10      3.44007 -0.000195102  1.12173e-05       1.0105 
         -10      3.49714 -0.000194849  1.05231e-05      1.01049 
         -10      3.55472 -0.000194445   9.8811e-06      1.01049 
         -10      3.61273 -0.000193965   9.2748e-06      1.01049 
         -10      3.67125 -0.000193518  8.67592e-06      1.01049 
         -10      3.73025 -0.000193261   8.0455e-06      1.01049 
         -10      3.78967 -0.000193092  7.68237e-06      1.01049 
         -10      3.84961 -0.000192821   7.3471e-06      1.01049 
         -10      3.90996 -0.000192513  6.91282e-06      1.01049 
         -10      3.97084 -0.000192176   6.4258e-06      1.01049 
         -10      4.03214 -0.000191822  5.91821e-06      1.01049 
         -10      4.09395 -0.000191467  5.40669e-06      1.01049 
         -10      4.15624 -0.000191125  4.89642e-06      1.01049 
         -10      4.21895 -0.000190807  4.38134e-06      1.01048 
         -10      4.28217 -0.000190508  4.10767e-06      1.01048 
         -10      4.34582 -0.000190232  3.85069e-06      1.01048 
         -10      4.40998 -0.000189975  3.53325e-06      1.01048 
         -10      4.47457 -0.000189734  3.16598e-06      1.01048 
         -10      4.53968 -0.000189507  2.76076e-06      1.01048 
         -10      4.60525 -0.000189294  2.33091e-06      1.01048 
         -10      4.67125 -0.000189095  1.88881e-06      1.01048 
         -10      4.73777 -0.000188912  1.44357e-06      1.01047 
         -10       4.8047 -0.000188742  1.00267e-06      1.01047 
         -10      4.87216 -0.000188584  5.68769e-07      1.01047 
         -10      4.94003 -0.000188431  1.42709e-07      1.01047 
         -10      5.00843 -0.000188273  -2.7848e-07      1.01047 
         -10      5.07724 -0.000188097 -6.97321e-07      1.01047 
         -10      5.14658 -0.000187883 -1.11632e-06      1.01047 
         -10      5.21639 -0.000187607 -1.53237e-06      1.01046 
         -10      5.28661 -0.000187295 -1.92782e-06      1.01046 
         -10      5.35736  -0.00018721 -2.31653e-06      1.01046 
         -10      5.42852 -0.000187066  -2.7374e-06      1.01046 
         -10      5.50021 -0.000186908 -3.15919e-06      1.01046 
         -10      5.57231 -0.000186761 -3.56432e-06      1.01046 
         -10      5.64493 -0.000186644 -3.94757e-06      1.01045 
         -10      5.71803 -0.000186562 -4.31007e-06      1.01045 
         -10      5.79154 -0.000186514 -4.65695e-06      1.01045 
         -10      5.86558 -0.000186494  -4.9952e-06      1.01045 
         -10      5.94003 -0.000186493 -5.32928e-06      1.01045 
         -10      6.01501 -0.000186497 -5.66154e-06      1.01044 
         -10       6.0904 -0.000186496 -5.98895e-06      1.01044 
         -10      6.16632  -0.00018648 -6.30499e-06      1.01044 
         -10      6.24271 -0.000186441 -6.59849e-06      1.01044 
         -10       6.3195 -0.000186378 -6.85623e-06      1.01043 
         -10      6.39683 -0.000186289 -7.06651e-06      1.01043 
         -10      6.47457 -0.000186183 -7.22204e-06      1.01043 
         -10      6.55284  -0.00018607 -7.32715e-06      1.01043 
         -10      6.63152 -0.000185964 -7.40415e-06      1.01042 
         -10      6.71073 -0.000185884 -7.50346e-06      1.01042 
         -10      6.79034 -0.000185848 -7.71413e-06      1.01042 
         -10      6.87049 -0.000185874 -8.17833e-06      1.01042 
         -10      6.95111 -0.000185847 -8.85835e-06      1.01041 
         -10      7.03214 -0.000185585   -8.796e-06      1.01041 
         -10       7.1137 -0.000185726 -8.38051e-06      1.01041 
         -10      7.19566 -0.000185678 -8.23656e-06      1.01041 
         -10      7.27816 -0.000185393 -8.51168e-06       1.0104 
         -10      7.36106 -0.000185096 -8.76125e-06       1.0104 
         -10      7.44451  -0.00018485 -8.91861e-06       1.0104 
         -10      7.52842 -0.000184683 -8.97251e-06      1.01039 
         -10      7.61273 -0.000184596 -8.94826e-06      1.01039 
         -10      7.69758 -0.000184574 -8.88968e-06      1.01039 
         -10      7.78283  -0.00018459 -8.84401e-06      1.01038 
         -10      7.86862 -0.000184615 -8.84943e-06      1.01038 
         -10      7.95481 -0.000184621 -8.92616e-06      1.01038 
         -10      8.04155 -0.000184586 -9.07142e-06      1.01037 
         -10      8.12868 -0.000184499 -9.25797e-06      1.01037 
         -10      8.21635 -0.000184359 -9.43886e-06      1.01036 
         -10      8.30449 -0.000184177 -9.55564e-06      1.01036 
         -10      8.39303 -0.000183972 -9.55423e-06      1.01036 
         -10      8.48211 -0.000183769 -9.40643e-06      1.01035 
         -10      8.57159 -0.000183591 -9.13898e-06      1.01035 
         -10      8.66161 -0.000183451 -8.86954e-06      1.01034 
         -10      8.75203 -0.000183339 -8.85321e-06      1.01034 
         -10      8.84299 -0.000183208 -9.53638e-06      1.01034 
         -10      8.93443 -0.000183197 -9.78677e-06      1.01033 
         -10      9.02626 -0.000183349 -8.92175e-06      1.01033 
         -10      9.11863 -0.000183385 -8.78741e-06      1.01032 
         -10      9.21139 -0.000183343 -9.13332e-06      1.01032 
         -10      9.30471 -0.000183286 -9.67329e-06      1.01031 
         -10      9.39841 -0.000183294 -1.00348e-05      1.01031 
         -10      9.49267 -0.000183448 -9.70325e-06       1.0103 
         -10      9.58739 -0.000183492 -9.61013e-06       1.0103 
         -10      9.68251 -0.000183523 -9.91361e-06      1.01029 
         -10      9.77817  -0.00018363 -1.00987e-05      1.01029 
         -10      9.87422 -0.000183765 -1.02091e-05      1.01028 
         -10      9.97083 -0.000183895 -1.02785e-05      1.01028 
         -10      10.0678 -0.000183997 -1.03338e-05      1.01027 
         -10      10.1654  -0.00018406 -1.03971e-05      1.01027 
         -10      10.2633 -0.000184082 -1.04876e-05      1.01026 
         -10      10.3618 -0.000184068  -1.0622e-05      1.01025 
         -10      10.4607 -0.000184026  -1.0814e-05      1.01025 
         -10      10.5601  -0.00018397 -1.10722e-05      1.01024 
         -10        10.66 -0.000183915 -1.13981e-05      1.01024 
         -10      10.7603 -0.000183871 -1.17798e-05      1.01023 
         -10      10.8611 -0.000183848 -1.21883e-05      1.01022 
         -10      10.9623 -0.000183846 -1.25672e-05      1.01022 
         -10      11.0641 -0.000183856 -1.28254e-05      1.01021 
         -10      11.1663 -0.000183854  -1.2843e-05       1.0102 
         -10       11.269 -0.000183776 -1.33094e-05       1.0102 
         -10      11.3721 -0.000183768 -1.37355e-05      1.01019 
         -10      11.4757  -0.00018379 -1.41363e-05      1.01018 
         -10      11.5798 -0.000183807 -1.45145e-05      1.01018 
         -10      11.6844 -0.000183801 -1.48625e-05      1.01017 
         -10      11.7894 -0.000183762  -1.5169e-05      1.01016 
         -10       11.895 -0.000183693 -1.54233e-05      1.01015 
         -10      12.0009  -0.00018361 -1.56218e-05      1.01015 
         -10      12.1073 -0.000183536 -1.57758e-05      1.01014 
         -10      12.2142 -0.000183508 -1.59184e-05      1.01013 
         -10      12.3216 -0.000183567  -1.6114e-05      1.01012 
         -10      12.4294  -0.00018376 -1.64672e-05      1.01011 
         -10      12.5378 -0.000183775 -1.66316e-05      1.01011 
         -10      12.6465 -0.000183592 -1.65886e-05       1.0101 
         -10      12.7558 -0.000183528 -1.67341e-05      1.01009 
         -10      12.8656 -0.000183533 -1.69777e-05      1.01008 
         -10      12.9757 -0.000183566  -1.7256e-05      1.01007 
         -10      13.0864 -0.000183598 -1.75293e-05      1.01006 
         -10      13.1975 -0.000183608  -1.7776e-05      1.01005 
         -10      13.3092 -0.000183584 -1.79895e-05      1.01004 
         -10      13.4212 -0.000183524 -1.81727e-05      1.01003 
         -10      13.5338 -0.000183433 -1.83342e-05      1.01003 
         -10      13.6468 -0.000183321 -1.84836e-05      1.01002 
         -10      13.7603 -0.000183204 -1.86271e-05      1.01001 
         -10      13.8743 -0.000183102 -1.87635e-05         1.01 
         -10      13.9886 -0.000183036 -1.88792e-05      1.00999 
         -10      14.1036 -0.000183027 -1.89446e-05      1.00998 
         -10      14.2189 -0.000183096 -1.89095e-05      1.00997 
         -10      14.3348 -0.000183165  -1.8923e-05      1.00996 
         -10       14.451 -0.000182989 -1.94739e-05      1.00994 
         -10      14.5678 -0.000182834  -1.9881e-05      1.00993 
         -10      14.6851   -0.0001827  -2.0172e-05      1.00992 
         -10      14.8028 -0.000182586 -2.03717e-05      1.00991 
         -10       14.921  -0.00018249 -2.05029e-05       1.0099 
         -10      15.0396 -0.000182415 -2.05848e-05      1.00989 
         -10      15.1588 -0.000182357 -2.06345e-05      1.00988 
         -10      15.2783 -0.000182317 -2.06667e-05      1.00987 
         -10      15.3984 -0.000182293 -2.06939e-05      1.00985 
         -10       15.519 -0.000182283 -2.07264e-05      1.00984 
         -10        15.64 -0.000182285 -2.07727e-05      1.00983 
         -10      15.7615 -0.000182295 -2.08398e-05      1.00982 
         -10      15.8834  -0.00018231 -2.09325e-05      1.00981 
         -10      16.0058 -0.000182326 -2.10547e-05      1.00979 
         -10      16.1286 -0.000182339 -2.12082e-05      1.00978 
         -10       16.252 -0.000182344  -2.1394e-05      1.00977 
         -10      16.3759 -0.000182337 -2.16114e-05      1.00975 
         -10      16.5002 -0.000182314 -2.18582e-05      1.00974 
         -10       16.625 -0.000182273 -2.21316e-05      1.00973 
         -10      16.7501 -0.000182212 -2.24265e-05      1.00971 
         -10      16.8759 -0.000182131 -2.27375e-05       1.0097 
         -10       17.002 -0.000182034 -2.30565e-05      1.00969 
         -10      17.1287 -0.000181927  -2.3375e-05      1.00967 
         -10      17.2557 -0.000181821 -2.36816e-05      1.00966 
         -10      17.3834 -0.000181729 -2.39641e-05      1.00964 
         -10      17.5115 -0.000181674 -2.42073e-05      1.00963 
         -10      17.6399 -0.000181684 -2.43937e-05      1.00961 
         -10       17.769 -0.000181795 -2.45033e-05       1.0096 
         -10      17.8984 -0.000182053 -2.45127e-05      1.00958 
         -10      18.0284 -0.000182515  -2.4395e-05      1.00957 
         -10      18.1587 -0.000182354 -2.50111e-05      1.00955 
         -10      18.2896  -0.00018157 -2.54262e-05      1.00954 
         -10       18.421  -0.00018105 -2.55611e-05      1.00952 
         -10      18.5528 -0.000180982  -2.5932e-05      1.00951 
         -10      18.6851 -0.000180953 -2.61352e-05      1.00949 
         -10      18.8178 -0.000180957 -2.62496e-05      1.00947 
         -10      18.9511 -0.000180986 -2.63288e-05      1.00946 
         -10      19.0847 -0.000181035 -2.64049e-05      1.00944 
         -10      19.2189 -0.000181098 -2.64934e-05      1.00942 
         -10      19.3535  -0.00018117 -2.65971e-05      1.00941 
         -10      19.4886 -0.000181244 -2.67101e-05      1.00939 
         -10      19.6242 -0.000181315  -2.6821e-05      1.00937 
         -10      19.7602 -0.000181376 -2.69165e-05      1.00935 
         -10      19.8968 -0.000181422 -2.69834e-05      1.00933 
         -10      20.0337 -0.000181447 -2.70115e-05      1.00932 
         -10      20.1712 -0.000181443 -2.69947e-05       1.0093 
         -10      20.3091 -0.000181405 -2.69325e-05      1.00928 
         -10      20.4475 -0.000181328 -2.68302e-05      1.00926 
         -10      20.5864 -0.000181207 -2.66992e-05      1.00924 
         -10      20.7257 -0.000181038 -2.65561e-05      1.00922 
         -10      20.8655 -0.000180821 -2.64207e-05       1.0092 
         -10      21.0058 -0.000180556 -2.63145e-05      1.00918 
         -10      21.1465 -0.000180249 -2.62568e-05      1.00916 
         -10      21.2877 -0.000179907 -2.62609e-05      1.00914 
         -10      21.4294 -0.000179545 -2.63296e-05      1.00912 
         -10      21.5716 -0.000179182 -2.64482e-05       1.0091 
         -10      21.7142 -0.000178847 -2.65784e-05      1.00908 
         -10      21.8573 -0.000178575 -2.66495e-05      1.00906 
         -10      22.0008 -0.000178413 -2.65493e-05      1.00904 
         -10      22.1449 -0.000178421 -2.61133e-05      1.00902 
         -10      22.2893 -0.000178804 -2.59718e-05        1.009 
         -10      22.4344 -0.000178914 -2.59554e-05      1.00898 
         -10      22.5797 -0.000178841 -2.59763e-05      1.00896 
         -10      22.7257 -0.000178702 -2.60234e-05      1.00893 
         -10      22.8721 -0.000178573  -2.6082e-05      1.00891 
         -10      23.0189 -0.000178487 -2.61341e-05      1.00889 
         -10      23.1663 -0.000178443  -2.6161e-05      1.00887 
         -10       23.314 -0.000178414 -2.61473e-05      1.00884 
         -10      23.4623 -0.000178352 -2.60875e-05      1.00882 
         -10       23.611 -0.000178207 -2.59952e-05       1.0088 
         -10      23.7602 -0.000177942 -2.59137e-05      1.00877 
         -10        23.91 -0.000177549 -2.59313e-05      1.00875 
         -10        24.06 -0.000177254 -2.60605e-05      1.00873 
         -10      24.2107 -0.000177445 -2.59452e-05       1.0087 
         -10      24.3617 -0.000177532 -2.59226e-05      1.00868 
         -10      24.5133 -0.000177549 -2.59722e-05      1.00865 
         -10      24.6653 -0.000177523 -2.60766e-05      1.00863 
         -10      24.8178 -0.000177472 -2.62209e-05       1.0086 
         -10      24.9708 -0.000177409 -2.63923e-05      1.00858 
         -10      25.1242 -0.000177339 -2.65799e-05      1.00855 
         -10      25.2781 -0.000177267 -2.67755e-05      1.00853 
         -10      25.4324 -0.000177191  -2.6972e-05       1.0085 
         -10      25.5873 -0.000177108 -2.71656e-05      1.00847 
         -10      25.7426 -0.000177014 -2.73546e-05      1.00845 
         -10      25.8984 -0.000176906 -2.75409e-05      1.00842 
         -10      26.0546 -0.000176781 -2.77301e-05      1.00839 
         -10      26.2114 -0.000176637 -2.79331e-05      1.00837 
         -10      26.3686 -0.000176478 -2.81664e-05      1.00834 
         -10      26.5262  -0.00017631 -2.84538e-05      1.00831 
         -10      26.6844 -0.000176145 -2.88282e-05      1.00828 
         -10      26.8429 -0.000176002 -2.93322e-05      1.00826 
         -10       27.002 -0.000175905 -3.00123e-05      1.00823 
         -10      27.1615 -0.000175725 -2.96588e-05       1.0082 
         -10      27.3216 -0.000175562 -2.94572e-05      1.00817 
         -10      27.4821 -0.000175411  -2.9388e-05      1.00814 
         -10       27.643 -0.000175267 -2.94289e-05      1.00811 
         -10      27.8044 -0.000175129 -2.95568e-05      1.00808 
         -10      27.9663 -0.000174998 -2.97477e-05      1.00805 
         -10      28.1287 -0.000174874 -2.99781e-05      1.00802 
         -10      28.2914 -0.000174759 -3.02247e-05      1.00799 
         -10      28.4548 -0.000174655 -3.04665e-05      1.00796 
         -10      28.6185 -0.000174562 -3.06844e-05      1.00793 
         -10      28.7828  -0.00017448 -3.08632e-05       1.0079 
         -10      28.9475 -0.000174405 -3.09919e-05      1.00787 
         -10      29.1126 -0.000174332  -3.1065e-05      1.00784 
         -10      29.2784 -0.000174252 -3.10838e-05       1.0078 
         -10      29.4444 -0.000174152 -3.10572e-05      1.00777 
         -10       29.611 -0.000174014 -3.10035e-05      1.00774 
         -10       29.778 -0.000173815 -3.09515e-05      1.00771 
         -10      29.9456 -0.000173525 -3.09417e-05      1.00768 
         -10      30.1137 -0.000173107 -3.10285e-05      1.00764 
         -10      30.2821 -0.000172519 -3.12811e-05      1.00761 
         -10      30.4511 -0.000172753  -3.1444e-05      1.00758 
         -10      30.6204 -0.000172961 -3.15915e-05      1.00754 
         -10      30.7903 -0.000173107  -3.1722e-05      1.00751 
         -10      30.9606 -0.000173181 -3.18307e-05      1.00747 
         -10      31.1315 -0.000173179 -3.19153e-05      1.00744 
         -10      31.3028 -0.000173105 -3.19761e-05       1.0074 
         -10      31.4745 -0.000172964 -3.20164e-05      1.00737 
         -10      31.6468 -0.000172768 -3.20431e-05      1.00733 
         -10      31.8194 -0.000172534 -3.20662e-05       1.0073 
         -10      31.9926 -0.000172278 -3.20996e-05      1.00726 
         -10      32.1662 -0.000172023 -3.21608e-05      1.00723 
         -10      32.3404 -0.000171788 -3.22705e-05      1.00719 
         -10      32.5149 -0.000171595 -3.24525e-05      1.00715 
         -10        32.69 -0.000171463  -3.2734e-05      1.00712 
         -10      32.8655 -0.000171407  -3.3144e-05      1.00708 
         -10      33.0414 -0.000171438 -3.37128e-05      1.00704 
         -10       33.218 -0.000171252 -3.37382e-05        1.007 
         -10      33.3948  -0.00017103 -3.35777e-05      1.00697 
         -10      33.5723 -0.000170879 -3.35358e-05      1.00693 
         -10        33.75 -0.000170763 -3.35809e-05      1.00689 
         -10      33.9284 -0.000170654 -3.36856e-05      1.00685 
         -10      34.1073 -0.000170532 -3.38273e-05      1.00681 
         -10      34.2865 -0.000170388 -3.39875e-05      1.00677 
         -10      34.4663 -0.000170216 -3.41525e-05      1.00673 
         -10      34.6465 -0.000170015 -3.43123e-05      1.00669 
         -10      34.8272 -0.000169791 -3.44614e-05      1.00665 
         -10      35.0083 -0.000169549 -3.45975e-05      1.00661 
         -10        35.19 -0.000169299 -3.47218e-05      1.00657 
         -10      35.3721  -0.00016905 -3.48384e-05      1.00653 
         -10      35.5546 -0.000168813 -3.49536e-05      1.00649 
         -10      35.7377 -0.000168596 -3.50756e-05      1.00645 
         -10      35.9211 -0.000168407 -3.52136e-05      1.00641 
         -10      36.1052  -0.00016825 -3.53773e-05      1.00637 
         -10      36.2895 -0.000168129 -3.55757e-05      1.00632 
         -10      36.4745 -0.000168041 -3.58165e-05      1.00628 
         -10      36.6598  -0.00016798 -3.61048e-05      1.00624 
         -10      36.8457 -0.000167925  -3.6381e-05       1.0062 
         -10      37.0321 -0.000167823 -3.64878e-05      1.00615 
         -10      37.2188 -0.000167698 -3.65703e-05      1.00611 
         -10      37.4062 -0.000167554 -3.66334e-05      1.00607 
         -10      37.5938 -0.000167395 -3.66837e-05      1.00602 
         -10      37.7821 -0.000167222 -3.67294e-05      1.00598 
         -10      37.9707 -0.000167038 -3.67792e-05      1.00593 
         -10      38.1599 -0.000166841 -3.68414e-05      1.00589 
         -10      38.3496 -0.000166634 -3.69233e-05      1.00584 
         -10      38.5396 -0.000166415 -3.70292e-05       1.0058 
         -10      38.7302 -0.000166186 -3.71603e-05      1.00575 
         -10      38.9211 -0.000165948 -3.73122e-05      1.00571 
         -10      39.1127 -0.000165704 -3.74741e-05      1.00566 
         -10      39.3046 -0.000165459 -3.76266e-05      1.00561 
         -10      39.4971 -0.000165221 -3.77404e-05      1.00557 
         -10      39.6899 -0.000165003 -3.77736e-05      1.00552 
         -10      39.8833  -0.00016482 -3.76703e-05      1.00547 
         -10      40.0772 -0.000164723 -3.74526e-05      1.00542 
         -10      40.2714 -0.000164835 -3.78178e-05      1.00538 
         -10      40.4663 -0.000164831 -3.80964e-05      1.00533 
         -10      40.6615 -0.000164733 -3.83083e-05      1.00528 
         -10      40.8573 -0.000164563 -3.84706e-05      1.00523 
         -10      41.0534  -0.00016434 -3.85973e-05      1.00518 
         -10      41.2501 -0.000164081 -3.86996e-05      1.00513 
         -10      41.4473 -0.000163802 -3.87865e-05      1.00508 
         -10      41.6448 -0.000163518 -3.88646e-05      1.00503 
         -10      41.8429  -0.00016324  -3.8939e-05      1.00498 
         -10      42.0414 -0.000162979 -3.90129e-05      1.00493 
         -10      42.2405  -0.00016274 -3.90885e-05      1.00488 
         -10      42.4399 -0.000162529 -3.91665e-05      1.00483 
         -10      42.6399 -0.000162349 -3.92471e-05      1.00478 
         -10      42.8404 -0.000162199 -3.93297e-05      1.00473 
         -10      43.0412 -0.000162078 -3.94133e-05      1.00468 
         -10      43.2426 -0.000161981 -3.94967e-05      1.00462 
         -10      43.4444 -0.000161903 -3.95784e-05      1.00457 
         -10      43.6467 -0.000161835 -3.96576e-05      1.00452 
         -10      43.8494 -0.000161769  -3.9733e-05      1.00447 
         -10      44.0527 -0.000161695 -3.98042e-05      1.00441 
         -10      44.2563 -0.000161603 -3.98711e-05      1.00436 
         -10      44.4606 -0.000161484 -3.99341e-05       1.0043 
         -10      44.6653 -0.000161329 -3.99945e-05      1.00425 
         -10      44.8704  -0.00016113 -4.00539e-05       1.0042 
         -10       45.076 -0.000160882 -4.01149e-05      1.00414 
         -10       45.282 -0.000160584 -4.01806e-05      1.00409 
         -10      45.4886 -0.000160236 -4.02551e-05      1.00403 
         -10      45.6955 -0.000159847 -4.03426e-05      1.00398 
         -10       45.903  -0.00015943 -4.04482e-05      1.00392 
         -10      46.1111 -0.000159005 -4.05774e-05      1.00386 
         -10      46.3194 -0.000158602 -4.07356e-05      1.00381 
         -10      46.5283 -0.000158261 -4.09289e-05      1.00375 
         -10      46.7376 -0.000158033 -4.11625e-05      1.00369 
         -10      46.9475 -0.000157983 -4.14422e-05      1.00364 
         -10      47.1577  -0.00015819  -4.1772e-05      1.00358 
         -10      47.3685 -0.000158662 -4.20734e-05      1.00352 
         -10      47.5798 -0.000158451 -4.16463e-05      1.00346 
         -10      47.7914 -0.000158198 -4.12975e-05      1.00341 
         -10      48.0037 -0.000157916 -4.10308e-05      1.00335 