Variables = x, y, u, v, p

Zone, I=800, F=POINT
         -70            0           -0           -0     -68.1874 
         -70     0.000234 -1.20591e-05 -3.43908e-09     -68.1874 
         -70     0.000939 -4.53316e-05 -1.30165e-08     -68.1874 
         -70     0.002113 -9.13926e-05 -2.65702e-08     -68.1874 
         -70     0.003759 -0.000139065 -4.12378e-08     -68.1874 
         -70     0.005872  -0.00017719 -5.41444e-08     -68.1874 
         -70     0.008457 -0.000198268 -6.33579e-08     -68.1874 
         -70      0.01151  -0.00020029 -6.83226e-08     -68.1874 
         -70     0.015036 -0.000187396  -7.0047e-08     -68.1874 
         -70     0.019031 -0.000168255 -7.06501e-08     -68.1874 
         -70     0.023493 -0.000152659 -7.24909e-08     -68.1874 
         -70     0.028429   -0.0001473 -7.70765e-08     -68.1874 
         -70     0.033831 -0.000152459 -8.41651e-08     -68.1874 
         -70     0.039706  -0.00016134 -9.16133e-08     -68.1874 
         -70     0.046047 -0.000163668 -9.62604e-08     -68.1874 
         -70     0.052863 -0.000153453 -9.59557e-08     -68.1874 
         -70      0.06015 -0.000137511 -9.17792e-08     -68.1874 
         -70       0.0679 -0.000135655  -8.8242e-08     -68.1874 
         -70     0.076126 -0.000154332 -8.67775e-08     -68.1874 
         -70     0.084816 -0.000128789 -6.94042e-08     -68.1874 
         -70     0.093982 -0.000136217 -5.71354e-08     -68.1874 
         -70     0.103611 -0.000136692 -4.61441e-08     -68.1873 
         -70     0.113718 -0.000133925 -2.89492e-08     -68.1873 
         -70     0.124286 -0.000130563 -4.19258e-09     -68.1873 
         -70     0.135333 -0.000128063  2.40378e-08     -68.1873 
         -70      0.14685 -0.000126797  4.77078e-08     -68.1873 
         -70     0.158827  -0.00012633  5.74779e-08     -68.1873 
         -70     0.171284 -0.000125886  4.57276e-08     -68.1873 
         -70     0.184201 -0.000124891   9.1788e-09     -68.1873 
         -70     0.197599  -0.00012342  -5.0284e-08     -68.1873 
         -70     0.211455 -0.000122313 -1.28206e-07     -68.1872 
         -70     0.225792 -0.000122541 -2.27342e-07     -68.1872 
         -70       0.2406 -0.000123334 -3.77048e-07     -68.1872 
         -70     0.255865 -0.000121943 -5.78527e-07     -68.1872 
         -70     0.271613 -0.000122329 -7.26449e-07     -68.1871 
         -70     0.287818 -0.000122594 -8.51626e-07     -68.1871 
         -70     0.304506 -0.000122861 -8.99233e-07     -68.1871 
         -70      0.32165 -0.000123213 -8.33664e-07      -68.187 
         -70     0.339278 -0.000123695 -6.39968e-07      -68.187 
         -70     0.357377 -0.000124311 -3.24141e-07      -68.187 
         -70      0.37593 -0.000125038  8.77549e-08     -68.1869 
         -70     0.394968 -0.000125827    5.538e-07     -68.1869 
         -70     0.414461 -0.000126618  1.01806e-06     -68.1868 
         -70      0.43444 -0.000127352  1.41933e-06     -68.1868 
         -70     0.454872 -0.000127976   1.6961e-06     -68.1867 
         -70     0.475791 -0.000128465  1.79831e-06     -68.1866 
         -70     0.497163 -0.000128819  1.69669e-06     -68.1866 
         -70     0.519021 -0.000129073  1.39571e-06     -68.1865 
         -70      0.54135 -0.000129284  9.47178e-07     -68.1864 
         -70     0.564131 -0.000129515  4.64645e-07     -68.1863 
         -70       0.5874   -0.0001298  1.35895e-07     -68.1862 
         -70     0.611121 -0.000130121   2.8436e-07     -68.1862 
         -70      0.63533 -0.000130932  1.09776e-06     -68.1861 
         -70      0.65999 -0.000131918  1.74472e-06     -68.1859 
         -70     0.685139 -0.000133057   2.2438e-06     -68.1858 
         -70     0.710759 -0.000134327  2.61224e-06     -68.1857 
         -70     0.736828   -0.0001357  2.86773e-06     -68.1856 
         -70     0.763387 -0.000137154   3.0283e-06     -68.1855 
         -70     0.790396 -0.000138662  3.11084e-06     -68.1853 
         -70     0.817896 -0.000140202  3.13195e-06     -68.1852 
         -70     0.845843 -0.000141746  3.10711e-06      -68.185 
         -70     0.874283 -0.000143276   3.0506e-06     -68.1849 
         -70      0.90317 -0.000144769  2.97543e-06     -68.1847 
         -70     0.932551 -0.000146209  2.89273e-06     -68.1845 
         -70     0.962401 -0.000147581  2.81195e-06     -68.1843 
         -70     0.992697 -0.000148872  2.74045e-06     -68.1841 
         -70      1.02349 -0.000150079  2.68316e-06     -68.1839 
         -70      1.05472 -0.000151195  2.64276e-06     -68.1837 
         -70      1.08645 -0.000152224  2.61918e-06     -68.1835 
         -70      1.11863 -0.000153172  2.60975e-06     -68.1833 
         -70       1.1513 -0.000154048   2.6089e-06      -68.183 
         -70      1.18444 -0.000154867  2.60819e-06     -68.1828 
         -70      1.21802 -0.000155645  2.59625e-06     -68.1825 
         -70      1.25211 -0.000156402  2.55875e-06     -68.1822 
         -70      1.28663 -0.000157155  2.47852e-06     -68.1819 
         -70      1.32165 -0.000157922  2.33536e-06     -68.1816 
         -70      1.35712 -0.000158716  2.10675e-06     -68.1813 
         -70      1.39308 -0.000159542  1.76696e-06      -68.181 
         -70      1.42951 -0.000160392  1.28839e-06     -68.1806 
         -70      1.46638 -0.000161243  6.41798e-07     -68.1803 
         -70      1.50375 -0.000162048 -2.05524e-07     -68.1799 
         -70      1.54156 -0.000162768 -6.62243e-08     -68.1796 
         -70      1.57987 -0.000163229 -1.68618e-08     -68.1792 
         -70      1.61863  -0.00016351 -1.19706e-07     -68.1787 
         -70      1.65788 -0.000163688 -3.47916e-07     -68.1783 
         -70      1.69757 -0.000163827  -6.7625e-07     -68.1779 
         -70      1.73776 -0.000163986 -1.08258e-06     -68.1774 
         -70      1.77842  -0.00016421 -1.54631e-06      -68.177 
         -70      1.81952 -0.000164535 -2.04898e-06     -68.1765 
         -70      1.86113 -0.000164987 -2.57577e-06      -68.176 
         -70      1.90316 -0.000165581 -3.11257e-06     -68.1755 
         -70      1.94571 -0.000166327 -3.64932e-06     -68.1749 
         -70      1.98869 -0.000167221 -4.17651e-06     -68.1744 
         -70      2.03217 -0.000168256 -4.68857e-06     -68.1738 
         -70      2.07612 -0.000169416 -5.18071e-06     -68.1732 
         -70      2.12051 -0.000170677  -5.6502e-06     -68.1726 
         -70       2.1654 -0.000172016 -6.09719e-06     -68.1719 
         -70      2.21073 -0.000173399 -6.52203e-06     -68.1713 
         -70      2.25656 -0.000174797 -6.92785e-06     -68.1706 
         -70      2.30283 -0.000176171 -7.31766e-06     -68.1699 
         -70       2.3496 -0.000177492 -7.69667e-06     -68.1692 
         -70      2.39685 -0.000178723 -8.06989e-06     -68.1685 
         -70      2.44452 -0.000179836 -8.44276e-06     -68.1677 
         -70      2.49271 -0.000180804 -8.82179e-06     -68.1669 
         -70      2.54132 -0.000181606  -9.2122e-06     -68.1661 
         -70      2.59044 -0.000182229 -9.62009e-06     -68.1653 
         -70         2.64 -0.000182663 -1.00497e-05     -68.1645 
         -70      2.69006 -0.000182911 -1.05057e-05     -68.1636 
         -70      2.74056  -0.00018298 -1.09904e-05     -68.1627 
         -70      2.79156  -0.00018289 -1.15065e-05     -68.1618 
         -70      2.84304 -0.000182666 -1.20542e-05     -68.1608 
         -70      2.89494 -0.000182345 -1.26322e-05     -68.1599 
         -70      2.94735 -0.000181967 -1.32393e-05     -68.1589 
         -70       3.0002 -0.000181582 -1.38714e-05     -68.1578 
         -70      3.05355 -0.000181239 -1.45252e-05     -68.1568 
         -70      3.10733  -0.00018099 -1.51947e-05     -68.1557 
         -70      3.16163 -0.000180885 -1.58758e-05     -68.1546 
         -70      3.21639 -0.000180963 -1.65632e-05     -68.1535 
         -70      3.27158  -0.00018125  -1.7253e-05     -68.1523 
         -70      3.32729 -0.000181753 -1.79447e-05     -68.1511 
         -70      3.38342 -0.000182447 -1.86392e-05     -68.1499 
         -70      3.44007 -0.000183273 -1.93445e-05     -68.1486 
         -70      3.49714 -0.000184116 -2.00727e-05     -68.1473 
         -70      3.55472 -0.000184804 -2.08466e-05      -68.146 
         -70      3.61273 -0.000185082 -2.16978e-05     -68.1446 
         -70      3.67125 -0.000184605 -2.26735e-05     -68.1433 
         -70      3.73025 -0.000182908 -2.38362e-05     -68.1418 
         -70      3.78967 -0.000182442 -2.51593e-05     -68.1404 
         -70      3.84961 -0.000182768 -2.61587e-05     -68.1389 
         -70      3.90996 -0.000182679 -2.69112e-05     -68.1374 
         -70      3.97084  -0.00018222 -2.75599e-05     -68.1358 
         -70      4.03214 -0.000181439 -2.82264e-05     -68.1343 
         -70      4.09395 -0.000180384 -2.90127e-05     -68.1326 
         -70      4.15624 -0.000179219 -2.90981e-05      -68.131 
         -70      4.21895 -0.000178299 -2.89287e-05     -68.1293 
         -70      4.28217 -0.000177615 -2.91246e-05     -68.1276 
         -70      4.34582 -0.000177138 -2.96365e-05     -68.1258 
         -70      4.40998 -0.000176831 -3.04066e-05      -68.124 
         -70      4.47457 -0.000176658 -3.13691e-05     -68.1221 
         -70      4.53968 -0.000176581 -3.24591e-05     -68.1202 
         -70      4.60525 -0.000176563  -3.3611e-05     -68.1183 
         -70      4.67125 -0.000176572 -3.47637e-05     -68.1163 
         -70      4.73777 -0.000176578 -3.58666e-05     -68.1143 
         -70       4.8047 -0.000176557 -3.68758e-05     -68.1123 
         -70      4.87216 -0.000176494 -3.77627e-05     -68.1102 
         -70      4.94003 -0.000176378 -3.85092e-05     -68.1081 
         -70      5.00843 -0.000176206 -3.91131e-05     -68.1059 
         -70      5.07724 -0.000175983 -3.95837e-05     -68.1037 
         -70      5.14658 -0.000175717 -3.99437e-05     -68.1014 
         -70      5.21639 -0.000175423  -4.0224e-05     -68.0991 
         -70      5.28661 -0.000175116 -4.04608e-05     -68.0968 
         -70      5.35736  -0.00017481 -4.06911e-05     -68.0944 
         -70      5.42852 -0.000174515 -4.09436e-05     -68.0919 
         -70      5.50021  -0.00017423 -4.12324e-05     -68.0894 
         -70      5.57231 -0.000173937 -4.15435e-05     -68.0869 
         -70      5.64493 -0.000173596 -4.18246e-05     -68.0843 
         -70      5.71803 -0.000173135 -4.19672e-05     -68.0817 
         -70      5.79154 -0.000172442 -4.17901e-05      -68.079 
         -70      5.86558 -0.000171663 -4.19715e-05     -68.0763 
         -70      5.94003 -0.000171313 -4.28059e-05     -68.0735 
         -70      6.01501 -0.000171126 -4.33186e-05     -68.0707 
         -70       6.0904 -0.000171009  -4.3583e-05     -68.0678 
         -70      6.16632   -0.0001709 -4.36869e-05     -68.0649 
         -70      6.24271 -0.000170764 -4.37226e-05     -68.0619 
         -70       6.3195  -0.00017059 -4.37795e-05     -68.0589 
         -70      6.39683 -0.000170378  -4.3938e-05     -68.0558 
         -70      6.47457 -0.000170145 -4.42623e-05     -68.0527 
         -70      6.55284 -0.000169911  -4.4797e-05     -68.0495 
         -70      6.63152 -0.000169699 -4.55606e-05     -68.0463 
         -70      6.71073  -0.00016953 -4.65471e-05      -68.043 
         -70      6.79034 -0.000169416 -4.77199e-05     -68.0397 
         -70      6.87049 -0.000169363 -4.90186e-05     -68.0363 
         -70      6.95111 -0.000169361 -5.03564e-05     -68.0328 
         -70      7.03214 -0.000169386 -5.16268e-05     -68.0293 
         -70       7.1137 -0.000169399 -5.27155e-05     -68.0257 
         -70      7.19566 -0.000169341  -5.3503e-05     -68.0221 
         -70      7.27816 -0.000169137  -5.3885e-05     -68.0184 
         -70      7.36106 -0.000168699 -5.37841e-05     -68.0147 
         -70      7.44451 -0.000167921 -5.31723e-05     -68.0109 
         -70      7.52842 -0.000166693 -5.20948e-05      -68.007 
         -70      7.61273  -0.00016685 -5.19522e-05     -68.0031 
         -70      7.69758  -0.00016735 -5.23418e-05     -67.9991 
         -70      7.78283 -0.000168137 -5.39957e-05     -67.9951 
         -70      7.86862 -0.000169322 -5.77836e-05      -67.991 
         -70      7.95481 -0.000170004 -5.95393e-05     -67.9869 
         -70      8.04155 -0.000168854 -5.50096e-05     -67.9827 
         -70      8.12868 -0.000167676 -5.31603e-05     -67.9784 
         -70      8.21635 -0.000166438 -5.30958e-05      -67.974 
         -70      8.30449 -0.000165107 -5.41397e-05     -67.9696 
         -70      8.39303 -0.000163645    -5.58e-05     -67.9652 
         -70      8.48211 -0.000162034 -5.76728e-05     -67.9607 
         -70      8.57159 -0.000160906  -5.7921e-05     -67.9561 
         -70      8.66161  -0.00016021 -5.75704e-05     -67.9514 
         -70      8.75203 -0.000159879 -5.68815e-05     -67.9467 
         -70      8.84299  -0.00015982 -5.60916e-05     -67.9419 
         -70      8.93443 -0.000159928 -5.54003e-05     -67.9371 
         -70      9.02626 -0.000160096 -5.49541e-05     -67.9322 
         -70      9.11863 -0.000160224 -5.48365e-05     -67.9272 
         -70      9.21139  -0.00016023 -5.50667e-05     -67.9222 
         -70      9.30471 -0.000160052 -5.56006e-05     -67.9171 
         -70      9.39841 -0.000159658 -5.63387e-05     -67.9119 
         -70      9.49267 -0.000159048 -5.71446e-05     -67.9066 
         -70      9.58739 -0.000158252 -5.78648e-05     -67.9013 
         -70      9.68251 -0.000157333 -5.83635e-05      -67.896 
         -70      9.77817 -0.000156378 -5.85642e-05     -67.8905 
         -70      9.87422 -0.000155499 -5.85001e-05      -67.885 
         -70      9.97083 -0.000154813 -5.83772e-05     -67.8794 
         -70      10.0678 -0.000154435  -5.8649e-05     -67.8738 
         -70      10.1654 -0.000154478 -5.94218e-05     -67.8681 
         -70      10.2633 -0.000154824 -5.97101e-05     -67.8623 
         -70      10.3618 -0.000155205 -6.02993e-05     -67.8564 
         -70      10.4607 -0.000155444 -6.10809e-05     -67.8505 
         -70      10.5601  -0.00015539 -6.19275e-05     -67.8445 
         -70        10.66 -0.000154916 -6.26985e-05     -67.8384 
         -70      10.7603 -0.000153927 -6.32394e-05     -67.8323 
         -70      10.8611 -0.000152362 -6.33895e-05     -67.8261 
         -70      10.9623 -0.000150204 -6.29827e-05     -67.8198 
         -70      11.0641 -0.000147472 -6.18519e-05     -67.8135 
         -70      11.1663 -0.000147175 -6.20025e-05      -67.807 
         -70       11.269 -0.000149397  -6.3562e-05     -67.8005 
         -70      11.3721 -0.000150748 -6.42537e-05      -67.794 
         -70      11.4757  -0.00015136 -6.43489e-05     -67.7873 
         -70      11.5798 -0.000151377 -6.40928e-05     -67.7806 
         -70      11.6844 -0.000150945 -6.36944e-05     -67.7739 
         -70      11.7894 -0.000150199 -6.33195e-05      -67.767 
         -70       11.895 -0.000149266  -6.3088e-05     -67.7601 
         -70      12.0009 -0.000148254 -6.30704e-05     -67.7531 
         -70      12.1073 -0.000147251 -6.32886e-05      -67.746 
         -70      12.2142 -0.000146321 -6.37188e-05     -67.7389 
         -70      12.3216 -0.000145505 -6.42989e-05     -67.7316 
         -70      12.4294 -0.000144822 -6.49356e-05     -67.7243 
         -70      12.5378 -0.000144267 -6.55202e-05      -67.717 
         -70      12.6465 -0.000143824 -6.59421e-05     -67.7095 
         -70      12.7558 -0.000143465 -6.61128e-05      -67.702 
         -70      12.8656 -0.000143162 -6.59884e-05     -67.6944 
         -70      12.9757   -0.0001429 -6.56018e-05     -67.6868 
         -70      13.0864 -0.000142687 -6.50955e-05     -67.6791 
         -70      13.1975 -0.000142574 -6.47645e-05     -67.6712 
         -70      13.3092 -0.000142674 -6.51002e-05     -67.6634 
         -70      13.4212 -0.000142623 -6.56394e-05     -67.6554 
         -70      13.5338  -0.00014236 -6.59866e-05     -67.6474 
         -70      13.6468 -0.000142191 -6.66464e-05     -67.6393 
         -70      13.7603 -0.000142044 -6.74492e-05     -67.6311 
         -70      13.8743 -0.000141867  -6.8269e-05     -67.6228 
         -70      13.9886 -0.000141623 -6.90141e-05     -67.6145 
         -70      14.1036 -0.000141289 -6.96271e-05     -67.6061 
         -70      14.2189 -0.000140855 -7.00754e-05     -67.5977 
         -70      14.3348 -0.000140319 -7.03501e-05     -67.5891 
         -70       14.451  -0.00013969 -7.04589e-05     -67.5805 
         -70      14.5678  -0.00013898 -7.04232e-05     -67.5718 
         -70      14.6851 -0.000138208 -7.02732e-05      -67.563 
         -70      14.8028 -0.000137396 -7.00449e-05     -67.5542 
         -70       14.921 -0.000136564 -6.97753e-05     -67.5453 
         -70      15.0396 -0.000135737 -6.95006e-05     -67.5363 
         -70      15.1588 -0.000134934 -6.92524e-05     -67.5272 
         -70      15.2783 -0.000134174 -6.90561e-05     -67.5181 
         -70      15.3984 -0.000133472 -6.89285e-05     -67.5089 
         -70       15.519 -0.000132837 -6.88771e-05     -67.4996 
         -70        15.64 -0.000132277 -6.88987e-05     -67.4902 
         -70      15.7615 -0.000131791 -6.89802e-05     -67.4808 
         -70      15.8834 -0.000131374 -6.90985e-05     -67.4713 
         -70      16.0058 -0.000131014 -6.92223e-05     -67.4617 
         -70      16.1286 -0.000130698  -6.9314e-05     -67.4521 
         -70       16.252 -0.000130404 -6.93335e-05     -67.4423 
         -70      16.3759 -0.000130111 -6.92412e-05     -67.4326 
         -70      16.5002 -0.000129794 -6.90039e-05     -67.4227 
         -70       16.625 -0.000129428 -6.86001e-05     -67.4128 
         -70      16.7501 -0.000128992 -6.80285e-05     -67.4028 
         -70      16.8759 -0.000128467 -6.73141e-05     -67.3927 
         -70       17.002 -0.000127846 -6.65215e-05     -67.3825 
         -70      17.1287  -0.00012713 -6.57614e-05     -67.3723 
         -70      17.2557  -0.00012675 -6.78414e-05      -67.362 
         -70      17.3834 -0.000125918 -6.94134e-05     -67.3516 
         -70      17.5115 -0.000124504 -6.94537e-05     -67.3412 
         -70      17.6399 -0.000122444 -6.71417e-05     -67.3307 
         -70       17.769 -0.000121633 -6.81739e-05     -67.3201 
         -70      17.8984 -0.000121603 -6.89878e-05     -67.3095 
         -70      18.0284 -0.000122093 -6.92763e-05     -67.2988 
         -70      18.1587 -0.000122969 -6.92235e-05      -67.288 
         -70      18.2896 -0.000124106 -6.89857e-05     -67.2772 
         -70       18.421 -0.000124855 -6.90875e-05     -67.2662 
         -70      18.5528 -0.000124089 -7.03025e-05     -67.2553 
         -70      18.6851 -0.000123357 -7.13879e-05     -67.2442 
         -70      18.8178 -0.000122662  -7.2312e-05     -67.2331 
         -70      18.9511 -0.000122003 -7.30639e-05     -67.2219 
         -70      19.0847 -0.000121376  -7.3645e-05     -67.2106 
         -70      19.2189 -0.000120777 -7.40697e-05     -67.1993 
         -70      19.3535 -0.000120201 -7.43594e-05     -67.1879 
         -70      19.4886 -0.000119641 -7.45418e-05     -67.1765 
         -70      19.6242 -0.000119092  -7.4647e-05      -67.165 
         -70      19.7602 -0.000118549 -7.47055e-05     -67.1534 
         -70      19.8968 -0.000118007 -7.47465e-05     -67.1417 
         -70      20.0337 -0.000117463 -7.47952e-05       -67.13 
         -70      20.1712 -0.000116916 -7.48724e-05     -67.1182 
         -70      20.3091 -0.000116366 -7.49924e-05     -67.1064 
         -70      20.4475 -0.000115813 -7.51629e-05     -67.0945 
         -70      20.5864  -0.00011526 -7.53844e-05     -67.0825 
         -70      20.7257 -0.000114713 -7.56501e-05     -67.0705 
         -70      20.8655 -0.000114174 -7.59472e-05     -67.0584 
         -70      21.0058 -0.000113652 -7.62568e-05     -67.0463 
         -70      21.1465 -0.000113151 -7.65571e-05      -67.034 
         -70      21.2877 -0.000112678 -7.68238e-05     -67.0218 
         -70      21.4294 -0.000112237 -7.70347e-05     -67.0094 
         -70      21.5716 -0.000111829 -7.71717e-05      -66.997 
         -70      21.7142 -0.000111455 -7.72257e-05     -66.9846 
         -70      21.8573  -0.00011111 -7.72014e-05     -66.9721 
         -70      22.0008 -0.000110781  -7.7123e-05     -66.9595 
         -70      22.1449 -0.000110451 -7.70403e-05     -66.9469 
         -70      22.2893 -0.000110092 -7.70364e-05     -66.9342 
         -70      22.4344 -0.000109665 -7.72361e-05     -66.9214 
         -70      22.5797 -0.000109118  -7.7814e-05     -66.9086 
         -70      22.7257 -0.000108383  -7.9007e-05     -66.8958 
         -70      22.8721 -0.000107286 -7.96463e-05     -66.8828 
         -70      23.0189 -0.000106207 -7.90965e-05     -66.8699 
         -70      23.1663 -0.000105347 -7.87066e-05     -66.8568 
         -70       23.314 -0.000104654 -7.84462e-05     -66.8438 
         -70      23.4623 -0.000104081 -7.82867e-05     -66.8306 
         -70       23.611 -0.000103591 -7.82038e-05     -66.8174 
         -70      23.7602 -0.000103153 -7.81758e-05     -66.8042 
         -70        23.91 -0.000102743 -7.81844e-05     -66.7909 
         -70        24.06 -0.000102341 -7.82143e-05     -66.7776 
         -70      24.2107 -0.000101935 -7.82533e-05     -66.7642 
         -70      24.3617 -0.000101515  -7.8292e-05     -66.7507 
         -70      24.5133 -0.000101075 -7.83245e-05     -66.7372 
         -70      24.6653 -0.000100613 -7.83476e-05     -66.7237 
         -70      24.8178  -0.00010013 -7.83613e-05     -66.7101 
         -70      24.9708 -9.96279e-05 -7.83686e-05     -66.6964 
         -70      25.1242 -9.91107e-05 -7.83756e-05     -66.6827 
         -70      25.2781 -9.85819e-05 -7.83917e-05      -66.669 
         -70      25.4324  -9.8047e-05 -7.84296e-05     -66.6552 
         -70      25.5873 -9.75091e-05 -7.85053e-05     -66.6413 
         -70      25.7426 -9.69722e-05 -7.86382e-05     -66.6274 
         -70      25.8984  -9.6437e-05 -7.88516e-05     -66.6135 
         -70      26.0546 -9.59039e-05 -7.91721e-05     -66.5995 
         -70      26.2114 -9.53687e-05  -7.9631e-05     -66.5855 
         -70      26.3686 -9.49213e-05   -7.933e-05     -66.5714 
         -70      26.5262 -9.45414e-05 -7.89771e-05     -66.5573 
         -70      26.6844 -9.41959e-05  -7.8716e-05     -66.5432 
         -70      26.8429  -9.3864e-05 -7.85567e-05      -66.529 
         -70       27.002 -9.35267e-05 -7.85007e-05     -66.5147 
         -70      27.1615  -9.3169e-05 -7.85425e-05     -66.5004 
         -70      27.3216 -9.27776e-05 -7.86707e-05     -66.4861 
         -70      27.4821  -9.2343e-05 -7.88685e-05     -66.4717 
         -70       27.643 -9.18595e-05 -7.91152e-05     -66.4573 
         -70      27.8044 -9.13231e-05 -7.93878e-05     -66.4429 
         -70      27.9663 -9.07356e-05 -7.96607e-05     -66.4284 
         -70      28.1287 -9.01008e-05  -7.9909e-05     -66.4139 
         -70      28.2914 -8.94289e-05 -8.01077e-05     -66.3993 
         -70      28.4548 -8.87326e-05 -8.02342e-05     -66.3847 
         -70      28.6185 -8.80325e-05 -8.02691e-05     -66.3701 
         -70      28.7828 -8.73525e-05 -8.01976e-05     -66.3554 
         -70      28.9475 -8.67249e-05 -8.00109e-05     -66.3407 
         -70      29.1126 -8.61889e-05 -7.97077e-05     -66.3259 
         -70      29.2784 -8.57905e-05 -7.92949e-05     -66.3111 
         -70      29.4444 -8.55857e-05 -7.87905e-05     -66.2963 
         -70       29.611 -8.56398e-05 -7.82226e-05     -66.2815 
         -70       29.778 -8.55889e-05 -7.78878e-05     -66.2666 
         -70      29.9456 -8.43729e-05 -7.85865e-05     -66.2517 
         -70      30.1137 -8.36638e-05 -7.92909e-05     -66.2367 
         -70      30.2821 -8.32942e-05 -7.99316e-05     -66.2217 
         -70      30.4511 -8.31305e-05 -8.04625e-05     -66.2067 
         -70      30.6204 -8.30698e-05  -8.0855e-05     -66.1917 
         -70      30.7903 -8.30354e-05 -8.10974e-05     -66.1766 
         -70      30.9606 -8.29734e-05   -8.119e-05     -66.1615 
         -70      31.1315 -8.28491e-05 -8.11434e-05     -66.1464 
         -70      31.3028 -8.26436e-05 -8.09756e-05     -66.1312 
         -70      31.4745 -8.23512e-05   -8.071e-05      -66.116 
         -70      31.6468 -8.19753e-05 -8.03718e-05     -66.1008 
         -70      31.8194 -8.15274e-05 -7.99882e-05     -66.0856 
         -70      31.9926 -8.10225e-05 -7.95842e-05     -66.0703 
         -70      32.1662 -8.04798e-05 -7.91837e-05      -66.055 
         -70      32.3404  -7.9917e-05 -7.88056e-05     -66.0397 
         -70      32.5149  -7.9353e-05 -7.84656e-05     -66.0243 
         -70        32.69 -7.88023e-05 -7.81729e-05     -66.0089 
         -70      32.8655 -7.82778e-05 -7.79325e-05     -65.9935 
         -70      33.0414  -7.7788e-05 -7.77434e-05     -65.9781 
         -70       33.218 -7.73368e-05 -7.75998e-05     -65.9627 
         -70      33.3948 -7.69251e-05 -7.74922e-05     -65.9472 
         -70      33.5723 -7.65497e-05 -7.74078e-05     -65.9317 
         -70        33.75 -7.62062e-05 -7.73335e-05     -65.9162 
         -70      33.9284 -7.58885e-05 -7.72566e-05     -65.9007 
         -70      34.1073 -7.55928e-05 -7.71686e-05     -65.8851 
         -70      34.2865 -7.53193e-05 -7.70678e-05     -65.8696 
         -70      34.4663 -7.50746e-05  -7.6963e-05      -65.854 
         -70      34.6465 -7.48771e-05 -7.68781e-05     -65.8384 
         -70      34.8272 -7.47595e-05 -7.68562e-05     -65.8227 
         -70      35.0083 -7.32378e-05 -7.73564e-05     -65.8071 
         -70        35.19 -7.20979e-05 -7.70788e-05     -65.7914 
         -70      35.3721 -7.12587e-05 -7.75084e-05     -65.7757 
         -70      35.5546 -7.05731e-05 -7.78802e-05     -65.7601 
         -70      35.7377 -7.00069e-05 -7.81726e-05     -65.7443 
         -70      35.9211  -6.9534e-05  -7.8376e-05     -65.7286 
         -70      36.1052 -6.91317e-05 -7.84917e-05     -65.7129 
         -70      36.2895 -6.87831e-05 -7.85282e-05     -65.6971 
         -70      36.4745 -6.84742e-05    -7.85e-05     -65.6813 
         -70      36.6598 -6.81948e-05 -7.84248e-05     -65.6656 
         -70      36.8457 -6.79366e-05 -7.83217e-05     -65.6498 
         -70      37.0321 -6.76939e-05 -7.82096e-05      -65.634 
         -70      37.2188 -6.74623e-05 -7.81056e-05     -65.6181 
         -70      37.4062 -6.72381e-05 -7.80239e-05     -65.6023 
         -70      37.5938 -6.70188e-05 -7.79744e-05     -65.5865 
         -70      37.7821 -6.68016e-05 -7.79622e-05     -65.5706 
         -70      37.9707 -6.65842e-05 -7.79872e-05     -65.5547 
         -70      38.1599 -6.63638e-05 -7.80437e-05     -65.5389 
         -70      38.3496 -6.61375e-05 -7.81205e-05      -65.523 
         -70      38.5396  -6.5902e-05 -7.82013e-05     -65.5071 
         -70      38.7302 -6.56532e-05 -7.82659e-05     -65.4912 
         -70      38.9211 -6.53875e-05 -7.82905e-05     -65.4753 
         -70      39.1127 -6.51003e-05 -7.82501e-05     -65.4594 
         -70      39.3046  -6.4788e-05 -7.81196e-05     -65.4434 
         -70      39.4971 -6.44468e-05 -7.78765e-05     -65.4275 
         -70      39.6899 -6.40748e-05 -7.75039e-05     -65.4116 
         -70      39.8833 -6.36705e-05 -7.69926e-05     -65.3956 
         -70      40.0772 -6.32357e-05 -7.63461e-05     -65.3797 
         -70      40.2714 -6.27754e-05 -7.55846e-05     -65.3637 
         -70      40.4663 -6.22973e-05 -7.47472e-05     -65.3478 
         -70      40.6615 -6.18158e-05 -7.39015e-05     -65.3318 
         -70      40.8573 -6.13499e-05 -7.31443e-05     -65.3158 
         -70      41.0534 -6.09277e-05 -7.26126e-05     -65.2999 
         -70      41.2501 -6.05849e-05 -7.24865e-05     -65.2839 
         -70      41.4473 -6.03689e-05 -7.29999e-05     -65.2679 
         -70      41.6448 -6.03388e-05 -7.44453e-05      -65.252 
         -70      41.8429  -5.9688e-05 -7.47679e-05      -65.236 
         -70      42.0414  -5.8767e-05  -7.3575e-05       -65.22 
         -70      42.2405 -5.83247e-05 -7.38592e-05      -65.204 
         -70      42.4399 -5.78677e-05 -7.38517e-05     -65.1881 
         -70      42.6399 -5.74123e-05 -7.36228e-05     -65.1721 
         -70      42.8404 -5.69722e-05 -7.32341e-05     -65.1561 
         -70      43.0412 -5.65581e-05 -7.27388e-05     -65.1401 
         -70      43.2426 -5.61768e-05  -7.2181e-05     -65.1242 
         -70      43.4444 -5.58336e-05 -7.15988e-05     -65.1082 
         -70      43.6467 -5.55307e-05 -7.10219e-05     -65.0922 
         -70      43.8494  -5.5269e-05 -7.04754e-05     -65.0763 
         -70      44.0527 -5.50468e-05 -6.99767e-05     -65.0603 
         -70      44.2563 -5.48618e-05 -6.95398e-05     -65.0443 
         -70      44.4606 -5.47097e-05 -6.91723e-05     -65.0284 
         -70      44.6653 -5.45858e-05  -6.8879e-05     -65.0124 
         -70      44.8704 -5.44845e-05 -6.86605e-05     -64.9965 
         -70       45.076 -5.43994e-05 -6.85138e-05     -64.9805 
         -70       45.282 -5.43242e-05 -6.84338e-05     -64.9646 
         -70      45.4886 -5.42522e-05 -6.84129e-05     -64.9487 
         -70      45.6955 -5.41772e-05 -6.84417e-05     -64.9328 
         -70       45.903 -5.40928e-05 -6.85096e-05     -64.9168 
         -70      46.1111 -5.39934e-05  -6.8605e-05     -64.9009 
         -70      46.3194 -5.38704e-05 -6.87106e-05      -64.885 
         -70      46.5283 -5.36819e-05 -6.87786e-05     -64.8691 
         -70      46.7376 -5.34271e-05 -6.88126e-05     -64.8532 
         -70      46.9475 -5.31082e-05 -6.88064e-05     -64.8374 
         -70      47.1577 -5.27311e-05 -6.87559e-05     -64.8215 
         -70      47.3685 -5.23031e-05 -6.86584e-05     -64.8056 
         -70      47.5798 -5.18348e-05 -6.85134e-05     -64.7898 
         -70      47.7914 -5.13386e-05 -6.83222e-05     -64.7739 
         -70      48.0037 -5.08274e-05 -6.80878e-05     -64.7581 