Variables = x, y, u, v, p

Zone, I=800, F=POINT
         -10            0  1.07288e-19  2.12702e-24      49.8343 
         -10     0.000234  5.31719e-06  1.07877e-10      49.8343 
         -10     0.000939  2.00566e-05   4.3669e-10      49.8343 
         -10     0.002113  4.06817e-05  9.99647e-10      49.8343 
         -10     0.003759   6.2479e-05  1.83003e-09      49.8343 
         -10     0.005872  8.06772e-05  2.98405e-09      49.8343 
         -10     0.008457  9.19763e-05    4.558e-09      49.8343 
         -10      0.01151  9.52992e-05  6.68023e-09      49.8343 
         -10     0.015036  9.21241e-05  9.51641e-09      49.8343 
         -10     0.019031  8.58544e-05  1.32412e-08      49.8343 
         -10     0.023493    8.048e-05  1.80208e-08      49.8343 
         -10     0.028429  7.88621e-05  2.39954e-08      49.8343 
         -10     0.033831  8.13439e-05  3.12266e-08      49.8343 
         -10     0.039706  8.53831e-05   3.9721e-08      49.8343 
         -10     0.046047  8.68703e-05   4.9398e-08      49.8343 
         -10     0.052863  8.31544e-05  6.01588e-08      49.8343 
         -10      0.06015  7.65088e-05  7.18745e-08      49.8343 
         -10       0.0679  7.45981e-05  8.44027e-08      49.8343 
         -10     0.076126  8.09289e-05  9.75298e-08      49.8343 
         -10     0.084816  7.22739e-05   1.1066e-07      49.8343 
         -10     0.093982  7.39033e-05  1.23749e-07      49.8343 
         -10     0.103611  7.35896e-05  1.36238e-07      49.8343 
         -10     0.113718  7.23968e-05  1.47647e-07      49.8343 
         -10     0.124286  7.10855e-05  1.57462e-07      49.8343 
         -10     0.135333  7.00741e-05  1.65212e-07      49.8343 
         -10      0.14685  6.94718e-05   1.7041e-07      49.8343 
         -10     0.158827  6.91568e-05   1.7258e-07      49.8343 
         -10     0.171284  6.89103e-05  1.71247e-07      49.8343 
         -10     0.184201  6.85724e-05  1.65934e-07      49.8343 
         -10     0.197599  6.81696e-05  1.56157e-07      49.8343 
         -10     0.211455  6.79482e-05  1.41509e-07      49.8343 
         -10     0.225792  6.81927e-05  1.21679e-07      49.8343 
         -10       0.2406  6.86895e-05  9.66877e-08      49.8343 
         -10     0.255865  6.86416e-05  6.64258e-08      49.8343 
         -10     0.271613  6.91759e-05  3.02158e-08      49.8343 
         -10     0.287818  6.97541e-05 -1.13303e-08      49.8343 
         -10     0.304506  7.03928e-05 -5.85067e-08      49.8343 
         -10      0.32165  7.10997e-05 -1.11325e-07      49.8343 
         -10     0.339278  7.18786e-05 -1.69816e-07      49.8343 
         -10     0.357377  7.27254e-05 -2.33748e-07      49.8343 
         -10      0.37593  7.36312e-05 -3.02732e-07      49.8343 
         -10     0.394968  7.45863e-05 -3.76441e-07      49.8343 
         -10     0.414461  7.55763e-05 -4.54225e-07      49.8343 
         -10      0.43444  7.65904e-05 -5.35596e-07      49.8343 
         -10     0.454872  7.76169e-05 -6.19766e-07      49.8343 
         -10     0.475791  7.86509e-05 -7.06195e-07      49.8343 
         -10     0.497163  7.96887e-05 -7.94064e-07      49.8343 
         -10     0.519021  8.07336e-05  -8.8284e-07      49.8343 
         -10      0.54135  8.17884e-05 -9.71795e-07      49.8343 
         -10     0.564131  8.28521e-05 -1.06018e-06      49.8343 
         -10       0.5874  8.39156e-05 -1.14736e-06      49.8343 
         -10     0.611121  8.49469e-05 -1.23341e-06      49.8343 
         -10      0.63533  8.59937e-05 -1.32571e-06      49.8343 
         -10      0.65999  8.70409e-05 -1.41208e-06      49.8343 
         -10     0.685139  8.80893e-05 -1.49428e-06      49.8343 
         -10     0.710759  8.91361e-05  -1.5735e-06      49.8343 
         -10     0.736828  9.01773e-05 -1.65056e-06      49.8343 
         -10     0.763387  9.12108e-05 -1.72612e-06      49.8343 
         -10     0.790396  9.22302e-05 -1.80026e-06      49.8343 
         -10     0.817896  9.32316e-05 -1.87302e-06      49.8343 
         -10     0.845843  9.42075e-05 -1.94396e-06      49.8343 
         -10     0.874283  9.51531e-05  -2.0127e-06      49.8343 
         -10      0.90317  9.60602e-05 -2.07851e-06      49.8343 
         -10     0.932551  9.69238e-05 -2.14085e-06      49.8343 
         -10     0.962401  9.77367e-05 -2.19902e-06      49.8342 
         -10     0.992697  9.84928e-05 -2.25247e-06      49.8342 
         -10      1.02349  9.91883e-05 -2.30096e-06      49.8342 
         -10      1.05472  9.98183e-05  -2.3443e-06      49.8342 
         -10      1.08645  0.000100381 -2.38275e-06      49.8342 
         -10      1.11863  0.000100876 -2.41674e-06      49.8342 
         -10       1.1513  0.000101304 -2.44708e-06      49.8342 
         -10      1.18444  0.000101668 -2.47477e-06      49.8342 
         -10      1.21802  0.000101974 -2.50092e-06      49.8342 
         -10      1.25211  0.000102228 -2.52665e-06      49.8342 
         -10      1.28663  0.000102441 -2.55271e-06      49.8342 
         -10      1.32165  0.000102625 -2.57927e-06      49.8342 
         -10      1.35712  0.000102792 -2.60527e-06      49.8342 
         -10      1.39308  0.000102956 -2.62802e-06      49.8342 
         -10      1.42951  0.000103132 -2.64224e-06      49.8342 
         -10      1.46638  0.000103334 -2.63927e-06      49.8341 
         -10      1.50375  0.000103571 -2.60578e-06      49.8341 
         -10      1.54156  0.000103496 -2.73493e-06      49.8341 
         -10      1.57987  0.000103403 -2.80169e-06      49.8341 
         -10      1.61863  0.000103324 -2.80628e-06      49.8341 
         -10      1.65788  0.000103261 -2.76494e-06      49.8341 
         -10      1.69757  0.000103216 -2.69244e-06      49.8341 
         -10      1.73776  0.000103189 -2.60179e-06      49.8341 
         -10      1.77842  0.000103181 -2.50451e-06      49.8341 
         -10      1.81952  0.000103189 -2.41045e-06      49.8341 
         -10      1.86113  0.000103211 -2.32753e-06       49.834 
         -10      1.90316  0.000103243 -2.26226e-06       49.834 
         -10      1.94571  0.000103281 -2.21919e-06       49.834 
         -10      1.98869   0.00010332 -2.20143e-06       49.834 
         -10      2.03217  0.000103355 -2.21037e-06       49.834 
         -10      2.07612   0.00010338 -2.24592e-06       49.834 
         -10      2.12051   0.00010339 -2.30651e-06       49.834 
         -10       2.1654  0.000103379 -2.38938e-06      49.8339 
         -10      2.21073  0.000103342 -2.49036e-06      49.8339 
         -10      2.25656  0.000103274 -2.60452e-06      49.8339 
         -10      2.30283  0.000103172 -2.72573e-06      49.8339 
         -10       2.3496  0.000103032 -2.84748e-06      49.8339 
         -10      2.39685  0.000102852 -2.96251e-06      49.8339 
         -10      2.44452  0.000102633 -3.06322e-06      49.8338 
         -10      2.49271  0.000102373 -3.14217e-06      49.8338 
         -10      2.54132  0.000102077 -3.19174e-06      49.8338 
         -10      2.59044  0.000101748 -3.20485e-06      49.8338 
         -10         2.64  0.000101391 -3.17485e-06      49.8337 
         -10      2.69006  0.000101014 -3.09582e-06      49.8337 
         -10      2.74056  0.000100627   -2.963e-06      49.8337 
         -10      2.79156  0.000100238 -2.77241e-06      49.8337 
         -10      2.84304  9.98605e-05 -2.52169e-06      49.8336 
         -10      2.89494  9.95073e-05 -2.21011e-06      49.8336 
         -10      2.94735  9.91911e-05 -1.83775e-06      49.8336 
         -10       3.0002  9.89259e-05 -1.40739e-06      49.8336 
         -10      3.05355  9.87239e-05 -9.22185e-07      49.8335 
         -10      3.10733  9.85969e-05  -3.8832e-07      49.8335 
         -10      3.16163  9.85535e-05  1.88136e-07      49.8335 
         -10      3.21639  9.85991e-05  7.98557e-07      49.8334 
         -10      3.27158  9.87342e-05   1.4332e-06      49.8334 
         -10      3.32729  9.89525e-05  2.08324e-06      49.8334 
         -10      3.38342   9.9239e-05  2.73768e-06      49.8333 
         -10      3.44007  9.95691e-05  3.38807e-06      49.8333 
         -10      3.49714  9.99037e-05  4.02524e-06      49.8333 
         -10      3.55472  0.000100189  4.64422e-06      49.8332 
         -10      3.61273  0.000100353  5.24147e-06      49.8332 
         -10      3.67125  0.000100298  5.81997e-06      49.8332 
         -10      3.73025  9.99037e-05  6.38758e-06      49.8331 
         -10      3.78967  9.94656e-05  6.77589e-06      49.8331 
         -10      3.84961  9.91463e-05  7.25128e-06       49.833 
         -10      3.90996  9.88291e-05  7.84199e-06       49.833 
         -10      3.97084  9.85232e-05   8.4657e-06      49.8329 
         -10      4.03214  9.82328e-05  9.06177e-06      49.8329 
         -10      4.09395  9.79553e-05  9.59137e-06      49.8328 
         -10      4.15624  9.76841e-05  1.00302e-05      49.8328 
         -10      4.21895  9.74085e-05  1.03665e-05      49.8327 
         -10      4.28217  9.71995e-05  1.09358e-05      49.8327 
         -10      4.34582  9.69773e-05    1.151e-05      49.8326 
         -10      4.40998  9.67265e-05  1.20132e-05      49.8326 
         -10      4.47457  9.64617e-05  1.24628e-05      49.8325 
         -10      4.53968  9.61971e-05  1.28713e-05      49.8325 
         -10      4.60525  9.59465e-05  1.32442e-05      49.8324 
         -10      4.67125  9.57213e-05  1.35821e-05      49.8323 
         -10      4.73777  9.55291e-05  1.38826e-05      49.8323 
         -10       4.8047  9.53741e-05  1.41401e-05      49.8322 
         -10      4.87216  9.52553e-05  1.43506e-05      49.8321 
         -10      4.94003  9.51669e-05   1.4512e-05      49.8321 
         -10      5.00843  9.50984e-05  1.46298e-05       49.832 
         -10      5.07724  9.50349e-05  1.47197e-05      49.8319 
         -10      5.14658  9.49579e-05  1.48134e-05      49.8318 
         -10      5.21639  9.48473e-05  1.49643e-05      49.8318 
         -10      5.28661  9.47016e-05  1.51704e-05      49.8317 
         -10      5.35736   9.4548e-05  1.50795e-05      49.8316 
         -10      5.42852  9.42854e-05  1.51199e-05      49.8315 
         -10      5.50021  9.39579e-05  1.52457e-05      49.8314 
         -10      5.57231  9.35978e-05  1.54203e-05      49.8313 
         -10      5.64493  9.32256e-05  1.56157e-05      49.8313 
         -10      5.71803  9.28553e-05  1.58113e-05      49.8312 
         -10      5.79154  9.24951e-05  1.59931e-05      49.8311 
         -10      5.86558  9.21491e-05  1.61538e-05       49.831 
         -10      5.94003  9.18208e-05  1.62902e-05      49.8309 
         -10      6.01501  9.15125e-05  1.64039e-05      49.8308 
         -10       6.0904  9.12281e-05  1.64987e-05      49.8307 
         -10      6.16632  9.09721e-05  1.65807e-05      49.8306 
         -10      6.24271   9.0751e-05  1.66561e-05      49.8304 
         -10       6.3195  9.05717e-05  1.67306e-05      49.8303 
         -10      6.39683  9.04401e-05  1.68083e-05      49.8302 
         -10      6.47457  9.03599e-05  1.68897e-05      49.8301 
         -10      6.55284  9.03284e-05  1.69707e-05        49.83 
         -10      6.63152  9.03333e-05  1.70413e-05      49.8299 
         -10      6.71073   9.0347e-05  1.70843e-05      49.8297 
         -10      6.79034  9.03209e-05  1.70734e-05      49.8296 
         -10      6.87049  9.01771e-05  1.69721e-05      49.8295 
         -10      6.95111  8.99044e-05  1.67603e-05      49.8293 
         -10      7.03214  8.97754e-05  1.65316e-05      49.8292 
         -10       7.1137  8.96218e-05  1.72476e-05       49.829 
         -10      7.19566  8.96165e-05  1.77211e-05      49.8289 
         -10      7.27816  8.96991e-05  1.73529e-05      49.8287 
         -10      7.36106  8.97489e-05  1.70551e-05      49.8286 
         -10      7.44451   8.9749e-05  1.68938e-05      49.8284 
         -10      7.52842  8.96942e-05  1.68883e-05      49.8283 
         -10      7.61273  8.95882e-05  1.70234e-05      49.8281 
         -10      7.69758   8.9441e-05  1.72624e-05      49.8279 
         -10      7.78283  8.92669e-05  1.75571e-05      49.8278 
         -10      7.86862  8.90814e-05  1.78588e-05      49.8276 
         -10      7.95481  8.89001e-05  1.81247e-05      49.8274 
         -10      8.04155  8.87363e-05   1.8325e-05      49.8272 
         -10      8.12868  8.86001e-05  1.84454e-05       49.827 
         -10      8.21635  8.84971e-05   1.8489e-05      49.8268 
         -10      8.30449  8.84283e-05  1.84738e-05      49.8266 
         -10      8.39303  8.83896e-05  1.84283e-05      49.8264 
         -10      8.48211  8.83727e-05  1.83822e-05      49.8262 
         -10      8.57159  8.83661e-05  1.83543e-05       49.826 
         -10      8.66161  8.83569e-05  1.83357e-05      49.8258 
         -10      8.75203  8.83335e-05   1.8268e-05      49.8256 
         -10      8.84299  8.82891e-05  1.80169e-05      49.8254 
         -10      8.93443  8.81383e-05  1.78513e-05      49.8251 
         -10      9.02626  8.77716e-05   1.7754e-05      49.8249 
         -10      9.11863  8.74067e-05  1.72864e-05      49.8247 
         -10      9.21139   8.7161e-05  1.66597e-05      49.8244 
         -10      9.30471  8.70734e-05  1.60929e-05      49.8242 
         -10      9.39841  8.71002e-05  1.58773e-05      49.8239 
         -10      9.49267  8.71139e-05  1.64405e-05      49.8237 
         -10      9.58739  8.70655e-05  1.61104e-05      49.8234 
         -10      9.68251  8.70377e-05   1.5477e-05      49.8232 
         -10      9.77817  8.70107e-05  1.53249e-05      49.8229 
         -10      9.87422  8.69874e-05  1.54611e-05      49.8226 
         -10      9.97083  8.69689e-05  1.57326e-05      49.8223 
         -10      10.0678  8.69564e-05  1.60242e-05       49.822 
         -10      10.1654  8.69518e-05  1.62561e-05      49.8217 
         -10      10.2633  8.69579e-05  1.63798e-05      49.8214 
         -10      10.3618  8.69782e-05  1.63765e-05      49.8211 
         -10      10.4607  8.70163e-05  1.62528e-05      49.8208 
         -10      10.5601  8.70732e-05  1.60386e-05      49.8205 
         -10        10.66  8.71459e-05   1.5783e-05      49.8202 
         -10      10.7603  8.72232e-05   1.5552e-05      49.8199 
         -10      10.8611  8.72817e-05  1.54245e-05      49.8195 
         -10      10.9623  8.72801e-05  1.54898e-05      49.8192 
         -10      11.0641  8.71528e-05  1.58444e-05      49.8188 
         -10      11.1663  8.68116e-05  1.65351e-05      49.8185 
         -10       11.269  8.66284e-05  1.58524e-05      49.8181 
         -10      11.3721  8.64515e-05  1.54746e-05      49.8178 
         -10      11.4757  8.63179e-05   1.5294e-05      49.8174 
         -10      11.5798  8.62488e-05   1.5229e-05       49.817 
         -10      11.6844  8.62513e-05  1.52223e-05      49.8166 
         -10      11.7894  8.63193e-05  1.52355e-05      49.8162 
         -10       11.895  8.64351e-05  1.52448e-05      49.8158 
         -10      12.0009  8.65712e-05  1.52347e-05      49.8154 
         -10      12.1073  8.66932e-05  1.51921e-05       49.815 
         -10      12.2142  8.67616e-05  1.50987e-05      49.8146 
         -10      12.3216   8.6736e-05  1.49225e-05      49.8142 
         -10      12.4294  8.65783e-05  1.46094e-05      49.8137 
         -10      12.5378  8.66285e-05  1.46771e-05      49.8133 
         -10      12.6465   8.6914e-05  1.50327e-05      49.8128 
         -10      12.7558  8.70765e-05  1.51176e-05      49.8124 
         -10      12.8656  8.71434e-05   1.5032e-05      49.8119 
         -10      12.9757  8.71435e-05  1.48589e-05      49.8115 
         -10      13.0864  8.71053e-05  1.46617e-05       49.811 
         -10      13.1975  8.70556e-05  1.44848e-05      49.8105 
         -10      13.3092  8.70174e-05  1.43532e-05        49.81 
         -10      13.4212  8.70089e-05  1.42745e-05      49.8095 
         -10      13.5338  8.70402e-05  1.42409e-05       49.809 
         -10      13.6468  8.71115e-05  1.42327e-05      49.8085 
         -10      13.7603  8.72103e-05  1.42229e-05       49.808 
         -10      13.8743  8.73083e-05   1.4183e-05      49.8074 
         -10      13.9886  8.73579e-05  1.40904e-05      49.8069 
         -10      14.1036  8.72888e-05  1.39366e-05      49.8063 
         -10      14.2189  8.70041e-05   1.3738e-05      49.8058 
         -10      14.3348  8.64986e-05  1.35737e-05      49.8052 
         -10       14.451  8.63295e-05  1.35347e-05      49.8046 
         -10      14.5678  8.62829e-05  1.35201e-05      49.8041 
         -10      14.6851  8.63163e-05  1.35258e-05      49.8035 
         -10      14.8028  8.63957e-05  1.35468e-05      49.8029 
         -10       14.921  8.64951e-05  1.35776e-05      49.8023 
         -10      15.0396  8.65953e-05  1.36127e-05      49.8017 
         -10      15.1588  8.66834e-05  1.36465e-05       49.801 
         -10      15.2783  8.67513e-05  1.36743e-05      49.8004 
         -10      15.3984  8.67954e-05  1.36921e-05      49.7998 
         -10       15.519  8.68152e-05  1.36969e-05      49.7991 
         -10        15.64  8.68131e-05  1.36871e-05      49.7984 
         -10      15.7615  8.67931e-05  1.36625e-05      49.7978 
         -10      15.8834  8.67604e-05  1.36242e-05      49.7971 
         -10      16.0058  8.67204e-05  1.35746e-05      49.7964 
         -10      16.1286  8.66784e-05  1.35177e-05      49.7957 
         -10       16.252  8.66391e-05  1.34585e-05       49.795 
         -10      16.3759  8.66055e-05  1.34027e-05      49.7943 
         -10      16.5002  8.65795e-05  1.33568e-05      49.7936 
         -10       16.625  8.65605e-05  1.33271e-05      49.7928 
         -10      16.7501   8.6546e-05  1.33196e-05      49.7921 
         -10      16.8759  8.65314e-05  1.33387e-05      49.7913 
         -10       17.002  8.65093e-05  1.33872e-05      49.7906 
         -10      17.1287  8.64707e-05  1.34647e-05      49.7898 
         -10      17.2557  8.64045e-05  1.35666e-05       49.789 
         -10      17.3834  8.62978e-05  1.36833e-05      49.7882 
         -10      17.5115  8.61374e-05  1.37983e-05      49.7874 
         -10      17.6399  8.59096e-05  1.38869e-05      49.7866 
         -10       17.769  8.56011e-05  1.39145e-05      49.7858 
         -10      17.8984  8.52013e-05  1.38346e-05       49.785 
         -10      18.0284  8.47013e-05  1.35865e-05      49.7841 
         -10      18.1587  8.44403e-05  1.33241e-05      49.7833 
         -10      18.2896  8.43475e-05  1.34032e-05      49.7824 
         -10       18.421  8.44999e-05  1.38364e-05      49.7815 
         -10      18.5528  8.51014e-05  1.37838e-05      49.7807 
         -10      18.6851  8.54933e-05  1.37206e-05      49.7798 
         -10      18.8178  8.57305e-05  1.36925e-05      49.7789 
         -10      18.9511  8.58581e-05   1.3723e-05      49.7779 
         -10      19.0847  8.59105e-05  1.38182e-05       49.777 
         -10      19.2189  8.59146e-05  1.39713e-05      49.7761 
         -10      19.3535  8.58899e-05  1.41664e-05      49.7751 
         -10      19.4886  8.58504e-05  1.43828e-05      49.7742 
         -10      19.6242  8.58057e-05  1.45977e-05      49.7732 
         -10      19.7602  8.57619e-05  1.47892e-05      49.7722 
         -10      19.8968  8.57224e-05  1.49395e-05      49.7712 
         -10      20.0337  8.56892e-05  1.50357e-05      49.7702 
         -10      20.1712  8.56633e-05  1.50719e-05      49.7692 
         -10      20.3091  8.56453e-05  1.50495e-05      49.7682 
         -10      20.4475  8.56358e-05  1.49776e-05      49.7672 
         -10      20.5864  8.56357e-05   1.4872e-05      49.7661 
         -10      20.7257  8.56462e-05  1.47542e-05      49.7651 
         -10      20.8655  8.56687e-05  1.46487e-05       49.764 
         -10      21.0058  8.57043e-05  1.45803e-05      49.7629 
         -10      21.1465  8.57536e-05  1.45699e-05      49.7618 
         -10      21.2877  8.58155e-05  1.46295e-05      49.7607 
         -10      21.4294  8.58865e-05  1.47565e-05      49.7596 
         -10      21.5716  8.59587e-05  1.49261e-05      49.7585 
         -10      21.7142  8.60192e-05  1.50832e-05      49.7574 
         -10      21.8573  8.60472e-05   1.5133e-05      49.7562 
         -10      22.0008  8.60125e-05  1.49304e-05      49.7551 
         -10      22.1449  8.58724e-05  1.42665e-05      49.7539 
         -10      22.2893  8.54517e-05  1.48001e-05      49.7527 
         -10      22.4344  8.51149e-05  1.50533e-05      49.7515 
         -10      22.5797  8.48919e-05  1.49908e-05      49.7503 
         -10      22.7257  8.47725e-05  1.47919e-05      49.7491 
         -10      22.8721  8.47446e-05  1.45839e-05      49.7479 
         -10      23.0189  8.47916e-05  1.44465e-05      49.7466 
         -10      23.1663  8.48935e-05  1.44167e-05      49.7454 
         -10       23.314  8.50265e-05  1.44933e-05      49.7441 
         -10      23.4623  8.51649e-05   1.4642e-05      49.7428 
         -10       23.611  8.52811e-05  1.47983e-05      49.7415 
         -10      23.7602  8.53495e-05  1.48731e-05      49.7402 
         -10        23.91  8.53477e-05  1.47549e-05      49.7389 
         -10        24.06  8.52026e-05   1.4435e-05      49.7376 
         -10      24.2107  8.49395e-05  1.44487e-05      49.7363 
         -10      24.3617  8.48234e-05  1.45665e-05      49.7349 
         -10      24.5133  8.48131e-05  1.47395e-05      49.7335 
         -10      24.6653  8.48724e-05  1.49281e-05      49.7322 
         -10      24.8178  8.49694e-05  1.51027e-05      49.7308 
         -10      24.9708  8.50771e-05  1.52435e-05      49.7294 
         -10      25.1242  8.51735e-05  1.53404e-05       49.728 
         -10      25.2781  8.52413e-05  1.53927e-05      49.7265 
         -10      25.4324  8.52681e-05  1.54076e-05      49.7251 
         -10      25.5873  8.52462e-05  1.53991e-05      49.7237 
         -10      25.7426  8.51727e-05  1.53866e-05      49.7222 
         -10      25.8984  8.50488e-05   1.5392e-05      49.7207 
         -10      26.0546  8.48806e-05  1.54375e-05      49.7192 
         -10      26.2114  8.46772e-05  1.55424e-05      49.7177 
         -10      26.3686   8.4452e-05  1.57193e-05      49.7162 
         -10      26.5262  8.42216e-05  1.59699e-05      49.7147 
         -10      26.6844  8.40045e-05  1.62805e-05      49.7131 
         -10      26.8429  8.38222e-05  1.66157e-05      49.7116 
         -10       27.002  8.36998e-05  1.69097e-05        49.71 
         -10      27.1615  8.39287e-05  1.66761e-05      49.7085 
         -10      27.3216  8.40547e-05  1.65654e-05      49.7069 
         -10      27.4821  8.41033e-05  1.65273e-05      49.7053 
         -10       27.643  8.40942e-05  1.65236e-05      49.7036 
         -10      27.8044  8.40417e-05  1.65275e-05       49.702 
         -10      27.9663  8.39564e-05  1.65212e-05      49.7004 
         -10      28.1287  8.38458e-05  1.64952e-05      49.6987 
         -10      28.2914   8.3716e-05  1.64466e-05      49.6971 
         -10      28.4548  8.35714e-05  1.63779e-05      49.6954 
         -10      28.6185  8.34173e-05  1.62954e-05      49.6937 
         -10      28.7828  8.32589e-05  1.62082e-05       49.692 
         -10      28.9475  8.31034e-05  1.61269e-05      49.6902 
         -10      29.1126    8.296e-05  1.60626e-05      49.6885 
         -10      29.2784  8.28401e-05  1.60255e-05      49.6868 
         -10      29.4444  8.27585e-05  1.60243e-05       49.685 
         -10       29.611  8.27327e-05   1.6065e-05      49.6832 
         -10       29.778  8.27841e-05  1.61501e-05      49.6814 
         -10      29.9456  8.29371e-05  1.62782e-05      49.6796 
         -10      30.1137  8.32196e-05  1.64429e-05      49.6778 
         -10      30.2821   8.3662e-05  1.66324e-05       49.676 
         -10      30.4511   8.3188e-05  1.68009e-05      49.6742 
         -10      30.6204  8.28359e-05   1.6932e-05      49.6723 
         -10      30.7903  8.25947e-05  1.70347e-05      49.6704 
         -10      30.9606  8.24357e-05  1.71185e-05      49.6686 
         -10      31.1315  8.23355e-05  1.71922e-05      49.6667 
         -10      31.3028  8.22773e-05  1.72631e-05      49.6648 
         -10      31.4745  8.22494e-05  1.73361e-05      49.6628 
         -10      31.6468  8.22442e-05  1.74131e-05      49.6609 
         -10      31.8194  8.22576e-05  1.74918e-05       49.659 
         -10      31.9926  8.22862e-05  1.75661e-05       49.657 
         -10      32.1662  8.23259e-05  1.76249e-05       49.655 
         -10      32.3404  8.23684e-05  1.76523e-05       49.653 
         -10      32.5149  8.23987e-05  1.76276e-05       49.651 
         -10        32.69  8.23907e-05  1.75252e-05       49.649 
         -10      32.8655  8.23033e-05  1.73148e-05       49.647 
         -10      33.0414  8.20757e-05  1.69627e-05       49.645 
         -10       33.218  8.17358e-05  1.73826e-05      49.6429 
         -10      33.3948  8.14798e-05  1.78508e-05      49.6408 
         -10      33.5723  8.13002e-05  1.80052e-05      49.6387 
         -10        33.75   8.1186e-05  1.79619e-05      49.6367 
         -10      33.9284  8.11263e-05   1.7815e-05      49.6345 
         -10      34.1073  8.11106e-05  1.76374e-05      49.6324 
         -10      34.2865   8.1129e-05  1.74821e-05      49.6303 
         -10      34.4663  8.11719e-05  1.73837e-05      49.6281 
         -10      34.6465    8.123e-05  1.73599e-05       49.626 
         -10      34.8272  8.12947e-05  1.74132e-05      49.6238 
         -10      35.0083  8.13574e-05  1.75328e-05      49.6216 
         -10        35.19  8.14103e-05  1.76965e-05      49.6194 
         -10      35.3721   8.1446e-05  1.78728e-05      49.6172 
         -10      35.5546  8.14578e-05  1.80227e-05       49.615 
         -10      35.7377  8.14395e-05  1.81029e-05      49.6127 
         -10      35.9211  8.13859e-05  1.80677e-05      49.6105 
         -10      36.1052  8.12926e-05  1.78718e-05      49.6082 
         -10      36.2895  8.11565e-05  1.74733e-05      49.6059 
         -10      36.4745  8.09754e-05  1.68358e-05      49.6036 
         -10      36.6598  8.07492e-05   1.5934e-05      49.6013 
         -10      36.8457  8.06391e-05  1.52854e-05       49.599 
         -10      37.0321   8.0888e-05  1.59806e-05      49.5966 
         -10      37.2188  8.10311e-05  1.66146e-05      49.5943 
         -10      37.4062  8.10775e-05  1.71785e-05      49.5919 
         -10      37.5938  8.10367e-05  1.76642e-05      49.5895 
         -10      37.7821  8.09189e-05  1.80684e-05      49.5871 
         -10      37.9707  8.07352e-05  1.83892e-05      49.5847 
         -10      38.1599  8.04972e-05  1.86282e-05      49.5823 
         -10      38.3496  8.02183e-05  1.87887e-05      49.5799 
         -10      38.5396  7.99134e-05   1.8876e-05      49.5775 
         -10      38.7302  7.95983e-05  1.88972e-05       49.575 
         -10      38.9211   7.9292e-05  1.88602e-05      49.5725 
         -10      39.1127  7.90148e-05  1.87731e-05        49.57 
         -10      39.3046  7.87909e-05  1.86442e-05      49.5675 
         -10      39.4971  7.86471e-05  1.84803e-05       49.565 
         -10      39.6899  7.86147e-05  1.82869e-05      49.5625 
         -10      39.8833  7.87292e-05  1.80662e-05        49.56 
         -10      40.0772  7.89932e-05  1.78914e-05      49.5574 
         -10      40.2714  7.90446e-05  1.82098e-05      49.5549 
         -10      40.4663  7.90773e-05  1.84034e-05      49.5523 
         -10      40.6615  7.90835e-05  1.85035e-05      49.5497 
         -10      40.8573  7.90595e-05  1.85363e-05      49.5471 
         -10      41.0534  7.90047e-05  1.85227e-05      49.5445 
         -10      41.2501  7.89206e-05  1.84794e-05      49.5418 
         -10      41.4473  7.88111e-05  1.84191e-05      49.5392 
         -10      41.6448  7.86812e-05  1.83512e-05      49.5365 
         -10      41.8429  7.85367e-05   1.8282e-05      49.5339 
         -10      42.0414  7.83842e-05  1.82156e-05      49.5312 
         -10      42.2405  7.82298e-05  1.81541e-05      49.5285 
         -10      42.4399  7.80797e-05  1.80979e-05      49.5258 
         -10      42.6399  7.79391e-05  1.80466e-05      49.5231 
         -10      42.8404  7.78124e-05  1.79987e-05      49.5203 
         -10      43.0412  7.77028e-05  1.79525e-05      49.5176 
         -10      43.2426  7.76121e-05  1.79062e-05      49.5148 
         -10      43.4444  7.75407e-05  1.78581e-05      49.5121 
         -10      43.6467  7.74875e-05   1.7807e-05      49.5093 
         -10      43.8494  7.74498e-05  1.77522e-05      49.5065 
         -10      44.0527  7.74237e-05  1.76939e-05      49.5037 
         -10      44.2563  7.74039e-05  1.76331e-05      49.5009 
         -10      44.4606  7.73842e-05  1.75718e-05       49.498 
         -10      44.6653  7.73575e-05  1.75131e-05      49.4952 
         -10      44.8704  7.73168e-05   1.7461e-05      49.4923 
         -10       45.076  7.72548e-05  1.74203e-05      49.4895 
         -10       45.282  7.71654e-05  1.73966e-05      49.4866 
         -10      45.4886  7.70433e-05  1.73963e-05      49.4837 
         -10      45.6955   7.6886e-05  1.74258e-05      49.4808 
         -10       45.903  7.66935e-05  1.74918e-05      49.4779 
         -10      46.1111    7.647e-05  1.76004e-05       49.475 
         -10      46.3194  7.62249e-05  1.77569e-05       49.472 
         -10      46.5283  7.59732e-05  1.79656e-05      49.4691 
         -10      46.7376  7.57382e-05  1.82285e-05      49.4661 
         -10      46.9475  7.55512e-05  1.85454e-05      49.4631 
         -10      47.1577  7.54549e-05  1.89121e-05      49.4601 
         -10      47.3685  7.55043e-05   1.9235e-05      49.4571 
         -10      47.5798  7.56253e-05  1.88145e-05      49.4541 
         -10      47.7914  7.57067e-05  1.85227e-05      49.4511 
         -10      48.0037  7.57491e-05  1.83543e-05      49.4481 