Variables = x, y, u, v, p

Zone, I=800, F=POINT
         500            0           -0           -0     -18.6108 
         500     0.000234   2.0055e-06  6.22025e-12     -18.6108 
         500     0.000939  7.49603e-06  9.99129e-11     -18.6108 
         500     0.002113  1.49348e-05  5.01721e-10     -18.6108 
         500     0.003759  2.22172e-05  1.56844e-09     -18.6108 
         500     0.005872  2.71252e-05  3.76657e-09     -18.6108 
         500     0.008457  2.79383e-05  7.66004e-09     -18.6108 
         500      0.01151  2.38047e-05  1.38592e-08     -18.6108 
         500     0.015036   1.4933e-05  2.30123e-08     -18.6108 
         500     0.019031  2.48398e-06  3.57279e-08     -18.6108 
         500     0.023493 -1.18737e-05   5.2552e-08     -18.6108 
         500     0.028429 -2.66129e-05  7.39624e-08     -18.6108 
         500     0.033831 -4.08735e-05  1.00228e-07     -18.6108 
         500     0.039706 -5.48754e-05  1.31501e-07     -18.6108 
         500     0.046047 -6.96393e-05  1.67636e-07     -18.6108 
         500     0.052863 -8.62424e-05  2.08328e-07     -18.6108 
         500      0.06015 -0.000104565  2.52919e-07     -18.6108 
         500       0.0679 -0.000122646  3.00431e-07     -18.6108 
         500     0.076126 -0.000138515  3.49717e-07     -18.6108 
         500     0.084816 -0.000156412  3.99181e-07     -18.6108 
         500     0.093982 -0.000174087  4.47057e-07     -18.6108 
         500     0.103611 -0.000191566  4.91186e-07     -18.6108 
         500     0.113718 -0.000208804  5.29309e-07     -18.6108 
         500     0.124286 -0.000225687  5.58817e-07     -18.6108 
         500     0.135333 -0.000242146  5.77036e-07     -18.6108 
         500      0.14685  -0.00025806  5.81083e-07     -18.6108 
         500     0.158827 -0.000273309  5.68048e-07     -18.6108 
         500     0.171284 -0.000287821  5.34963e-07     -18.6108 
         500     0.184201 -0.000301494  4.78975e-07     -18.6108 
         500     0.197599 -0.000314296  3.97172e-07     -18.6108 
         500     0.211455 -0.000326178   2.8701e-07     -18.6108 
         500     0.225792  -0.00033715  1.45787e-07     -18.6108 
         500       0.2406  -0.00034717 -2.87813e-08     -18.6108 
         500     0.255865  -0.00035618 -2.38593e-07     -18.6108 
         500     0.271613 -0.000364291 -4.85567e-07     -18.6108 
         500     0.287818 -0.000371472 -7.70837e-07     -18.6108 
         500     0.304506 -0.000377777 -1.09608e-06     -18.6108 
         500      0.32165 -0.000383243 -1.46165e-06     -18.6108 
         500     0.339278 -0.000387937 -1.86868e-06     -18.6108 
         500     0.357377 -0.000391916 -2.31709e-06     -18.6108 
         500      0.37593 -0.000395245 -2.80632e-06     -18.6108 
         500     0.394968 -0.000397998 -3.33674e-06     -18.6108 
         500     0.414461 -0.000400244 -3.90686e-06     -18.6108 
         500      0.43444 -0.000402058 -4.51667e-06     -18.6108 
         500     0.454872 -0.000403506 -5.16407e-06     -18.6108 
         500     0.475791  -0.00040466 -5.84889e-06     -18.6108 
         500     0.497163 -0.000405579  -6.5686e-06     -18.6108 
         500     0.519021 -0.000406324 -7.32274e-06     -18.6108 
         500      0.54135 -0.000406946   -8.109e-06     -18.6108 
         500     0.564131 -0.000407487 -8.92453e-06     -18.6108 
         500       0.5874 -0.000407984 -9.76792e-06     -18.6108 
         500     0.611121 -0.000408463 -1.06348e-05     -18.6108 
         500      0.63533  -0.00040894 -1.15277e-05     -18.6108 
         500      0.65999 -0.000409431 -1.24396e-05     -18.6108 
         500     0.685139 -0.000409934 -1.33693e-05     -18.6108 
         500     0.710759 -0.000410435 -1.43133e-05     -18.6108 
         500     0.736828 -0.000410912 -1.52677e-05     -18.6108 
         500     0.763387 -0.000411335 -1.62306e-05     -18.6108 
         500     0.790396 -0.000411663 -1.71971e-05     -18.6108 
         500     0.817896 -0.000411848 -1.81647e-05     -18.6108 
         500     0.845843 -0.000411837 -1.91282e-05     -18.6108 
         500     0.874283 -0.000411569 -2.00849e-05     -18.6108 
         500      0.90317  -0.00041098 -2.10293e-05     -18.6108 
         500     0.932551 -0.000410005 -2.19589e-05     -18.6108 
         500     0.962401 -0.000408578 -2.28688e-05     -18.6108 
         500     0.992697 -0.000406638 -2.37545e-05     -18.6108 
         500      1.02349 -0.000404123 -2.46137e-05     -18.6108 
         500      1.05472 -0.000400988 -2.54417e-05     -18.6108 
         500      1.08645 -0.000397183 -2.62367e-05     -18.6108 
         500      1.11863 -0.000392686 -2.69948e-05     -18.6108 
         500       1.1513 -0.000387471 -2.77151e-05     -18.6108 
         500      1.18444 -0.000381541 -2.83953e-05     -18.6108 
         500      1.21802 -0.000374914 -2.90339e-05     -18.6108 
         500      1.25211  -0.00036761 -2.96316e-05     -18.6108 
         500      1.28663 -0.000359687 -3.01877e-05     -18.6108 
         500      1.32165 -0.000351192  -3.0704e-05     -18.6108 
         500      1.35712 -0.000342208 -3.11814e-05     -18.6108 
         500      1.39308 -0.000332797 -3.16228e-05     -18.6108 
         500      1.42951 -0.000323043 -3.20308e-05     -18.6108 
         500      1.46638 -0.000313017 -3.24083e-05     -18.6108 
         500      1.50375 -0.000302748 -3.27594e-05     -18.6108 
         500      1.54156 -0.000292099 -3.30515e-05     -18.6108 
         500      1.57987 -0.000281526 -3.33289e-05     -18.6108 
         500      1.61863 -0.000271047 -3.35925e-05     -18.6108 
         500      1.65788 -0.000260623 -3.38411e-05     -18.6108 
         500      1.69757  -0.00025025 -3.40729e-05     -18.6108 
         500      1.73776 -0.000239892 -3.42871e-05     -18.6108 
         500      1.77842 -0.000229539 -3.44823e-05     -18.6108 
         500      1.81952 -0.000219185 -3.46575e-05     -18.6108 
         500      1.86113 -0.000208796 -3.48124e-05     -18.6108 
         500      1.90316 -0.000198379  -3.4946e-05     -18.6108 
         500      1.94571 -0.000187906 -3.50584e-05     -18.6108 
         500      1.98869 -0.000177386  -3.5149e-05     -18.6108 
         500      2.03217 -0.000166796 -3.52179e-05     -18.6108 
         500      2.07612 -0.000156141 -3.52649e-05     -18.6108 
         500      2.12051 -0.000145429 -3.52903e-05     -18.6108 
         500       2.1654 -0.000134644 -3.52942e-05     -18.6108 
         500      2.21073 -0.000123806 -3.52769e-05     -18.6108 
         500      2.25656 -0.000112905 -3.52387e-05     -18.6108 
         500      2.30283 -0.000101965 -3.51799e-05     -18.6108 
         500       2.3496 -9.09822e-05 -3.51008e-05     -18.6108 
         500      2.39685 -7.99762e-05 -3.50017e-05     -18.6108 
         500      2.44452 -6.89719e-05  -3.4883e-05     -18.6108 
         500      2.49271  -5.7969e-05 -3.47448e-05     -18.6108 
         500      2.54132  -4.7004e-05 -3.45874e-05     -18.6108 
         500      2.59044 -3.60804e-05 -3.44106e-05     -18.6108 
         500         2.64  -2.5238e-05 -3.42147e-05     -18.6108 
         500      2.69006 -1.44836e-05 -3.39993e-05     -18.6108 
         500      2.74056   -3.859e-06 -3.37645e-05     -18.6108 
         500      2.79156  6.62695e-06 -3.35097e-05     -18.6108 
         500      2.84304  1.69395e-05 -3.32347e-05     -18.6108 
         500      2.89494  2.70443e-05 -3.29394e-05     -18.6108 
         500      2.94735  3.69314e-05  -3.2623e-05     -18.6108 
         500       3.0002   4.6559e-05 -3.22855e-05     -18.6108 
         500      3.05355  5.59174e-05 -3.19262e-05     -18.6108 
         500      3.10733  6.49686e-05 -3.15457e-05     -18.6108 
         500      3.16163   7.3705e-05 -3.11436e-05     -18.6108 
         500      3.21639  8.20996e-05 -3.07208e-05     -18.6108 
         500      3.27158  9.01292e-05 -3.02789e-05     -18.6108 
         500      3.32729  9.77927e-05  -2.9819e-05     -18.6108 
         500      3.38342  0.000105068 -2.93447e-05     -18.6108 
         500      3.44007   0.00011196 -2.88591e-05     -18.6108 
         500      3.49714  0.000118456 -2.83681e-05     -18.6108 
         500      3.55472  0.000124571 -2.78779e-05     -18.6108 
         500      3.61273  0.000130304 -2.73981e-05     -18.6108 
         500      3.67125  0.000135678  -2.6939e-05     -18.6108 
         500      3.73025  0.000140713  -2.6515e-05     -18.6108 
         500      3.78967  0.000145292 -2.59782e-05     -18.6108 
         500      3.84961  0.000149459 -2.53818e-05     -18.6108 
         500      3.90996  0.000153276 -2.47975e-05     -18.6108 
         500      3.97084  0.000156759 -2.42196e-05     -18.6108 
         500      4.03214  0.000159912 -2.36451e-05     -18.6108 
         500      4.09395  0.000162754 -2.30699e-05     -18.6108 
         500      4.15624  0.000165295 -2.24918e-05     -18.6108 
         500      4.21895  0.000167546 -2.19089e-05     -18.6108 
         500      4.28217  0.000169528 -2.13185e-05     -18.6108 
         500      4.34582  0.000171252 -2.07198e-05     -18.6108 
         500      4.40998  0.000172672 -2.01689e-05     -18.6108 
         500      4.47457  0.000173854 -1.96261e-05     -18.6108 
         500      4.53968  0.000174829 -1.90768e-05     -18.6108 
         500      4.60525  0.000175605  -1.8523e-05     -18.6108 
         500      4.67125  0.000176194 -1.79669e-05     -18.6108 
         500      4.73777  0.000176606 -1.74092e-05     -18.6108 
         500       4.8047   0.00017685 -1.68525e-05     -18.6108 
         500      4.87216  0.000176935 -1.62973e-05     -18.6108 
         500      4.94003  0.000176871  -1.5746e-05     -18.6108 
         500      5.00843  0.000176667  -1.5199e-05     -18.6108 
         500      5.07724   0.00017633 -1.46581e-05     -18.6108 
         500      5.14658  0.000175868 -1.41235e-05     -18.6108 
         500      5.21639  0.000175292 -1.35961e-05     -18.6108 
         500      5.28661  0.000174608 -1.30768e-05     -18.6108 
         500      5.35736  0.000173825  -1.2565e-05     -18.6108 
         500      5.42852  0.000172952 -1.20612e-05     -18.6107 
         500      5.50021  0.000171996 -1.15643e-05     -18.6107 
         500      5.57231  0.000170967 -1.10745e-05     -18.6107 
         500      5.64493  0.000169872 -1.05903e-05     -18.6107 
         500      5.71803   0.00016872  -1.0111e-05     -18.6107 
         500      5.79154  0.000167521 -9.63587e-06     -18.6107 
         500      5.86558  0.000166283 -9.16311e-06     -18.6107 
         500      5.94003  0.000165014 -8.69238e-06     -18.6107 
         500      6.01501  0.000163723 -8.22198e-06     -18.6107 
         500       6.0904  0.000162419 -7.75203e-06     -18.6107 
         500      6.16632  0.000161108 -7.28153e-06     -18.6107 
         500      6.24271    0.0001598 -6.81122e-06     -18.6107 
         500       6.3195  0.000158502 -6.34264e-06     -18.6107 
         500      6.39683  0.000157218 -5.87718e-06     -18.6107 
         500      6.47457  0.000155955 -5.41904e-06     -18.6107 
         500      6.55284  0.000154716 -4.97246e-06     -18.6107 
         500      6.63152  0.000153503 -4.54501e-06     -18.6107 
         500      6.71073  0.000152097 -4.10394e-06     -18.6107 
         500      6.79034  0.000150664 -3.66815e-06     -18.6107 
         500      6.87049  0.000149268 -3.24582e-06     -18.6107 
         500      6.95111  0.000147903 -2.83459e-06     -18.6107 
         500      7.03214  0.000146561 -2.43268e-06     -18.6107 
         500       7.1137  0.000145235 -2.03792e-06     -18.6107 
         500      7.19566  0.000143921 -1.64995e-06     -18.6107 
         500      7.27816  0.000142615 -1.26757e-06     -18.6107 
         500      7.36106  0.000141316 -8.91207e-07     -18.6107 
         500      7.44451  0.000140019 -5.20381e-07     -18.6107 
         500      7.52842  0.000138726 -1.55766e-07     -18.6107 
         500      7.61273  0.000137437  2.01787e-07     -18.6107 
         500      7.69758  0.000136152  5.52172e-07     -18.6107 
         500      7.78283  0.000134872  8.94078e-07     -18.6107 
         500      7.86862  0.000133598  1.22731e-06     -18.6107 
         500      7.95481  0.000132333  1.55062e-06     -18.6107 
         500      8.04155  0.000131077  1.86394e-06     -18.6107 
         500      8.12868  0.000129834  2.16629e-06     -18.6107 
         500      8.21635  0.000128605  2.45791e-06     -18.6107 
         500      8.30449  0.000127391  2.73848e-06     -18.6107 
         500      8.39303  0.000126194  3.00798e-06     -18.6107 
         500      8.48211  0.000125014  3.26729e-06     -18.6107 
         500      8.57159  0.000123853   3.5167e-06     -18.6107 
         500      8.66161  0.000122708  3.75758e-06     -18.6107 
         500      8.75203   0.00012158  3.99077e-06     -18.6107 
         500      8.84299  0.000120466  4.21806e-06     -18.6107 
         500      8.93443  0.000119362  4.44085e-06     -18.6107 
         500      9.02626  0.000118268  4.66067e-06     -18.6107 
         500      9.11863  0.000117169  4.87827e-06     -18.6107 
         500      9.21139  0.000116037  5.08802e-06     -18.6107 
         500      9.30471  0.000114912  5.29851e-06     -18.6107 
         500      9.39841    0.0001138  5.50606e-06     -18.6107 
         500      9.49267  0.000112702    5.707e-06     -18.6107 
         500      9.58739  0.000111628  5.89627e-06     -18.6107 
         500      9.68251  0.000110592  6.06772e-06     -18.6107 
         500      9.77817  0.000109609  6.21425e-06     -18.6107 
         500      9.87422  0.000108701  6.33931e-06     -18.6107 
         500      9.97083  0.000107786  6.55827e-06     -18.6107 
         500      10.0678  0.000106838  6.72118e-06     -18.6107 
         500      10.1654  0.000105869  6.84503e-06     -18.6107 
         500      10.2633   0.00010489  6.94291e-06     -18.6107 
         500      10.3618  0.000103909  7.02519e-06     -18.6107 
         500      10.4607  0.000102933  7.09932e-06     -18.6107 
         500      10.5601  0.000101969  7.17041e-06     -18.6107 
         500        10.66  0.000101021  7.24178e-06     -18.6107 
         500      10.7603  0.000100093  7.31488e-06     -18.6107 
         500      10.8611  9.91857e-05  7.39008e-06     -18.6107 
         500      10.9623  9.83015e-05  7.46659e-06     -18.6107 
         500      11.0641  9.74391e-05  7.54316e-06     -18.6107 
         500      11.1663  9.65984e-05  7.61802e-06     -18.6107 
         500       11.269  9.57783e-05  7.68929e-06     -18.6107 
         500      11.3721  9.49753e-05  7.75541e-06     -18.6107 
         500      11.4757  9.41881e-05  7.81494e-06     -18.6107 
         500      11.5798  9.34121e-05  7.86714e-06     -18.6107 
         500      11.6844  9.26455e-05  7.91176e-06     -18.6107 
         500      11.7894  9.18837e-05  7.94944e-06     -18.6107 
         500       11.895   9.1136e-05  7.96157e-06     -18.6107 
         500      12.0009  9.04034e-05  7.94813e-06     -18.6107 
         500      12.1073  8.96742e-05  7.92912e-06     -18.6107 
         500      12.2142  8.89491e-05  7.90988e-06     -18.6107 
         500      12.3216  8.82275e-05  7.89564e-06     -18.6107 
         500      12.4294  8.75121e-05  7.89099e-06     -18.6107 
         500      12.5378  8.68043e-05  7.89915e-06     -18.6107 
         500      12.6465  8.61081e-05  7.92111e-06     -18.6107 
         500      12.7558  8.54252e-05  7.95465e-06     -18.6107 
         500      12.8656  8.47584e-05  7.99307e-06     -18.6107 
         500      12.9757  8.41088e-05  8.02384e-06     -18.6107 
         500      13.0864  8.34739e-05   8.0271e-06     -18.6107 
         500      13.1975  8.28498e-05  7.97377e-06     -18.6107 
         500      13.3092  8.22439e-05  7.88327e-06     -18.6107 
         500      13.4212  8.17063e-05  7.91371e-06     -18.6107 
         500      13.5338  8.11854e-05  7.92249e-06     -18.6107 
         500      13.6468  8.06051e-05  7.93398e-06     -18.6107 
         500      13.7603  7.98774e-05  7.95972e-06     -18.6107 
         500      13.8743  7.92218e-05  7.96787e-06     -18.6107 
         500      13.9886  7.86222e-05  7.96269e-06     -18.6107 
         500      14.1036  7.80631e-05  7.94763e-06     -18.6107 
         500      14.2189  7.75339e-05  7.92554e-06     -18.6107 
         500      14.3348  7.70241e-05  7.89851e-06     -18.6107 
         500       14.451  7.65275e-05  7.86819e-06     -18.6107 
         500      14.5678  7.60379e-05  7.83564e-06     -18.6107 
         500      14.6851  7.55522e-05  7.80153e-06     -18.6107 
         500      14.8028  7.50685e-05  7.76619e-06     -18.6107 
         500       14.921  7.45852e-05  7.72956e-06     -18.6107 
         500      15.0396  7.41031e-05  7.69146e-06     -18.6107 
         500      15.1588  7.36223e-05   7.6514e-06     -18.6107 
         500      15.2783   7.3145e-05  7.60889e-06     -18.6107 
         500      15.3984  7.26722e-05  7.56323e-06     -18.6107 
         500       15.519  7.22064e-05  7.51383e-06     -18.6107 
         500        15.64    7.175e-05  7.46011e-06     -18.6107 
         500      15.7615  7.13041e-05  7.40144e-06     -18.6107 
         500      15.8834  7.08711e-05  7.33748e-06     -18.6107 
         500      16.0058    7.046e-05  7.26785e-06     -18.6107 
         500      16.1286  7.00845e-05  7.19732e-06     -18.6107 
         500       16.252  6.97166e-05  7.12808e-06     -18.6107 
         500      16.3759  6.93573e-05   7.0598e-06     -18.6107 
         500      16.5002  6.90071e-05  6.99236e-06     -18.6107 
         500       16.625  6.86655e-05  6.92567e-06     -18.6107 
         500      16.7501  6.83327e-05  6.86007e-06     -18.6107 
         500      16.8759  6.80076e-05  6.79591e-06     -18.6107 
         500       17.002  6.76897e-05  6.73395e-06     -18.6107 
         500      17.1287  6.73774e-05  6.67486e-06     -18.6107 
         500      17.2557  6.70695e-05  6.61961e-06     -18.6107 
         500      17.3834  6.67637e-05  6.56898e-06     -18.6107 
         500      17.5115  6.64585e-05  6.52372e-06     -18.6107 
         500      17.6399  6.61519e-05  6.48435e-06     -18.6107 
         500       17.769  6.58416e-05  6.45081e-06     -18.6107 
         500      17.8984  6.55262e-05  6.42256e-06     -18.6107 
         500      18.0284  6.52037e-05  6.39808e-06     -18.6107 
         500      18.1587  6.48737e-05  6.37481e-06     -18.6107 
         500      18.2896  6.45354e-05  6.34869e-06     -18.6107 
         500       18.421  6.41897e-05  6.31392e-06     -18.6107 
         500      18.5528  6.38389e-05  6.26261e-06     -18.6107 
         500      18.6851  6.34858e-05  6.18418e-06     -18.6107 
         500      18.8178  6.31366e-05  6.06522e-06     -18.6107 
         500      18.9511  6.27981e-05  5.88848e-06     -18.6107 
         500      19.0847  6.27267e-05  5.81651e-06     -18.6107 
         500      19.2189  6.26685e-05  5.76781e-06     -18.6107 
         500      19.3535  6.25283e-05  5.71925e-06     -18.6107 
         500      19.4886    6.228e-05  5.68896e-06     -18.6107 
         500      19.6242  6.20227e-05  5.66176e-06     -18.6107 
         500      19.7602  6.17917e-05  5.60218e-06     -18.6107 
         500      19.8968  6.15786e-05  5.52025e-06     -18.6107 
         500      20.0337  6.13773e-05  5.42456e-06     -18.6107 
         500      20.1712  6.11824e-05  5.32191e-06     -18.6107 
         500      20.3091  6.09907e-05    5.218e-06     -18.6107 
         500      20.4475  6.07992e-05  5.11695e-06     -18.6107 
         500      20.5864  6.06066e-05  5.02199e-06     -18.6107 
         500      20.7257  6.04123e-05  4.93529e-06     -18.6107 
         500      20.8655  6.02161e-05  4.85792e-06     -18.6107 
         500      21.0058   6.0019e-05  4.79042e-06     -18.6107 
         500      21.1465  5.98216e-05  4.73247e-06     -18.6107 
         500      21.2877  5.96258e-05  4.68337e-06     -18.6107 
         500      21.4294  5.94327e-05  4.64183e-06     -18.6107 
         500      21.5716  5.92443e-05  4.60634e-06     -18.6107 
         500      21.7142  5.90622e-05  4.57518e-06     -18.6107 
         500      21.8573  5.88879e-05  4.54642e-06     -18.6107 
         500      22.0008  5.87229e-05   4.5182e-06     -18.6107 
         500      22.1449  5.85681e-05  4.48866e-06     -18.6107 
         500      22.2893  5.84244e-05  4.45615e-06     -18.6107 
         500      22.4344  5.82919e-05  4.41918e-06     -18.6107 
         500      22.5797  5.81708e-05  4.37664e-06     -18.6107 
         500      22.7257  5.80603e-05  4.32767e-06     -18.6107 
         500      22.8721  5.79595e-05  4.27188e-06     -18.6106 
         500      23.0189  5.78671e-05  4.20939e-06     -18.6106 
         500      23.1663   5.7781e-05  4.14062e-06     -18.6106 
         500       23.314   5.7699e-05   4.0667e-06     -18.6106 
         500      23.4623  5.76184e-05  3.98903e-06     -18.6106 
         500       23.611  5.75365e-05  3.90974e-06     -18.6106 
         500      23.7602  5.74503e-05  3.83121e-06     -18.6106 
         500        23.91  5.73568e-05  3.75643e-06     -18.6106 
         500        24.06  5.72533e-05  3.68877e-06     -18.6106 
         500      24.2107  5.71373e-05  3.63175e-06     -18.6106 
         500      24.3617  5.70069e-05  3.58933e-06     -18.6106 
         500      24.5133   5.6861e-05  3.56544e-06     -18.6106 
         500      24.6653  5.66997e-05  3.56411e-06     -18.6106 
         500      24.8178  5.65241e-05  3.58919e-06     -18.6106 
         500      24.9708  5.63376e-05  3.64426e-06     -18.6106 
         500      25.1242  5.61454e-05  3.73226e-06     -18.6106 
         500      25.2781  5.59671e-05  3.80267e-06     -18.6106 
         500      25.4324  5.58852e-05  3.65668e-06     -18.6106 
         500      25.5873  5.58519e-05  3.53272e-06     -18.6106 
         500      25.7426  5.58494e-05  3.41503e-06     -18.6106 
         500      25.8984  5.58573e-05  3.28669e-06     -18.6106 
         500      26.0546  5.58522e-05  3.13101e-06     -18.6106 
         500      26.2114  5.58068e-05  2.93125e-06     -18.6106 
         500      26.3686  5.57582e-05  2.86584e-06     -18.6106 
         500      26.5262  5.57421e-05  2.98249e-06     -18.6106 
         500      26.6844  5.56994e-05  3.06573e-06     -18.6106 
         500      26.8429  5.56366e-05  3.12237e-06     -18.6106 
         500       27.002  5.55578e-05  3.16034e-06     -18.6106 
         500      27.1615  5.54658e-05  3.18825e-06     -18.6106 
         500      27.3216   5.5361e-05  3.21559e-06     -18.6106 
         500      27.4821  5.52425e-05  3.25254e-06     -18.6106 
         500       27.643   5.5108e-05  3.30986e-06     -18.6106 
         500      27.8044  5.50205e-05  3.29082e-06     -18.6106 
         500      27.9663  5.50215e-05  3.14983e-06     -18.6106 
         500      28.1287  5.50174e-05   3.0399e-06     -18.6106 
         500      28.2914  5.50081e-05  2.95664e-06     -18.6106 
         500      28.4548  5.49937e-05  2.89575e-06     -18.6106 
         500      28.6185  5.49744e-05  2.85343e-06     -18.6106 
         500      28.7828  5.49506e-05  2.82608e-06     -18.6106 
         500      28.9475  5.49228e-05  2.81052e-06     -18.6106 
         500      29.1126  5.48915e-05  2.80382e-06     -18.6106 
         500      29.2784  5.48573e-05  2.80335e-06     -18.6106 
         500      29.4444  5.48209e-05  2.80679e-06     -18.6106 
         500       29.611  5.47829e-05  2.81209e-06     -18.6106 
         500       29.778  5.47439e-05  2.81747e-06     -18.6106 
         500      29.9456  5.47046e-05   2.8214e-06     -18.6106 
         500      30.1137  5.46655e-05  2.82261e-06     -18.6106 
         500      30.2821  5.46272e-05  2.82006e-06     -18.6106 
         500      30.4511  5.45901e-05  2.81293e-06     -18.6106 
         500      30.6204  5.45547e-05  2.80063e-06     -18.6106 
         500      30.7903  5.45211e-05  2.78274e-06     -18.6106 
         500      30.9606  5.44897e-05  2.75907e-06     -18.6106 
         500      31.1315  5.44605e-05  2.72954e-06     -18.6106 
         500      31.3028  5.44335e-05  2.69427e-06     -18.6106 
         500      31.4745  5.44086e-05  2.65356e-06     -18.6106 
         500      31.6468  5.43857e-05  2.60774e-06     -18.6106 
         500      31.8194  5.43644e-05  2.55739e-06     -18.6106 
         500      31.9926  5.43444e-05  2.50304e-06     -18.6106 
         500      32.1662  5.43253e-05  2.44545e-06     -18.6106 
         500      32.3404  5.43066e-05  2.38532e-06     -18.6106 
         500      32.5149  5.42878e-05  2.32355e-06     -18.6106 
         500        32.69  5.42685e-05  2.26089e-06     -18.6106 
         500      32.8655  5.42481e-05  2.19828e-06     -18.6106 
         500      33.0414  5.42262e-05  2.13664e-06     -18.6106 
         500       33.218  5.42025e-05  2.07674e-06     -18.6106 
         500      33.3948  5.41769e-05  2.01953e-06     -18.6106 
         500      33.5723  5.41493e-05  1.96569e-06     -18.6106 
         500        33.75  5.41199e-05  1.91604e-06     -18.6106 
         500      33.9284  5.40893e-05  1.87115e-06     -18.6106 
         500      34.1073  5.40582e-05  1.83159e-06     -18.6106 
         500      34.2865  5.40281e-05   1.7978e-06     -18.6106 
         500      34.4663  5.40007e-05  1.77003e-06     -18.6106 
         500      34.6465  5.39783e-05  1.74842e-06     -18.6106 
         500      34.8272  5.39639e-05   1.7329e-06     -18.6106 
         500      35.0083  5.39613e-05  1.72324e-06     -18.6106 
         500        35.19  5.39751e-05  1.71895e-06     -18.6106 
         500      35.3721  5.40108e-05  1.71936e-06     -18.6106 
         500      35.5546  5.40751e-05   1.7235e-06     -18.6106 
         500      35.7377  5.41758e-05  1.73015e-06     -18.6106 
         500      35.9211  5.42492e-05  1.73039e-06     -18.6106 
         500      36.1052  5.41292e-05   1.7221e-06     -18.6106 
         500      36.2895  5.40193e-05  1.73035e-06     -18.6106 
         500      36.4745  5.39216e-05  1.74917e-06     -18.6106 
         500      36.6598  5.38378e-05  1.77356e-06     -18.6106 
         500      36.8457  5.37686e-05  1.79955e-06     -18.6106 
         500      37.0321  5.37144e-05  1.82396e-06     -18.6106 
         500      37.2188  5.36748e-05  1.84446e-06     -18.6106 
         500      37.4062   5.3649e-05  1.85947e-06     -18.6106 
         500      37.5938  5.36359e-05  1.86802e-06     -18.6106 
         500      37.7821  5.36341e-05  1.86978e-06     -18.6106 
         500      37.9707  5.36419e-05   1.8649e-06     -18.6106 
         500      38.1599  5.36574e-05  1.85397e-06     -18.6106 
         500      38.3496  5.36787e-05  1.83797e-06     -18.6106 
         500      38.5396  5.37038e-05  1.81818e-06     -18.6106 
         500      38.7302  5.37308e-05  1.79604e-06     -18.6106 
         500      38.9211  5.37575e-05  1.77325e-06     -18.6106 
         500      39.1127  5.37822e-05  1.75146e-06     -18.6106 
         500      39.3046  5.38029e-05  1.73243e-06     -18.6106 
         500      39.4971  5.38179e-05   1.7178e-06     -18.6106 
         500      39.6899  5.38256e-05   1.7091e-06     -18.6106 
         500      39.8833  5.38244e-05  1.70764e-06     -18.6106 
         500      40.0772  5.38127e-05  1.71448e-06     -18.6106 
         500      40.2714  5.37892e-05  1.73031e-06     -18.6106 
         500      40.4663  5.37525e-05  1.75548e-06     -18.6106 
         500      40.6615  5.37012e-05  1.78979e-06     -18.6106 
         500      40.8573  5.36336e-05  1.83262e-06     -18.6106 
         500      41.0534  5.35481e-05  1.88263e-06     -18.6106 
         500      41.2501  5.34429e-05  1.93798e-06     -18.6106 
         500      41.4473  5.34436e-05  1.93073e-06     -18.6106 
         500      41.6448   5.3496e-05  1.89044e-06     -18.6106 
         500      41.8429  5.35438e-05  1.84819e-06     -18.6106 
         500      42.0414  5.35882e-05  1.80498e-06     -18.6106 
         500      42.2405  5.36301e-05  1.76166e-06     -18.6106 
         500      42.4399  5.36697e-05  1.71923e-06     -18.6106 
         500      42.6399  5.37068e-05  1.67851e-06     -18.6106 
         500      42.8404   5.3741e-05  1.64037e-06     -18.6106 
         500      43.0412  5.37714e-05  1.60557e-06     -18.6106 
         500      43.2426   5.3797e-05  1.57471e-06     -18.6106 
         500      43.4444  5.38168e-05   1.5483e-06     -18.6106 
         500      43.6467  5.38297e-05  1.52659e-06     -18.6106 
         500      43.8494  5.38349e-05  1.50965e-06     -18.6106 
         500      44.0527  5.38319e-05  1.49722e-06     -18.6106 
         500      44.2563  5.38208e-05  1.48871e-06     -18.6106 
         500      44.4606  5.38022e-05  1.48311e-06     -18.6106 
         500      44.6653  5.37777e-05  1.47897e-06     -18.6106 
         500      44.8704  5.37502e-05  1.47425e-06     -18.6106 
         500       45.076  5.37237e-05  1.46631e-06     -18.6106 
         500       45.282  5.37039e-05  1.45182e-06     -18.6106 
         500      45.4886  5.36984e-05  1.42661e-06     -18.6106 
         500      45.6955  5.37171e-05   1.3857e-06     -18.6106 
         500       45.903  5.37721e-05  1.32298e-06     -18.6106 
         500      46.1111  5.38787e-05  1.23134e-06     -18.6106 
         500      46.3194  5.40479e-05  1.11085e-06     -18.6106 
         500      46.5283   5.4039e-05  1.18149e-06     -18.6106 
         500      46.7376   5.3994e-05  1.22989e-06     -18.6106 
         500      46.9475  5.39233e-05   1.2606e-06     -18.6106 
         500      47.1577  5.38364e-05  1.27739e-06     -18.6106 
         500      47.3685  5.37415e-05  1.28352e-06     -18.6106 
         500      47.5798  5.36458e-05  1.28166e-06     -18.6106 
         500      47.7914  5.35554e-05  1.27403e-06     -18.6106 
         500      48.0037  5.34754e-05  1.26235e-06     -18.6106 