Variables = x, y, u, v, p

Zone, I=416, F=POINT
         -50            0            0            0      25.9041 
         -50     0.013333  0.000266573  4.29192e-08      25.9041 
         -50     0.053333  0.000233377  3.81019e-08      25.9041 
         -50         0.12  0.000219545 -3.74709e-07      25.9041 
         -50     0.213332  0.000220495 -1.65713e-06      25.9041 
         -50     0.333332  0.000227111 -4.30383e-06      25.9041 
         -50         0.48  0.000230463 -6.37752e-06      25.9041 
         -50     0.653331  0.000227619 -1.02622e-05       25.904 
         -50     0.853332  0.000221093 -1.46149e-05      25.9038 
         -50         1.08   0.00021768 -1.81982e-05      25.9037 
         -50      1.33333  0.000219911 -2.09588e-05      25.9034 
         -50      1.61333  0.000223687 -2.22798e-05      25.9031 
         -50         1.92  0.000225549 -2.19041e-05      25.9026 
         -50      2.25333  0.000219046 -2.25549e-05       25.902 
         -50      2.61333  0.000205553 -2.57358e-05      25.9013 
         -50            3   0.00019801 -2.70983e-05      25.9004 
         -25            0   2.2438e-19  6.58787e-24      24.8623 
         -25     0.013333  0.000194936   1.7831e-08      24.8623 
         -25     0.053333  0.000167924  5.19822e-08      24.8623 
         -25         0.12  0.000151506 -1.37637e-08      24.8623 
         -25     0.213332  0.000144501 -3.82719e-07      24.8622 
         -25     0.333332   0.00014349 -1.20936e-06      24.8622 
         -25         0.48  0.000143481 -2.65276e-06      24.8622 
         -25     0.653331  0.000142441 -4.35433e-06      24.8622 
         -25     0.853332  0.000143174 -6.14621e-06      24.8621 
         -25         1.08   0.00014941 -7.88368e-06      24.8621 
         -25      1.33333  0.000159781 -9.14248e-06       24.862 
         -25      1.61333  0.000169491 -9.84814e-06      24.8619 
         -25         1.92   0.00017331 -1.05808e-05      24.8617 
         -25      2.25333  0.000166899 -1.03402e-05      24.8615 
         -25      2.61333  0.000161866 -7.91437e-06      24.8612 
         -25            3  0.000167254 -4.25449e-06      24.8609 
           0            0   3.0804e-15  -1.9348e-15      23.9904 
           0     0.013333  0.000668083 -0.000398067       23.992 
           0     0.053333  0.000376329   -0.0002114      23.9939 
           0         0.12  0.000273837 -0.000140156       23.996 
           0     0.213332  0.000233013 -0.000109821      23.9984 
           0     0.333332  0.000213672 -9.15246e-05      24.0009 
           0         0.48   0.00019834 -7.82615e-05      24.0034 
           0     0.653331  0.000185916  -6.8476e-05      24.0059 
           0     0.853332  0.000176776 -6.09271e-05      24.0085 
           0         1.08  0.000170862 -5.48689e-05       24.011 
           0      1.33333  0.000167843  -4.9803e-05      24.0134 
           0      1.61333  0.000168605 -4.53197e-05      24.0158 
           0         1.92  0.000172513 -4.11941e-05      24.0181 
           0      2.25333  0.000179165   -3.734e-05      24.0203 
           0      2.61333  0.000180159 -3.46629e-05      24.0224 
           0            3    0.0001708 -3.17943e-05      24.0243 
          20            0  1.83276e-19  1.22478e-23      23.5005 
          20     0.013333  0.000154218  9.37634e-08      23.5005 
          20     0.053333  0.000101264  1.01316e-06      23.5005 
          20         0.12  2.52422e-05  4.06878e-06      23.5005 
          20     0.213332 -4.68966e-05  9.88505e-06      23.5005 
          20     0.333332 -7.87535e-05  1.76847e-05      23.5005 
          20         0.48 -8.31789e-05  2.52245e-05      23.5005 
          20     0.653331 -9.81991e-05  2.96148e-05      23.5004 
          20     0.853332  -9.3553e-05  3.18823e-05      23.5003 
          20         1.08 -5.08649e-05  3.39101e-05      23.5002 
          20      1.33333  6.95235e-06    3.506e-05         23.5 
          20      1.61333  6.87395e-05  3.48335e-05      23.4998 
          20         1.92  0.000127466  3.32013e-05      23.4995 
          20      2.25333   0.00017706  3.04899e-05      23.4992 
          20      2.61333  0.000207726  2.64127e-05      23.4987 
          20            3  0.000217735  2.26405e-05      23.4982 
          40            0           -0           -0      22.9495 
          40     0.013333  0.000135705  6.72114e-08      22.9495 
          40     0.053333  8.51642e-05  8.99296e-07      22.9495 
          40         0.12  7.08635e-06  3.63659e-06      22.9495 
          40     0.213332 -8.12734e-05  8.60042e-06      22.9495 
          40     0.333332 -0.000150755  1.50241e-05      22.9495 
          40         0.48 -0.000189459  2.21043e-05      22.9495 
          40     0.653331 -0.000197026  2.99868e-05      22.9495 
          40     0.853332 -0.000171455  3.94759e-05      22.9495 
          40         1.08 -0.000116684  5.02178e-05      22.9494 
          40      1.33333 -4.41203e-05  6.08147e-05      22.9494 
          40      1.61333  3.17953e-05  6.93159e-05      22.9494 
          40         1.92  0.000100613  7.40814e-05      22.9494 
          40      2.25333  0.000160107  7.58711e-05      22.9493 
          40      2.61333  0.000204207  7.42803e-05      22.9492 
          40            3  0.000224838  6.90291e-05      22.9492 
          60            0           -0           -0      22.4337 
          60     0.013333  0.000163642  6.11875e-08      22.4337 
          60     0.053333  0.000196779  9.46366e-07      22.4337 
          60         0.12  0.000201954  4.53835e-06      22.4337 
          60     0.213332  0.000153047  1.27352e-05      22.4337 
          60     0.333332  8.25885e-05  2.58318e-05      22.4337 
          60         0.48  3.77579e-05  4.25152e-05      22.4337 
          60     0.653331  3.62689e-05  6.11052e-05      22.4337 
          60     0.853332  5.99432e-05  7.97907e-05      22.4337 
          60         1.08  8.22125e-05  9.69482e-05      22.4337 
          60      1.33333  9.69562e-05  0.000111395      22.4337 
          60      1.61333  0.000108204   0.00012183      22.4337 
          60         1.92  0.000120865  0.000126917      22.4336 
          60      2.25333  0.000130804   0.00012616      22.4336 
          60      2.61333  0.000137443  0.000120208      22.4336 
          60            3  0.000141897  0.000109949      22.4335 
          80            0           -0           -0      21.9346 
          80     0.013333  0.000165424  8.88722e-08      21.9346 
          80     0.053333  0.000206523  1.35976e-06      21.9346 
          80         0.12  0.000209216   6.3034e-06      21.9346 
          80     0.213332  0.000149173  1.70582e-05      21.9346 
          80     0.333332  7.04322e-05  3.35929e-05      21.9346 
          80         0.48  2.61392e-05  5.43499e-05      21.9346 
          80     0.653331  3.70639e-05  7.79777e-05      21.9346 
          80     0.853332  8.29153e-05  0.000102653      21.9346 
          80         1.08  0.000109577  0.000124779      21.9346 
          80      1.33333  0.000107689  0.000141812      21.9346 
          80      1.61333  0.000111139  0.000153533      21.9346 
          80         1.92  0.000120521  0.000158963      21.9346 
          80      2.25333  0.000129677  0.000157169      21.9345 
          80      2.61333  0.000139282  0.000149369      21.9345 
          80            3  0.000149983  0.000137151      21.9345 
         100            0  1.66383e-19  3.32172e-25      21.4457 
         100     0.013333  0.000173539  5.20142e-08      21.4457 
         100     0.053333  0.000248842  8.38996e-07      21.4457 
         100         0.12  0.000305515  4.18039e-06      21.4457 
         100     0.213332  0.000294897  1.22348e-05      21.4457 
         100     0.333332  0.000234375  2.59671e-05      21.4457 
         100         0.48  0.000173851  4.47309e-05      21.4457 
         100     0.653331  0.000147254  6.72563e-05      21.4457 
         100     0.853332  0.000153666  9.19086e-05      21.4457 
         100         1.08  0.000160244  0.000116001      21.4457 
         100      1.33333  0.000148418  0.000136648      21.4457 
         100      1.61333  0.000134921  0.000152451      21.4457 
         100         1.92  0.000122343  0.000162106      21.4457 
         100      2.25333  0.000111543  0.000164206      21.4457 
         100      2.61333  0.000107267  0.000159729      21.4457 
         100            3  0.000112376  0.000150546      21.4456 
         150            0           -0           -0      20.2471 
         150     0.013333  0.000117971  9.93051e-09      20.2471 
         150     0.053333  7.59203e-05  8.15075e-08      20.2471 
         150         0.12  4.42066e-05 -2.22539e-08      20.2471 
         150     0.213332  4.07675e-05 -1.09666e-06      20.2471 
         150     0.333332  6.21611e-05 -3.80391e-06      20.2471 
         150         0.48  8.67282e-05 -7.89818e-06      20.2471 
         150     0.653331  0.000101949 -1.23839e-05      20.2471 
         150     0.853332  0.000115757  -1.5992e-05      20.2471 
         150         1.08  0.000136319 -1.80688e-05      20.2471 
         150      1.33333  0.000151463 -1.91352e-05      20.2471 
         150      1.61333  0.000155974 -1.98461e-05      20.2471 
         150         1.92  0.000157035 -2.00346e-05      20.2471 
         150      2.25333  0.000154971 -1.94724e-05      20.2471 
         150      2.61333  0.000150089 -1.83464e-05      20.2471 
         150            3  0.000142979 -1.69104e-05      20.2471 
         200            0            0            0      19.0638 
         200     0.013333  0.000115448 -1.53943e-08      19.0638 
         200     0.053333  7.10775e-05 -2.40484e-07      19.0638 
         200         0.12  3.51794e-05 -1.14033e-06      19.0638 
         200     0.213332  1.87609e-05 -3.23071e-06      19.0638 
         200     0.333332  2.01823e-05 -6.81921e-06      19.0638 
         200         0.48  2.92367e-05 -1.19709e-05      19.0638 
         200     0.653331  3.53203e-05 -1.86434e-05      19.0638 
         200     0.853332  3.30976e-05 -2.66629e-05      19.0638 
         200         1.08   2.8648e-05 -3.54227e-05      19.0638 
         200      1.33333  3.43271e-05 -4.38195e-05      19.0638 
         200      1.61333  5.07959e-05 -5.09339e-05      19.0638 
         200         1.92  7.09155e-05 -5.62714e-05      19.0638 
         200      2.25333  9.32189e-05 -5.93126e-05      19.0638 
         200      2.61333  0.000116452 -5.98039e-05      19.0638 
         200            3  0.000136936 -5.79717e-05      19.0638 
         250            0           -0           -0      17.8863 
         250     0.013333  0.000146347  8.30692e-09      17.8863 
         250     0.053333  0.000175684  1.49261e-07      17.8863 
         250         0.12  0.000209873   8.4099e-07      17.8863 
         250     0.213332  0.000221958  2.77759e-06      17.8863 
         250     0.333332  0.000206764   6.5548e-06      17.8863 
         250         0.48  0.000179052  1.22679e-05      17.8863 
         250     0.653331  0.000156063  1.95656e-05      17.8863 
         250     0.853332  0.000145138  2.79696e-05      17.8863 
         250         1.08  0.000142988  3.69459e-05      17.8863 
         250      1.33333  0.000140303  4.57132e-05      17.8863 
         250      1.61333  0.000133134  5.34993e-05      17.8863 
         250         1.92   0.00012419  5.97636e-05      17.8863 
         250      2.25333  0.000115905  6.38845e-05      17.8863 
         250      2.61333  0.000109653  6.55903e-05      17.8863 
         250            3  0.000105254  6.48566e-05      17.8863 
         300            0            0            0      16.7113 
         300     0.013333  0.000154548 -8.39107e-08      16.7113 
         300     0.053333  0.000229884  -1.1934e-06      16.7113 
         300         0.12  0.000375066 -4.93977e-06      16.7113 
         300     0.213332  0.000542499 -1.17709e-05      16.7113 
         300     0.333332  0.000667643 -2.02967e-05      16.7113 
         300         0.48  0.000724611 -2.87207e-05      16.7113 
         300     0.653331  0.000727993 -3.65307e-05      16.7113 
         300     0.853332  0.000691126 -4.46143e-05      16.7113 
         300         1.08  0.000616714 -5.37704e-05      16.7113 
         300      1.33333  0.000522111 -6.33729e-05      16.7113 
         300      1.61333  0.000426865 -7.18874e-05      16.7113 
         300         1.92  0.000327459 -7.84213e-05      16.7113 
         300      2.25333  0.000224414 -8.25293e-05      16.7113 
         300      2.61333  0.000126941 -8.37116e-05      16.7113 
         300            3  4.68095e-05 -8.20016e-05      16.7113 
         350            0           -0           -0      15.5374 
         350     0.013333  0.000124162 -3.61098e-08      15.5374 
         350     0.053333  0.000109402 -5.33372e-07      15.5374 
         350         0.12  0.000121497 -2.34213e-06      15.5374 
         350     0.213332  0.000156742 -6.03056e-06      15.5374 
         350     0.333332  0.000193961 -1.14131e-05      15.5374 
         350         0.48  0.000216036 -1.79026e-05      15.5374 
         350     0.653331  0.000219801 -2.51954e-05      15.5374 
         350     0.853332  0.000206324 -3.34261e-05      15.5374 
         350         1.08  0.000179378 -4.25541e-05      15.5374 
         350      1.33333  0.000153918 -5.16722e-05      15.5374 
         350      1.61333  0.000140566 -5.95532e-05      15.5374 
         350         1.92  0.000130634 -6.56279e-05      15.5374 
         350      2.25333   0.00012107 -6.95732e-05      15.5374 
         350      2.61333   0.00011255  -7.1001e-05      15.5373 
         350            3  0.000106081 -6.98224e-05      15.5373 
         400            0           -0           -0      14.3644 
         400     0.013333  0.000109047 -8.67789e-10      14.3644 
         400     0.053333  4.80986e-05 -4.91998e-08      14.3644 
         400         0.12 -7.99055e-06 -4.63233e-07      14.3644 
         400     0.213332 -3.35122e-05 -1.99656e-06      14.3644 
         400     0.333332 -2.17062e-05  -5.4523e-06      14.3644 
         400         0.48   1.0083e-05 -1.10383e-05      14.3644 
         400     0.653331   4.0301e-05 -1.82439e-05      14.3644 
         400     0.853332  6.06535e-05 -2.62803e-05      14.3644 
         400         1.08  7.45477e-05 -3.45019e-05      14.3644 
         400      1.33333  8.67259e-05 -4.24727e-05      14.3644 
         400      1.61333  9.92551e-05 -4.98067e-05      14.3644 
         400         1.92  0.000111884 -5.60722e-05      14.3644 
         400      2.25333  0.000124093 -6.07893e-05      14.3644 
         400      2.61333  0.000134207 -6.35483e-05      14.3644 
         400            3  0.000140462 -6.41366e-05      14.3644 
         450            0            0            0      13.1922 
         450     0.013333  0.000152782  7.49152e-08      13.1922 
         450     0.053333  0.000180968  1.14378e-06      13.1922 
         450         0.12  0.000169997  5.27698e-06      13.1922 
         450     0.213332  9.11698e-05  1.43914e-05      13.1922 
         450     0.333332  -2.0493e-05  2.88126e-05      13.1922 
         450         0.48 -0.000109782  4.73303e-05      13.1922 
         450     0.653331 -0.000148046  6.86217e-05      13.1922 
         450     0.853332 -0.000134703  9.20921e-05      13.1922 
         450         1.08 -8.63175e-05  0.000117043      13.1922 
         450      1.33333 -3.50539e-05  0.000141721      13.1922 
         450      1.61333 -4.34384e-07  0.000164054      13.1922 
         450         1.92  2.94941e-05  0.000182845      13.1922 
         450      2.25333  6.22954e-05  0.000196844      13.1922 
         450      2.61333  9.67816e-05   0.00020494      13.1922 
         450            3  0.000127962  0.000206445      13.1922 
         500            0           -0           -0      12.0208 
         500     0.013333  0.000157258 -2.58396e-09      12.0208 
         500     0.053333  0.000216435  2.24854e-08      12.0208 
         500         0.12  0.000285381  4.97368e-07      12.0208 
         500     0.213332  0.000317851   2.5119e-06      12.0208 
         500     0.333332   0.00030141  7.16108e-06      12.0208 
         500         0.48  0.000262832  1.45579e-05      12.0208 
         500     0.653331  0.000234251  2.37645e-05      12.0208 
         500     0.853332   0.00022248  3.34285e-05      12.0208 
         500         1.08  0.000210092  4.21694e-05      12.0208 
         500      1.33333  0.000182697  4.91045e-05      12.0208 
         500      1.61333  0.000151255  5.44471e-05      12.0208 
         500         1.92  0.000128562  5.86772e-05      12.0208 
         500      2.25333  0.000110245  6.15799e-05      12.0208 
         500      2.61333  9.40408e-05  6.27583e-05      12.0208 
         500            3  8.15284e-05  6.20191e-05      12.0208 
         550            0            0            0        10.85 
         550     0.013333  8.38399e-05 -8.88847e-08        10.85 
         550     0.053333 -1.59112e-05 -1.38912e-06        10.85 
         550         0.12 -5.30396e-05 -6.63093e-06        10.85 
         550     0.213332  2.75891e-05 -1.88149e-05        10.85 
         550     0.333332  0.000189271 -3.91825e-05        10.85 
         550         0.48    0.0003455 -6.65534e-05        10.85 
         550     0.653331   0.00043625 -9.87747e-05        10.85 
         550     0.853332  0.000450378 -0.000134261        10.85 
         550         1.08  0.000408894 -0.000171779        10.85 
         550      1.33333  0.000352306 -0.000209246        10.85 
         550      1.61333  0.000310873 -0.000244109        10.85 
         550         1.92  0.000276934 -0.000274476        10.85 
         550      2.25333  0.000238808 -0.000298761        10.85 
         550      2.61333  0.000196082 -0.000315066        10.85 
         550            3  0.000154313 -0.000321848        10.85 
         600            0           -0           -0      9.67996 
         600     0.013333   0.00021199  1.69922e-08      9.67996 
         600     0.053333  0.000411285  3.34185e-07      9.67996 
         600         0.12   0.00064561  2.05895e-06      9.67996 
         600     0.213332  0.000803155  7.35818e-06      9.67996 
         600     0.333332  0.000832319  1.86252e-05      9.67996 
         600         0.48  0.000763613  3.70973e-05      9.67996 
         600     0.653331  0.000666483  6.23708e-05      9.67996 
         600     0.853332  0.000593112  9.31206e-05      9.67996 
         600         1.08  0.000556227   0.00012774      9.67996 
         600      1.33333  0.000531761  0.000164103      9.67996 
         600      1.61333  0.000485393  0.000199469      9.67996 
         600         1.92  0.000413604  0.000231607      9.67996 
         600      2.25333  0.000331145  0.000258924      9.67995 
         600      2.61333  0.000245468  0.000279603      9.67995 
         600            3  0.000160455   0.00029206      9.67994 
         650            0            0            0      8.50996 
         650     0.013333  2.90517e-05  1.59365e-07      8.50996 
         650     0.053333 -0.000289246  2.26073e-06      8.50996 
         650         0.12 -0.000776063  9.31015e-06      8.50996 
         650     0.213332  -0.00129889  2.19002e-05      8.50996 
         650     0.333332  -0.00168168  3.66086e-05      8.50996 
         650         0.48  -0.00184463  4.86919e-05      8.50996 
         650     0.653331  -0.00183742  5.60401e-05      8.50996 
         650     0.853332  -0.00173958  6.02124e-05      8.50996 
         650         1.08   -0.0015786  6.43976e-05      8.50996 
         650      1.33333  -0.00136047  7.01862e-05      8.50996 
         650      1.61333  -0.00111747  7.64811e-05      8.50996 
         650         1.92 -0.000871119  8.15615e-05      8.50997 
         650      2.25333 -0.000609555  8.49198e-05      8.50998 
         650      2.61333 -0.000331723   8.6442e-05      8.50999 
         650            3 -5.48651e-05  8.58936e-05      8.51001 
         700            0           -0           -0      7.34266 
         700     0.013333   0.00020002 -2.06457e-07      7.34266 
         700     0.053333  0.000433362 -2.97354e-06      7.34266 
         700         0.12  0.000865067 -1.25807e-05      7.34266 
         700     0.213332   0.00138618 -3.08711e-05      7.34266 
         700     0.333332   0.00180828 -5.49416e-05      7.34266 
         700         0.48   0.00202102 -7.98092e-05      7.34266 
         700     0.653331   0.00205205 -0.000102943      7.34266 
         700     0.853332   0.00197025  -0.00012583      7.34266 
         700         1.08   0.00179458 -0.000151966      7.34266 
         700      1.33333   0.00153453 -0.000182631      7.34266 
         700      1.61333    0.0012562 -0.000214722      7.34266 
         700         1.92   0.00101077 -0.000243584      7.34265 
         700      2.25333  0.000767467 -0.000267615      7.34264 
         700      2.61333  0.000510658 -0.000285343      7.34263 
         700            3  0.000254983 -0.000295331      7.34261 
         750            0            0            0      6.17444 
         750     0.013333  8.49006e-05  1.73472e-07      6.17444 
         750     0.053333  -9.1323e-05   2.5123e-06      6.17444 
         750         0.12 -0.000414293  1.07277e-05      6.17444 
         750     0.213332 -0.000819097  2.66664e-05      6.17444 
         750     0.333332   -0.0011606  4.82576e-05      6.17444 
         750         0.48  -0.00134294  7.15287e-05      6.17444 
         750     0.653331  -0.00137918  9.43383e-05      6.17443 
         750     0.853332  -0.00132045  0.000117826      6.17443 
         750         1.08  -0.00117978  0.000144845      6.17443 
         750      1.33333 -0.000964808  0.000176367      6.17443 
         750      1.61333 -0.000737259  0.000209379      6.17444 
         750         1.92 -0.000550737   0.00023943      6.17444 
         750      2.25333  -0.00037419  0.000264568      6.17445 
         750      2.61333 -0.000187986  0.000283661      6.17446 
         750            3 -6.67776e-07  0.000295495      6.17447 
         800            0           -0           -0      5.00875 
         800     0.013333  0.000170265 -1.31803e-07      5.00875 
         800     0.053333  0.000304504 -1.89915e-06      5.00875 
         800         0.12  0.000563986 -8.03201e-06      5.00875 
         800     0.213332  0.000878908 -1.96619e-05      5.00875 
         800     0.333332   0.00112695 -3.48099e-05      5.00875 
         800         0.48   0.00123786 -5.01925e-05      5.00875 
         800     0.653331   0.00123425 -6.43121e-05      5.00875 
         800     0.853332   0.00116441 -7.85145e-05      5.00875 
         800         1.08   0.00103859 -9.54768e-05      5.00875 
         800      1.33333  0.000860564 -0.000116188      5.00875 
         800      1.61333  0.000681769  -0.00013817      5.00875 
         800         1.92  0.000547242 -0.000157603      5.00874 
         800      2.25333  0.000426814 -0.000173662      5.00874 
         800      2.61333  0.000300244 -0.000185603      5.00873 
         800            3  0.000172341 -0.000192646      5.00872 
         850            0           -0           -0      3.84217 
         850     0.013333  9.41495e-05  1.60678e-07      3.84217 
         850     0.053333  -5.8062e-05  2.35705e-06      3.84217 
         850         0.12 -0.000356851  1.02674e-05      3.84217 
         850     0.213332 -0.000758201  2.61663e-05      3.84217 
         850     0.333332  -0.00112359  4.86317e-05      3.84217 
         850         0.48  -0.00133956  7.38505e-05      3.84217 
         850     0.653331  -0.00139742  9.91138e-05      3.84217 
         850     0.853332  -0.00134538  0.000124718      3.84217 
         850         1.08  -0.00120986  0.000152859      3.84216 
         850      1.33333  -0.00100779  0.000184343      3.84217 
         850      1.61333 -0.000796473  0.000216539      3.84217 
         850         1.92 -0.000624543    0.0002456      3.84217 
         850      2.25333 -0.000460817  0.000269927      3.84218 
         850      2.61333 -0.000283623  0.000288587      3.84218 
         850            3 -9.84644e-05  0.000300497       3.8422 
         900            0           -0           -0      2.67719 
         900     0.013333  7.64291e-05   -9.338e-08      2.67719 
         900     0.053333 -4.50219e-05 -1.43101e-06      2.67719 
         900         0.12 -0.000119196 -6.64506e-06      2.67719 
         900     0.213332 -9.08494e-05 -1.83296e-05      2.67719 
         900     0.333332  1.12728e-05 -3.72731e-05      2.67719 
         900         0.48  0.000116474  -6.2325e-05      2.67719 
         900     0.653331  0.000176711 -9.20623e-05      2.67719 
         900     0.853332  0.000175462 -0.000126209      2.67719 
         900         1.08  0.000109042 -0.000165092      2.67719 
         900      1.33333  5.14813e-06  -0.00020747      2.67719 
         900      1.61333 -6.71411e-05 -0.000249501      2.67719 
         900         1.92 -7.14744e-05 -0.000287405      2.67719 
         900      2.25333 -5.06216e-05 -0.000319996      2.67719 
         900      2.61333  -2.9316e-05 -0.000346204      2.67719 
         900            3 -5.68258e-06 -0.000364535      2.67719 
         950            0           -0           -0      1.51228 
         950     0.013333  8.67108e-05  1.15565e-07      1.51228 
         950     0.053333 -7.60082e-05  1.71902e-06      1.51228 
         950         0.12 -0.000369762  7.59198e-06      1.51228 
         950     0.213332 -0.000748073  1.95551e-05      1.51228 
         950     0.333332  -0.00108087  3.63958e-05      1.51228 
         950         0.48   -0.0012556  5.45312e-05      1.51228 
         950     0.653331  -0.00126006  7.09523e-05      1.51228 
         950     0.853332  -0.00115274  8.52198e-05      1.51228 
         950         1.08  -0.00098907  9.86215e-05      1.51228 
         950      1.33333 -0.000810394  0.000111483      1.51228 
         950      1.61333 -0.000660013  0.000122102      1.51228 
         950         1.92 -0.000544533  0.000129117      1.51229 
         950      2.25333 -0.000425482  0.000132999      1.51229 
         950      2.61333 -0.000287389  0.000134002       1.5123 
         950            3  -0.00013884  0.000131938       1.5123 
        1000            0           -0           -0     0.348188 
        1000     0.013333 -0.000104776 -9.58026e-08     0.348188 
        1000     0.053333 -0.000707749 -1.72123e-06     0.348188 
        1000         0.12  -0.00137547 -9.49705e-06     0.348188 
        1000     0.213332  -0.00179137 -3.10753e-05     0.348188 
        1000     0.333332  -0.00180561 -7.36736e-05     0.348187 
        1000         0.48  -0.00152204 -0.000139808     0.348187 
        1000     0.653331  -0.00117748 -0.000226163     0.348186 
        1000     0.853332 -0.000951918 -0.000326744     0.348186 
        1000         1.08 -0.000874691 -0.000435584     0.348186 
        1000      1.33333  -0.00085039 -0.000546508     0.348187 
        1000      1.61333 -0.000769348 -0.000653537     0.348189 
        1000         1.92 -0.000619276 -0.000752981     0.348193 
        1000      2.25333 -0.000453213  -0.00084327       0.3482 
        1000      2.61333 -0.000286531 -0.000920645      0.34821 
        1000            3 -0.000111346 -0.000980271     0.348225 
