Variables = x, y, u, v, p

Zone, I=416, F=POINT
         -50            0            0            0      20.4324 
         -50     0.013333   0.00021714  3.39449e-08      20.4324 
         -50     0.053333  0.000201249     6.79e-08      20.4324 
         -50         0.12  0.000204358 -5.47196e-08      20.4324 
         -50     0.213332  0.000214044 -3.34259e-07      20.4324 
         -50     0.333332   0.00022229   -6.496e-07      20.4324 
         -50         0.48  0.000225812 -8.31536e-07      20.4324 
         -50     0.653331  0.000224857 -1.70851e-06      20.4323 
         -50     0.853332  0.000220476 -2.44349e-06      20.4322 
         -50         1.08   0.00021417 -2.42806e-06      20.4321 
         -50      1.33333  0.000205561 -2.37513e-06      20.4319 
         -50      1.61333   0.00019635 -1.61889e-06      20.4316 
         -50         1.92   0.00018741  -6.2023e-07      20.4313 
         -50      2.25333  0.000180235  6.00234e-07      20.4309 
         -50      2.61333  0.000179523  4.21769e-06      20.4303 
         -50            3  0.000183758  1.12952e-05      20.4296 
         -25            0           -0           -0      19.6301 
         -25     0.013333  0.000155543   2.1947e-08      19.6301 
         -25     0.053333  0.000131195   1.5961e-07      19.6301 
         -25         0.12  0.000113125  4.98159e-07      19.6301 
         -25     0.213332  9.89254e-05  9.78217e-07        19.63 
         -25     0.333332  8.92634e-05  1.43837e-06        19.63 
         -25         0.48   8.3168e-05  1.78057e-06        19.63 
         -25     0.653331  8.11043e-05  2.02657e-06        19.63 
         -25     0.853332  8.54686e-05  2.45336e-06        19.63 
         -25         1.08  9.61587e-05  3.01243e-06      19.6299 
         -25      1.33333  0.000110181  3.61724e-06      19.6298 
         -25      1.61333  0.000125295  4.33632e-06      19.6297 
         -25         1.92  0.000140644  4.40654e-06      19.6296 
         -25      2.25333  0.000148301  5.48913e-06      19.6295 
         -25      2.61333   0.00015084  6.36075e-06      19.6293 
         -25            3  0.000153661  4.39944e-06       19.629 
           0            0            0            0       18.957 
           0     0.013333  0.000522555 -0.000300137      18.9581 
           0     0.053333  0.000277925 -0.000158651      18.9594 
           0         0.12  0.000187264 -0.000102291      18.9609 
           0     0.213332  0.000138277 -7.89653e-05      18.9626 
           0     0.333332  0.000109189 -6.35376e-05      18.9643 
           0         0.48  9.00179e-05 -5.12873e-05       18.966 
           0     0.653331  7.97783e-05 -4.12838e-05      18.9678 
           0     0.853332  7.73384e-05 -3.27714e-05      18.9695 
           0         1.08  8.01702e-05 -2.54453e-05      18.9712 
           0      1.33333  8.62537e-05 -1.92159e-05      18.9729 
           0      1.61333  9.62661e-05 -1.40491e-05      18.9745 
           0         1.92  0.000110106 -9.87773e-06       18.976 
           0      2.25333  0.000124357 -6.72095e-06      18.9775 
           0      2.61333  0.000134473  -4.3348e-06      18.9789 
           0            3  0.000138936 -2.07789e-06      18.9802 
          20            0 -2.64506e-05  8.40838e-05      18.5767 
          20     0.013333 -3.39308e-05  8.47179e-05      18.5767 
          20     0.053333 -5.72657e-05  8.66558e-05      18.5767 
          20         0.12 -9.87989e-05  9.00171e-05      18.5767 
          20     0.213332 -0.000160722  9.50522e-05      18.5767 
          20     0.333332  -0.00024093  0.000102206      18.5766 
          20         0.48 -0.000322129  0.000112094      18.5765 
          20     0.653331 -0.000371671  0.000125205      18.5765 
          20     0.853332 -0.000365826   0.00014124      18.5764 
          20         1.08 -0.000309261  0.000158075      18.5762 
          20      1.33333 -0.000229453   0.00017246      18.5761 
          20      1.61333 -0.000138997  0.000181652      18.5759 
          20         1.92 -4.85694e-05  0.000183883      18.5757 
          20      2.25333   2.5829e-05   0.00017878      18.5755 
          20      2.61333  7.52361e-05  0.000168174      18.5752 
          20            3  0.000109501  0.000155478      18.5749 
          40            0           -0           -0      18.1674 
          40     0.013333  3.58846e-05  5.42791e-07      18.1674 
          40     0.053333 -0.000270693  7.07523e-06      18.1674 
          40         0.12  -0.00072752  2.56908e-05      18.1674 
          40     0.213332  -0.00109425  5.18531e-05      18.1674 
          40     0.333332  -0.00122316  7.80247e-05      18.1674 
          40         0.48   -0.0011414  0.000110166      18.1674 
          40     0.653331 -0.000965407  0.000155277      18.1674 
          40     0.853332 -0.000872039  0.000198684      18.1673 
          40         1.08 -0.000686856  0.000235658      18.1673 
          40      1.33333 -0.000351837  0.000269932      18.1673 
          40      1.61333 -3.06694e-05  0.000291745      18.1672 
          40         1.92  0.000231898  0.000296696      18.1672 
          40      2.25333   0.00040504    0.0002852      18.1671 
          40      2.61333  0.000484378    0.0002609       18.167 
          40            3  0.000491907  0.000230678      18.1669 
          60            0            0            0      17.7625 
          60     0.013333 -1.55425e-05 -2.91688e-07      17.7625 
          60     0.053333 -0.000270649  -4.5224e-06      17.7625 
          60         0.12 -0.000383654  -2.0714e-05      17.7625 
          60     0.213332 -0.000279094 -5.49398e-05      17.7625 
          60     0.333332 -9.21735e-05 -0.000106922      17.7625 
          60         0.48  1.14043e-05 -0.000175146      17.7625 
          60     0.653331 -8.09497e-05 -0.000262114      17.7625 
          60     0.853332 -0.000344785 -0.000366277      17.7625 
          60         1.08  -0.00052576 -0.000471123      17.7625 
          60      1.33333 -0.000446149 -0.000555635      17.7625 
          60      1.61333 -0.000237263 -0.000612629      17.7625 
          60         1.92 -5.21179e-05 -0.000636367      17.7624 
          60      2.25333  8.97895e-05 -0.000626823      17.7624 
          60      2.61333  0.000178634 -0.000591264      17.7624 
          60            3  0.000228157 -0.000537753      17.7624 
          80            0            0            0      17.3747 
          80     0.013333  0.000133162  2.04149e-07      17.3747 
          80     0.053333    0.0001266  3.17501e-06      17.3747 
          80         0.12 -2.11286e-05  1.48529e-05      17.3747 
          80     0.213332  -0.00032511  4.02374e-05      17.3747 
          80     0.333332  -0.00064178  7.85285e-05      17.3747 
          80         0.48 -0.000810188  0.000124779      17.3747 
          80     0.653331 -0.000775096   0.00017365      17.3747 
          80     0.853332 -0.000647689   0.00021696      17.3747 
          80         1.08 -0.000563066  0.000248028      17.3747 
          80      1.33333 -0.000453443  0.000270867      17.3747 
          80      1.61333 -0.000291754  0.000288198      17.3747 
          80         1.92 -0.000104289  0.000295373      17.3747 
          80      2.25333  5.34178e-05  0.000290857      17.3747 
          80      2.61333  0.000173199  0.000276401      17.3747 
          80            3  0.000258673  0.000255189      17.3746 
         100            0            0            0       16.996 
         100     0.013333  0.000151683  1.62267e-07       16.996 
         100     0.053333  0.000229417  2.31298e-06       16.996 
         100         0.12  0.000275428  9.68502e-06       16.996 
         100     0.213332  0.000263107  2.38398e-05       16.996 
         100     0.333332  0.000220306  4.43971e-05       16.996 
         100         0.48  0.000193148   7.2212e-05       16.996 
         100     0.653331  0.000260446  0.000110631       16.996 
         100     0.853332  0.000426044  0.000158726       16.996 
         100         1.08  0.000455641  0.000202623       16.996 
         100      1.33333  0.000321425  0.000234464       16.996 
         100      1.61333  0.000255649   0.00026075       16.996 
         100         1.92  0.000215152  0.000277844       16.996 
         100      2.25333  0.000166691  0.000282583       16.996 
         100      2.61333  0.000120258  0.000275216      16.9959 
         100            3  8.24361e-05  0.000257707      16.9959 
         150            0           -0           -0      16.0683 
         150     0.013333  0.000289095 -5.04228e-09      16.0683 
         150     0.053333  0.000744439   2.9164e-07      16.0683 
         150         0.12   0.00125083  3.57999e-06      16.0683 
         150     0.213332   0.00156722  1.59913e-05      16.0683 
         150     0.333332   0.00163351  4.33872e-05      16.0683 
         150         0.48    0.0015688  8.73636e-05      16.0683 
         150     0.653331    0.0015086   0.00014514      16.0683 
         150     0.853332   0.00146184  0.000209607      16.0683 
         150         1.08   0.00131491  0.000270136      16.0683 
         150      1.33333   0.00103987  0.000319121      16.0683 
         150      1.61333  0.000736679  0.000356959      16.0683 
         150         1.92  0.000427973  0.000380633      16.0683 
         150      2.25333  0.000147412  0.000387399      16.0683 
         150      2.61333  -7.8614e-05  0.000378695      16.0682 
         150            3 -0.000239496  0.000356891      16.0682 
         200            0            0            0       15.152 
         200     0.013333  8.44169e-05 -3.14869e-07       15.152 
         200     0.053333  0.000110961 -4.68269e-06       15.152 
         200         0.12  0.000348854 -2.07635e-05       15.152 
         200     0.213332   0.00078117  -5.4011e-05       15.152 
         200     0.333332    0.0012223 -0.000103043       15.152 
         200         0.48    0.0015079   -0.0001622       15.152 
         200     0.653331   0.00159223 -0.000227579       15.152 
         200     0.853332   0.00148966 -0.000298402       15.152 
         200         1.08   0.00126175 -0.000371958       15.152 
         200      1.33333   0.00101311 -0.000441481       15.152 
         200      1.61333  0.000772683 -0.000499964       15.152 
         200         1.92   0.00050053   -0.0005418       15.152 
         200      2.25333  0.000252473  -0.00056324       15.152 
         200      2.61333  4.53858e-05 -0.000563026       15.152 
         200            3 -0.000119444 -0.000542929       15.152 
         250            0            0            0      14.2394 
         250     0.013333 -4.00403e-05 -2.49362e-07      14.2394 
         250     0.053333  -0.00034143 -3.97047e-06      14.2394 
         250         0.12 -0.000499105 -1.92543e-05      14.2394 
         250     0.213332 -0.000362737 -5.49036e-05      14.2394 
         250     0.333332 -4.96201e-05 -0.000113751      14.2394 
         250         0.48   0.00021351 -0.000191413      14.2394 
         250     0.653331   0.00030271 -0.000281458      14.2394 
         250     0.853332  0.000239515 -0.000378098      14.2394 
         250         1.08  0.000142511 -0.000473862      14.2394 
         250      1.33333  0.000109764  -0.00056045      14.2394 
         250      1.61333  0.000119615 -0.000632492      14.2394 
         250         1.92  0.000119144 -0.000684527      14.2394 
         250      2.25333  0.000119424 -0.000711769      14.2394 
         250      2.61333  0.000119115 -0.000712678      14.2394 
         250            3  0.000113118 -0.000688448      14.2394 
         300            0            0            0       13.328 
         300     0.013333 -7.08225e-05 -1.20976e-07       13.328 
         300     0.053333 -0.000487221 -2.06688e-06       13.328 
         300         0.12 -0.000864129 -1.09149e-05       13.328 
         300     0.213332  -0.00099139 -3.38423e-05       13.328 
         300     0.333332 -0.000870074 -7.56491e-05       13.328 
         300         0.48 -0.000662673 -0.000135868       13.328 
         300     0.653331 -0.000520445 -0.000210681       13.328 
         300     0.853332 -0.000488887 -0.000295437       13.328 
         300         1.08  -0.00050058 -0.000383675       13.328 
         300      1.33333 -0.000445412 -0.000466633       13.328 
         300      1.61333 -0.000314422 -0.000537844       13.328 
         300         1.92 -0.000172628 -0.000593036       13.328 
         300      2.25333 -3.17165e-05 -0.000627862       13.328 
         300      2.61333  0.000100429 -0.000639934      13.3281 
         300            3  0.000211318 -0.000629027      13.3281 
         350            0  7.73139e-20  4.26254e-27      12.4168 
         350     0.013333  -1.7357e-05   3.3425e-07      12.4168 
         350     0.053333 -0.000419217  4.72045e-06      12.4168 
         350         0.12   -0.0010654  1.92942e-05      12.4168 
         350     0.213332  -0.00175231  4.50571e-05      12.4168 
         350     0.333332  -0.00221536  7.54335e-05      12.4168 
         350         0.48  -0.00236916  0.000102731      12.4168 
         350     0.653331  -0.00230434  0.000125307      12.4168 
         350     0.853332  -0.00210112  0.000147528      12.4168 
         350         1.08  -0.00177926  0.000173464      12.4168 
         350      1.33333  -0.00140344   0.00020131      12.4168 
         350      1.61333  -0.00104245  0.000225597      12.4168 
         350         1.92 -0.000666112  0.000243549      12.4168 
         350      2.25333 -0.000290508  0.000254248      12.4168 
         350      2.61333  6.01972e-05  0.000256512      12.4169 
         350            3  0.000360956  0.000250174      12.4169 
         400            0            0            0      11.5066 
         400     0.013333   0.00026433   3.3237e-07      11.5066 
         400     0.053333  0.000573399  5.16678e-06      11.5066 
         400         0.12  0.000708414   2.4393e-05      11.5066 
         400     0.213332  0.000488915  6.80732e-05      11.5066 
         400     0.333332  5.63175e-05  0.000139089      11.5066 
         400         0.48 -0.000317221  0.000232334      11.5066 
         400     0.653331 -0.000472874   0.00034108      11.5066 
         400     0.853332  -0.00040134  0.000461051      11.5066 
         400         1.08  -0.00020249  0.000586816      11.5066 
         400      1.33333  -4.7084e-05  0.000708046      11.5066 
         400      1.61333 -2.09632e-06  0.000814563      11.5066 
         400         1.92  2.83296e-05  0.000900434      11.5066 
         400      2.25333    6.127e-05  0.000960086      11.5066 
         400      2.61333  9.17226e-05  0.000988768      11.5066 
         400            3  0.000117752  0.000984174      11.5066 
         450            0  1.75251e-19  4.62666e-28      10.5963 
         450     0.013333  0.000268371 -1.87252e-07      10.5963 
         450     0.053333  0.000731287 -2.50105e-06      10.5963 
         450         0.12   0.00138417 -9.26221e-06      10.5963 
         450     0.213332   0.00198184 -1.84701e-05      10.5963 
         450     0.333332   0.00232163 -2.38649e-05      10.5963 
         450         0.48   0.00239626 -2.02836e-05      10.5963 
         450     0.653331   0.00233345   -7.729e-06      10.5963 
         450     0.853332   0.00221823  9.09534e-06      10.5963 
         450         1.08   0.00202253  2.36346e-05      10.5963 
         450      1.33333   0.00171606  3.20972e-05      10.5963 
         450      1.61333    0.0013637  3.64808e-05      10.5963 
         450         1.92   0.00100904  3.97226e-05      10.5963 
         450      2.25333  0.000649798  4.17969e-05      10.5963 
         450      2.61333  0.000296857  4.24626e-05      10.5963 
         450            3 -2.21427e-05   4.1647e-05      10.5962 
         500            0           -0           -0      9.68446 
         500     0.013333   1.7806e-05 -9.72573e-08      9.68446 
         500     0.053333 -0.000180767 -1.59059e-06      9.68446 
         500         0.12 -0.000331221 -7.97128e-06      9.68446 
         500     0.213332 -0.000343079 -2.34356e-05      9.68446 
         500     0.333332 -0.000258314  -4.9677e-05      9.68446 
         500         0.48 -0.000191212 -8.46586e-05      9.68446 
         500     0.653331 -0.000210501 -0.000124939      9.68446 
         500     0.853332 -0.000302265 -0.000167654      9.68446 
         500         1.08 -0.000392985   -0.0002095      9.68446 
         500      1.33333  -0.00040269 -0.000246305      9.68446 
         500      1.61333 -0.000330201 -0.000275644      9.68446 
         500         1.92  -0.00024178 -0.000297527      9.68447 
         500      2.25333 -0.000152579 -0.000311211      9.68447 
         500      2.61333 -6.18988e-05 -0.000315527      9.68447 
         500            3  2.66413e-05 -0.000309775      9.68448 
         550            0            0            0      8.77169 
         550     0.013333 -0.000239324  5.66879e-07      8.77169 
         550     0.053333  -0.00129739  8.02466e-06      8.77169 
         550         0.12   -0.0029287  3.28582e-05      8.77169 
         550     0.213332  -0.00463796  7.63943e-05      8.77169 
         550     0.333332  -0.00580142  0.000125191      8.77169 
         550         0.48   -0.0061744  0.000161624      8.77169 
         550     0.653331  -0.00597548  0.000178579      8.77168 
         550     0.853332  -0.00550214  0.000182225      8.77168 
         550         1.08  -0.00486677   0.00018306      8.77168 
         550      1.33333  -0.00412078  0.000184726      8.77169 
         550      1.61333  -0.00335772  0.000183012       8.7717 
         550         1.92  -0.00256762  0.000175008      8.77172 
         550      2.25333  -0.00172594  0.000161552      8.77176 
         550      2.61333 -0.000862561  0.000143555      8.77182 
         550            3 -4.17526e-05  0.000121584      8.77189 
         600            0   6.2509e-19  1.63949e-26      7.86482 
         600     0.013333  0.000671042 -8.65017e-07      7.86482 
         600     0.053333   0.00238224 -1.21277e-05      7.86482 
         600         0.12   0.00501817 -4.90278e-05      7.86482 
         600     0.213332   0.00778541 -0.000112615      7.86482 
         600     0.333332   0.00974939 -0.000183125      7.86482 
         600         0.48    0.0105648 -0.000236259      7.86482 
         600     0.653331    0.0105563 -0.000263171      7.86483 
         600     0.853332    0.0101285 -0.000274451      7.86483 
         600         1.08   0.00933875 -0.000290305      7.86483 
         600      1.33333   0.00812979 -0.000323014      7.86483 
         600      1.61333   0.00670577 -0.000365793      7.86481 
         600         1.92    0.0052634 -0.000404706      7.86477 
         600      2.25333   0.00376098  -0.00043505      7.86471 
         600      2.61333   0.00220877  -0.00045509      7.86462 
         600            3  0.000706924 -0.000463273      7.86451 
         650            0  4.47115e-20 -1.63469e-26      6.94833 
         650     0.013333 -0.000183453  7.49489e-07      6.94833 
         650     0.053333  -0.00115091  1.07342e-05      6.94833 
         650         0.12  -0.00281229  4.50724e-05      6.94833 
         650     0.213332  -0.00476322  0.000109765      6.94833 
         650     0.333332  -0.00633848  0.000194187      6.94833 
         650         0.48  -0.00716844  0.000280993      6.94833 
         650     0.653331  -0.00736129  0.000361418      6.94833 
         650     0.853332  -0.00715575  0.000440397      6.94833 
         650         1.08  -0.00659841  0.000530517      6.94832 
         650      1.33333  -0.00567791  0.000638679      6.94833 
         650      1.61333  -0.00459826  0.000756026      6.94834 
         650         1.92  -0.00356682   0.00086572      6.94836 
         650      2.25333  -0.00252864  0.000958643       6.9484 
         650      2.61333  -0.00146156   0.00102906      6.94846 
         650            3 -0.000420795   0.00107225      6.94855 
         700            0           -0           -0      6.03984 
         700     0.013333  0.000178892 -5.40756e-07      6.03984 
         700     0.053333  0.000526824 -7.92508e-06      6.03984 
         700         0.12   0.00133942 -3.45117e-05      6.03984 
         700     0.213332   0.00248762 -8.81373e-05      6.03984 
         700     0.333332   0.00355337 -0.000164859      6.03984 
         700         0.48   0.00419771 -0.000253267      6.03984 
         700     0.653331   0.00438905 -0.000345172      6.03984 
         700     0.853332   0.00425169 -0.000441022      6.03984 
         700         1.08   0.00385226 -0.000546323      6.03984 
         700      1.33333   0.00325016 -0.000662265      6.03984 
         700      1.61333   0.00261637 -0.000779893      6.03984 
         700         1.92   0.00206197 -0.000886898      6.03982 
         700      2.25333   0.00151887 -0.000976367       6.0398 
         700      2.61333  0.000956042  -0.00104317      6.03977 
         700            3  0.000401935  -0.00108264      6.03973 
         750            0            0            0      5.12643 
         750     0.013333  0.000277644   4.0945e-07      5.12643 
         750     0.053333   0.00059196  6.30686e-06      5.12643 
         750         0.12  0.000646587  2.95952e-05      5.12643 
         750     0.213332  0.000202341  8.27551e-05      5.12643 
         750     0.333332 -0.000578693  0.000170598      5.12643 
         750         0.48  -0.00132049  0.000287922      5.12643 
         750     0.653331  -0.00176258  0.000425503      5.12643 
         750     0.853332  -0.00185902  0.000577081      5.12643 
         750         1.08  -0.00167644  0.000739876      5.12643 
         750      1.33333   -0.0013469  0.000909064      5.12643 
         750      1.61333  -0.00104354   0.00107454      5.12643 
         750         1.92 -0.000824876   0.00122543      5.12643 
         750      2.25333 -0.000619602   0.00135408      5.12644 
         750      2.61333 -0.000397469   0.00145342      5.12645 
         750            3 -0.000171716   0.00151664      5.12646 
         800            0            0            0      4.21363 
         800     0.013333 -0.000316156  3.36021e-08      4.21363 
         800     0.053333  -0.00142635  5.38814e-08      4.21363 
         800         0.12  -0.00277152 -2.81387e-06      4.21363 
         800     0.213332  -0.00381138 -1.75019e-05      4.21363 
         800     0.333332  -0.00423007 -5.58418e-05      4.21363 
         800         0.48  -0.00412141 -0.000124738      4.21363 
         800     0.653331  -0.00381617 -0.000222342      4.21363 
         800     0.853332  -0.00357032  -0.00034081      4.21363 
         800         1.08  -0.00340694 -0.000469638      4.21363 
         800      1.33333  -0.00317853 -0.000597683      4.21363 
         800      1.61333   -0.0027803 -0.000716682      4.21363 
         800         1.92  -0.00227691  -0.00082379      4.21365 
         800      2.25333  -0.00173369 -0.000916654      4.21366 
         800      2.61333  -0.00116986 -0.000990495      4.21369 
         800            3 -0.000593199  -0.00104016      4.21372 
         850            0           -0           -0      3.30319 
         850     0.013333   0.00011506 -2.45291e-07      3.30319 
         850     0.053333  0.000211779 -3.60065e-06      3.30319 
         850         0.12  0.000521239 -1.57874e-05      3.30319 
         850     0.213332   0.00102809 -4.09776e-05      3.30319 
         850     0.333332   0.00157799 -7.88088e-05      3.30319 
         850         0.48    0.0020141  -0.00012568      3.30319 
         850     0.653331   0.00228408 -0.000178369      3.30319 
         850     0.853332   0.00240386 -0.000236487      3.30319 
         850         1.08   0.00236355 -0.000302704      3.30319 
         850      1.33333   0.00213204 -0.000379656      3.30319 
         850      1.61333   0.00177514 -0.000464549      3.30319 
         850         1.92   0.00144043   -0.0005487      3.30319 
         850      2.25333   0.00113196 -0.000625212      3.30318 
         850      2.61333  0.000822768 -0.000689861      3.30316 
         850            3  0.000505721 -0.000739326      3.30315 
         900            0           -0           -0      2.39078 
         900     0.013333  8.21688e-05 -2.03451e-07      2.39078 
         900     0.053333  9.46469e-05 -3.13711e-06      2.39078 
         900         0.12  0.000324343 -1.47636e-05      2.39078 
         900     0.213332  0.000834828 -4.13937e-05      2.39078 
         900     0.333332   0.00148969 -8.52627e-05      2.39078 
         900         0.48   0.00204955 -0.000142792      2.39078 
         900     0.653331   0.00235998 -0.000207632      2.39078 
         900     0.853332   0.00241878 -0.000274936      2.39078 
         900         1.08    0.0023098 -0.000342339      2.39078 
         900      1.33333   0.00213166  -0.00040791      2.39078 
         900      1.61333   0.00194189 -0.000469603      2.39078 
         900         1.92   0.00171477 -0.000526857      2.39077 
         900      2.25333   0.00144227 -0.000577603      2.39077 
         900      2.61333   0.00113617 -0.000619114      2.39076 
         900            3  0.000814085 -0.000648345      2.39075 
         950            0           -0           -0      1.47929 
         950     0.013333  0.000471702 -2.30595e-07      1.47929 
         950     0.053333   0.00150368 -3.11473e-06      1.47929 
         950         0.12   0.00295995 -1.17186e-05      1.47929 
         950     0.213332    0.0043732 -2.34744e-05      1.47929 
         950     0.333332    0.0052951  -2.8715e-05      1.47929 
         950         0.48   0.00559014 -1.69029e-05      1.47929 
         950     0.653331   0.00545874  1.60312e-05       1.4793 
         950     0.853332   0.00517903  6.62407e-05       1.4793 
         950         1.08   0.00487008  0.000125217       1.4793 
         950      1.33333   0.00447755  0.000184025       1.4793 
         950      1.61333   0.00394356  0.000237411      1.47929 
         950         1.92   0.00333073  0.000285565      1.47928 
         950      2.25333    0.0026863   0.00032993      1.47927 
         950      2.61333   0.00201418  0.000368812      1.47924 
         950            3   0.00131089   0.00039964       1.4792 
        1000            0           -0           -0       0.5655 
        1000     0.013333  0.000559667  2.89808e-07       0.5655 
        1000     0.053333   0.00163672  4.77563e-06       0.5655 
        1000         0.12   0.00266878  2.45965e-05       0.5655 
        1000     0.213332   0.00302509  7.60063e-05     0.565501 
        1000     0.333332   0.00257835  0.000172208     0.565501 
        1000         0.48   0.00172445   0.00031524     0.565502 
        1000     0.653331  0.000976331  0.000496497     0.565503 
        1000     0.853332  0.000599688  0.000704236     0.565504 
        1000         1.08  0.000569505  0.000928381     0.565504 
        1000      1.33333  0.000687847   0.00115907     0.565504 
        1000      1.61333  0.000738244   0.00138514     0.565502 
        1000         1.92  0.000657662   0.00159721       0.5655 
        1000      2.25333  0.000530563   0.00178772     0.565495 
        1000      2.61333  0.000405437   0.00194866     0.565487 
        1000            3  0.000283692   0.00207104     0.565477 
