Variables = x, y, u, v, p

Zone, I=416, F=POINT
         -50            0            0            0     -55.6168 
         -50     0.013333 -2.59569e-05 -2.21824e-08     -55.6168 
         -50     0.053333 -1.76256e-05 -1.26438e-07     -55.6168 
         -50         0.12 -7.85299e-06 -4.55126e-07     -55.6168 
         -50     0.213332  1.65301e-07 -9.05947e-07     -55.6168 
         -50     0.333332  3.73295e-06  -1.7345e-06     -55.6167 
         -50         0.48  3.05274e-06  -2.8514e-06     -55.6166 
         -50     0.653331  5.63553e-07 -3.25828e-06     -55.6164 
         -50     0.853332  -7.8699e-07 -3.13869e-06     -55.6162 
         -50         1.08 -5.03381e-07 -2.93811e-06     -55.6158 
         -50      1.33333 -1.87259e-07 -2.12884e-06     -55.6152 
         -50      1.61333  9.02065e-07 -1.45125e-06     -55.6145 
         -50         1.92  1.29632e-06 -3.53834e-07     -55.6135 
         -50      2.25333  -1.2985e-06 -5.89501e-07     -55.6123 
         -50      2.61333 -3.39428e-06   7.4296e-07     -55.6108 
         -50            3 -1.02406e-06  6.82435e-06     -55.6088 
         -25            0           -0           -0     -53.4158 
         -25     0.013333 -1.84577e-05 -2.06921e-09     -53.4158 
         -25     0.053333 -1.23847e-05  5.37356e-08     -53.4158 
         -25         0.12 -8.34413e-06  2.36612e-07     -53.4158 
         -25     0.213332 -5.90074e-06  5.43337e-07     -53.4158 
         -25     0.333332  -3.0653e-06  9.38314e-07     -53.4158 
         -25         0.48  3.62471e-07  1.43503e-06     -53.4157 
         -25     0.653331  3.66182e-06  1.86904e-06     -53.4157 
         -25     0.853332  5.22009e-06  2.62048e-06     -53.4156 
         -25         1.08  2.72418e-06  3.13842e-06     -53.4154 
         -25      1.33333 -2.43643e-06  3.47557e-06     -53.4152 
         -25      1.61333 -6.56124e-06  3.47024e-06      -53.415 
         -25         1.92  -1.0242e-05  3.33015e-06     -53.4146 
         -25      2.25333 -8.50758e-06  2.61232e-06     -53.4142 
         -25      2.61333 -4.49587e-06   1.3881e-06     -53.4136 
         -25            3 -3.92134e-06  8.71273e-07     -53.4129 
           0            0            0            0     -51.5775 
           0     0.013333 -8.28251e-06  3.29113e-05     -51.5797 
           0     0.053333 -1.43451e-05  1.36842e-05     -51.5834 
           0         0.12  3.15945e-06  1.16468e-05     -51.5876 
           0     0.213332  1.72224e-05  7.20238e-06     -51.5922 
           0     0.333332  2.42005e-05  4.41818e-06     -51.5968 
           0         0.48  2.57122e-05  1.53739e-06     -51.6016 
           0     0.653331  2.18464e-05 -1.23928e-06     -51.6063 
           0     0.853332  1.37469e-05 -4.03984e-06      -51.611 
           0         1.08  4.74242e-06 -6.72229e-06     -51.6156 
           0      1.33333 -2.99981e-06 -8.99924e-06     -51.6201 
           0      1.61333 -1.08153e-05  -1.0683e-05     -51.6244 
           0         1.92 -1.57815e-05 -1.14537e-05     -51.6286 
           0      2.25333 -1.70584e-05 -1.12799e-05     -51.6326 
           0      2.61333 -1.89646e-05 -1.13159e-05     -51.6364 
           0            3 -2.26333e-05  -1.2076e-05       -51.64 
          20            0 -1.14469e-05 -1.49791e-05     -50.5389 
          20     0.013333 -4.11406e-06 -1.53898e-05     -50.5389 
          20     0.053333   1.8729e-05 -1.67218e-05     -50.5388 
          20         0.12  5.92373e-05 -1.93128e-05     -50.5388 
          20     0.213332  0.000119092 -2.38732e-05     -50.5387 
          20     0.333332   0.00019454 -3.16683e-05     -50.5385 
          20         0.48  0.000266193 -4.45693e-05     -50.5383 
          20     0.653331   0.00030361  -6.3704e-05     -50.5381 
          20     0.853332  0.000295876 -8.75041e-05     -50.5378 
          20         1.08  0.000261767 -0.000111601     -50.5375 
          20      1.33333  0.000222073 -0.000131769     -50.5371 
          20      1.61333  0.000178874   -0.0001454     -50.5366 
          20         1.92   0.00013149 -0.000151023     -50.5361 
          20      2.25333  8.48367e-05 -0.000148808     -50.5355 
          20      2.61333   4.6306e-05 -0.000140373     -50.5347 
          20            3  2.03356e-05  -0.00012712     -50.5339 
          40            0           -0           -0     -49.4243 
          40     0.013333 -5.06706e-05   3.6557e-07     -49.4243 
          40     0.053333 -0.000212122  5.09702e-06     -49.4243 
          40         0.12 -0.000524309  1.98115e-05     -49.4243 
          40     0.213332 -0.000836794  4.33159e-05     -49.4243 
          40     0.333332 -0.000996387  7.06868e-05     -49.4243 
          40         0.48 -0.000978776  0.000104506     -49.4243 
          40     0.653331 -0.000887121  0.000146584     -49.4242 
          40     0.853332  -0.00085436  0.000185232     -49.4241 
          40         1.08 -0.000730115  0.000217481      -49.424 
          40      1.33333 -0.000497413  0.000242697     -49.4239 
          40      1.61333 -0.000264356  0.000253234     -49.4237 
          40         1.92 -5.19208e-05  0.000247717     -49.4235 
          40      2.25333  0.000109163  0.000228617     -49.4232 
          40      2.61333  0.000204315  0.000200055     -49.4228 
          40            3  0.000238357  0.000166323     -49.4223 
          60            0            0            0     -48.3198 
          60     0.013333  3.21314e-05 -3.23858e-07     -48.3198 
          60     0.053333  0.000220521 -4.54061e-06     -48.3198 
          60         0.12  0.000558943 -1.80469e-05     -48.3198 
          60     0.213332  0.000879798 -3.96519e-05     -48.3197 
          60     0.333332    0.0010113  -6.1065e-05     -48.3197 
          60         0.48  0.000971617 -7.79721e-05     -48.3197 
          60     0.653331  0.000823669 -9.71892e-05     -48.3197 
          60     0.853332  0.000569029 -0.000127139     -48.3197 
          60         1.08  0.000326776 -0.000159986     -48.3197 
          60      1.33333  0.000208161 -0.000180438     -48.3197 
          60      1.61333  0.000122072 -0.000185772     -48.3196 
          60         1.92  1.63223e-06 -0.000178139     -48.3196 
          60      2.25333 -0.000101867 -0.000159414     -48.3195 
          60      2.61333 -0.000170849 -0.000133578     -48.3195 
          60            3 -0.000206474 -0.000105106     -48.3194 
          80            0            0            0     -47.2636 
          80     0.013333  9.84782e-05 -1.39167e-07     -47.2636 
          80     0.053333  0.000408486 -1.62639e-06     -47.2636 
          80         0.12  0.000796446 -4.61917e-06     -47.2636 
          80     0.213332    0.0010961 -5.05172e-06     -47.2636 
          80     0.333332   0.00125067  2.17196e-06     -47.2636 
          80         0.48   0.00134764  1.78409e-05     -47.2636 
          80     0.653331   0.00143058  3.50405e-05     -47.2636 
          80     0.853332   0.00131808  3.73023e-05     -47.2636 
          80         1.08  0.000906508   1.5178e-05     -47.2636 
          80      1.33333  0.000514822  -1.7704e-05     -47.2636 
          80      1.61333  0.000273204 -4.56934e-05     -47.2635 
          80         1.92  3.28295e-05 -6.82321e-05     -47.2635 
          80      2.25333  -0.00015375 -8.48763e-05     -47.2635 
          80      2.61333 -0.000269619 -9.41727e-05     -47.2635 
          80            3 -0.000331968 -9.79299e-05     -47.2635 
         100            0            0            0     -46.2324 
         100     0.013333 -4.64435e-05  9.27032e-08     -46.2324 
         100     0.053333 -0.000148356  1.29371e-06     -46.2324 
         100         0.12 -0.000304871  5.06174e-06     -46.2324 
         100     0.213332 -0.000448899  1.08208e-05     -46.2324 
         100     0.333332 -0.000517452  1.57616e-05     -46.2324 
         100         0.48 -0.000506043  1.81187e-05     -46.2324 
         100     0.653331 -0.000429504  1.91109e-05     -46.2324 
         100     0.853332 -0.000323768  1.88192e-05     -46.2324 
         100         1.08 -0.000297891  1.18489e-05     -46.2323 
         100      1.33333 -0.000292415  5.10756e-08     -46.2323 
         100      1.61333 -0.000187625 -8.39276e-06     -46.2323 
         100         1.92 -8.34772e-05 -1.51165e-05     -46.2323 
         100      2.25333 -4.78095e-06 -2.12862e-05     -46.2323 
         100      2.61333  5.13484e-05 -2.68194e-05     -46.2322 
         100            3  8.46711e-05 -3.08799e-05     -46.2322 
         150            0           -0           -0     -43.7059 
         150     0.013333  0.000156539  9.38611e-08     -43.7059 
         150     0.053333  0.000541147  1.90346e-06     -43.7059 
         150         0.12  0.000837325  1.15847e-05     -43.7059 
         150     0.213332  0.000817379   3.9053e-05     -43.7059 
         150     0.333332  0.000545351   9.0261e-05     -43.7059 
         150         0.48  0.000265377  0.000161728     -43.7059 
         150     0.653331  0.000121208  0.000243983     -43.7059 
         150     0.853332  6.37334e-05  0.000326259     -43.7059 
         150         1.08 -7.61121e-06  0.000400221     -43.7059 
         150      1.33333 -8.28669e-05   0.00046265     -43.7059 
         150      1.61333 -0.000126042  0.000512397     -43.7059 
         150         1.92  -0.00014823  0.000543247     -43.7059 
         150      2.25333 -0.000162946  0.000551545     -43.7059 
         150      2.61333 -0.000163612  0.000538636     -43.7059 
         150            3 -0.000148612  0.000507587     -43.7059 
         200            0            0            0     -41.2129 
         200     0.013333  0.000122607  4.91148e-07     -41.2129 
         200     0.053333  0.000346925  7.38063e-06     -41.2129 
         200         0.12  0.000320873  3.32477e-05     -41.2129 
         200     0.213332 -5.38232e-05  8.83029e-05     -41.2129 
         200     0.333332 -0.000560042  0.000172924     -41.2129 
         200         0.48 -0.000935921  0.000280647     -41.2129 
         200     0.653331  -0.00105565  0.000406492     -41.2129 
         200     0.853332 -0.000902517  0.000548346     -41.2129 
         200         1.08  -0.00059878  0.000698279     -41.2129 
         200      1.33333 -0.000367307  0.000839408     -41.2129 
         200      1.61333 -0.000238174  0.000956826     -41.2129 
         200         1.92 -9.48759e-05   0.00104046     -41.2129 
         200      2.25333  2.44389e-05   0.00108351     -41.2129 
         200      2.61333  0.000114209   0.00108407     -41.2129 
         200            3  0.000183026   0.00104557     -41.2128 
         250            0            0            0     -38.7302 
         250     0.013333 -4.36657e-06 -8.44636e-08     -38.7302 
         250     0.053333  4.87888e-05 -1.29315e-06     -38.7302 
         250         0.12  0.000186294 -5.97957e-06     -38.7302 
         250     0.213332  0.000402328 -1.62517e-05     -38.7302 
         250     0.333332  0.000626598 -3.20473e-05     -38.7302 
         250         0.48  0.000785171 -5.10355e-05     -38.7302 
         250     0.653331   0.00085678 -7.05835e-05     -38.7302 
         250     0.853332  0.000858041 -8.93361e-05     -38.7302 
         250         1.08  0.000802845 -0.000107109     -38.7302 
         250      1.33333  0.000697051 -0.000124045     -38.7302 
         250      1.61333  0.000555057  -0.00013933     -38.7303 
         250         1.92  0.000387229 -0.000151218     -38.7303 
         250      2.25333   0.00022081 -0.000158398     -38.7303 
         250      2.61333  6.89164e-05 -0.000160163     -38.7303 
         250            3 -6.05046e-05  -0.00015662     -38.7303 
         300            0            0            0     -36.2525 
         300     0.013333 -0.000160134  1.13801e-07     -36.2525 
         300     0.053333 -0.000562404  1.44165e-06     -36.2525 
         300         0.12  -0.00108815  4.76586e-06     -36.2525 
         300     0.213332  -0.00153122  7.36132e-06     -36.2525 
         300     0.333332  -0.00175328  3.80824e-06     -36.2525 
         300         0.48  -0.00177974 -9.62199e-06     -36.2525 
         300     0.653331  -0.00171973 -3.23353e-05     -36.2525 
         300     0.853332   -0.0016277 -6.01729e-05     -36.2525 
         300         1.08  -0.00147315 -8.78424e-05     -36.2525 
         300      1.33333  -0.00123417 -0.000111813     -36.2525 
         300      1.61333 -0.000947829 -0.000131955     -36.2525 
         300         1.92 -0.000637132 -0.000147925     -36.2525 
         300      2.25333 -0.000329032 -0.000158294     -36.2525 
         300      2.61333 -4.52342e-05 -0.000162691     -36.2524 
         300            3  0.000193122 -0.000160966     -36.2524 
         350            0  3.10188e-20  5.64908e-28     -33.7745 
         350     0.013333  0.000130389  9.12858e-08     -33.7745 
         350     0.053333   0.00046888  1.57666e-06     -33.7745 
         350         0.12  0.000777647  8.48693e-06     -33.7745 
         350     0.213332  0.000865764  2.69588e-05     -33.7745 
         350     0.333332  0.000720398  6.17084e-05     -33.7745 
         350         0.48  0.000482815  0.000112836     -33.7745 
         350     0.653331  0.000296101   0.00017667     -33.7745 
         350     0.853332  0.000210402  0.000248694     -33.7745 
         350         1.08  0.000194024  0.000324608     -33.7745 
         350      1.33333  0.000180284  0.000399364     -33.7745 
         350      1.61333  0.000132155  0.000467514     -33.7745 
         350         1.92  7.31473e-05  0.000524023     -33.7745 
         350      2.25333  1.29988e-05  0.000564494     -33.7745 
         350      2.61333 -4.20801e-05  0.000585905     -33.7745 
         350            3 -8.55547e-05  0.000586879     -33.7745 
         400            0            0            0     -31.2967 
         400     0.013333  3.14776e-05 -3.61902e-07     -31.2967 
         400     0.053333  0.000241087 -5.23897e-06     -31.2967 
         400         0.12  0.000698166 -2.23216e-05     -31.2967 
         400     0.213332    0.0012951 -5.53065e-05     -31.2967 
         400     0.333332   0.00178761 -0.000100036     -31.2967 
         400         0.48   0.00203236 -0.000149417     -31.2967 
         400     0.653331   0.00205099 -0.000200759     -31.2967 
         400     0.853332   0.00189151 -0.000256911     -31.2967 
         400         1.08   0.00158073 -0.000320252     -31.2967 
         400      1.33333   0.00122178 -0.000386198     -31.2967 
         400      1.61333  0.000918356 -0.000445944     -31.2968 
         400         1.92  0.000623948 -0.000494329     -31.2968 
         400      2.25333  0.000328718 -0.000528548     -31.2968 
         400      2.61333  4.75279e-05 -0.000545893     -31.2968 
         400            3 -0.000198025 -0.000544971     -31.2968 
         450            0 -6.87231e-20  -2.1075e-28     -28.8197 
         450     0.013333 -0.000139435 -1.54185e-07     -28.8197 
         450     0.053333 -0.000418233 -2.45236e-06     -28.8197 
         450         0.12 -0.000636682 -1.19272e-05     -28.8197 
         450     0.213332 -0.000645579 -3.43463e-05     -28.8197 
         450     0.333332 -0.000476122 -7.23869e-05     -28.8197 
         450         0.48 -0.000269687  -0.00012459     -28.8197 
         450     0.653331 -0.000143882 -0.000188174     -28.8197 
         450     0.853332 -0.000143873 -0.000261084     -28.8197 
         450         1.08  -0.00022991  -0.00033973     -28.8197 
         450      1.33333 -0.000280962 -0.000416472     -28.8197 
         450      1.61333 -0.000237622 -0.000484044     -28.8197 
         450         1.92   -0.0001737 -0.000539578     -28.8197 
         450      2.25333 -0.000111451 -0.000580239     -28.8197 
         450      2.61333 -5.17786e-05 -0.000603051     -28.8197 
         450            3  2.52225e-06 -0.000606061     -28.8197 
         500            0           -0           -0     -26.3408 
         500     0.013333  0.000209216 -2.15345e-07     -26.3408 
         500     0.053333  0.000842303 -2.91694e-06     -26.3408 
         500         0.12   0.00171627 -1.09598e-05     -26.3408 
         500     0.213332   0.00250541 -2.18178e-05     -26.3408 
         500     0.333332   0.00291729 -2.66216e-05     -26.3408 
         500         0.48   0.00292013 -1.70334e-05     -26.3408 
         500     0.653331    0.0026955   7.9159e-06     -26.3408 
         500     0.853332   0.00240239  4.25371e-05     -26.3408 
         500         1.08   0.00208242  8.05422e-05     -26.3408 
         500      1.33333   0.00175213   0.00011992     -26.3408 
         500      1.61333   0.00142645  0.000160726     -26.3408 
         500         1.92   0.00107186  0.000200639     -26.3408 
         500      2.25333   0.00069052  0.000236389     -26.3409 
         500      2.61333  0.000305286  0.000265476     -26.3409 
         500            3 -5.32319e-05  0.000286103     -26.3409 
         550            0            0            0     -23.8642 
         550     0.013333 -0.000544549 -5.25177e-08     -23.8642 
         550     0.053333  -0.00187987 -1.60336e-06     -23.8642 
         550         0.12  -0.00334095 -1.25881e-05     -23.8642 
         550     0.213332  -0.00420274  -5.0153e-05     -23.8642 
         550     0.333332  -0.00422662  -0.00013147     -23.8642 
         550         0.48  -0.00377012 -0.000260723     -23.8642 
         550     0.653331  -0.00333959 -0.000427837     -23.8642 
         550     0.853332  -0.00314301 -0.000616231     -23.8642 
         550         1.08  -0.00301279 -0.000806953     -23.8642 
         550      1.33333  -0.00267923 -0.000982797     -23.8642 
         550      1.61333  -0.00214325  -0.00113664     -23.8642 
         550         1.92  -0.00158898  -0.00126804     -23.8642 
         550      2.25333  -0.00103492  -0.00137044     -23.8642 
         550      2.61333 -0.000481368  -0.00143596     -23.8641 
         550            3  3.88686e-05  -0.00145869     -23.8641 
         600            0  2.90889e-19   9.4943e-27      -21.384 
         600     0.013333   0.00043341   6.0916e-07      -21.384 
         600     0.053333   0.00139441  9.70119e-06      -21.384 
         600         0.12    0.0020328  4.74129e-05      -21.384 
         600     0.213332   0.00177717  0.000137591      -21.384 
         600     0.333332  0.000805333  0.000291898      -21.384 
         600         0.48 -0.000227227  0.000502772      -21.384 
         600     0.653331 -0.000811629  0.000753574      -21.384 
         600     0.853332 -0.000836341   0.00103077      -21.384 
         600         1.08 -0.000495252   0.00132222      -21.384 
         600      1.33333 -0.000167404   0.00160891      -21.384 
         600      1.61333 -9.90803e-05   0.00187019      -21.384 
         600         1.92 -0.000124335   0.00209499      -21.384 
         600      2.25333  -0.00013539   0.00227342      -21.384 
         600      2.61333 -0.000126463   0.00239359      -21.384 
         600            3 -0.000112751   0.00244514      -21.384 
         650            0 -3.59163e-19 -1.95147e-27     -18.9046 
         650     0.013333 -0.000437106 -5.32682e-07     -18.9046 
         650     0.053333  -0.00137546 -8.38311e-06     -18.9046 
         650         0.12  -0.00210042 -4.04338e-05     -18.9046 
         650     0.213332  -0.00208574 -0.000116244     -18.9046 
         650     0.333332  -0.00141071 -0.000245933     -18.9046 
         650         0.48 -0.000566405  -0.00042538     -18.9046 
         650     0.653331   1.4563e-05  -0.00064387     -18.9046 
         650     0.853332  0.000160279 -0.000893197     -18.9046 
         650         1.08 -7.51495e-05  -0.00116614     -18.9046 
         650      1.33333 -0.000409045  -0.00144728     -18.9046 
         650      1.61333 -0.000523353  -0.00171398     -18.9046 
         650         1.92 -0.000454319     -0.00195     -18.9046 
         650      2.25333 -0.000350358  -0.00214525     -18.9046 
         650      2.61333   -0.0002531  -0.00228804     -18.9046 
         650            3 -0.000149259  -0.00236748     -18.9046 
         700            0           -0           -0     -16.4233 
         700     0.013333   0.00010488 -1.97828e-07     -16.4233 
         700     0.053333  0.000492149 -2.96293e-06     -16.4233 
         700         0.12   0.00117331 -1.33472e-05     -16.4233 
         700     0.213332   0.00205016 -3.54472e-05     -16.4233 
         700     0.333332    0.0028853 -6.84908e-05     -16.4233 
         700         0.48   0.00344948 -0.000106429     -16.4233 
         700     0.653331   0.00367815 -0.000141839     -16.4233 
         700     0.853332   0.00366809 -0.000169888     -16.4233 
         700         1.08   0.00354997  -0.00018916     -16.4233 
         700      1.33333   0.00336235 -0.000201796     -16.4233 
         700      1.61333   0.00304105 -0.000212928     -16.4233 
         700         1.92   0.00257231  -0.00022532     -16.4234 
         700      2.25333   0.00202408 -0.000236828     -16.4234 
         700      2.61333   0.00143764 -0.000245247     -16.4234 
         700            3  0.000834448 -0.000249177     -16.4234 
         750            0            0            0     -13.9433 
         750     0.013333   0.00045642  3.71337e-07     -13.9433 
         750     0.053333   0.00155754  6.10989e-06     -13.9433 
         750         0.12   0.00256025  3.11903e-05     -13.9433 
         750     0.213332   0.00284323   9.4825e-05     -13.9433 
         750     0.333332   0.00235983  0.000210291     -13.9433 
         750         0.48   0.00157699  0.000376534     -13.9433 
         750     0.653331   0.00099987  0.000582231     -13.9433 
         750     0.853332  0.000841187  0.000815086     -13.9433 
         750         1.08  0.000996321   0.00106313     -13.9433 
         750      1.33333   0.00114985   0.00131041     -13.9433 
         750      1.61333    0.0010695   0.00154112     -13.9433 
         750         1.92  0.000860471   0.00174772     -13.9433 
         750      2.25333  0.000636196   0.00192339     -13.9433 
         750      2.61333  0.000417016   0.00205835     -13.9434 
         750            3  0.000193797   0.00214231     -13.9434 
         800            0            0            0     -11.4639 
         800     0.013333 -0.000330385 -1.97369e-07     -11.4639 
         800     0.053333  -0.00108486 -3.36607e-06     -11.4639 
         800         0.12  -0.00181003 -1.78249e-05     -11.4639 
         800     0.213332  -0.00209246   -5.563e-05     -11.4639 
         800     0.333332  -0.00189234 -0.000125086     -11.4639 
         800         0.48  -0.00151212 -0.000224917     -11.4639 
         800     0.653331  -0.00127592 -0.000347374     -11.4639 
         800     0.853332  -0.00130985 -0.000484694     -11.4639 
         800         1.08  -0.00152095 -0.000628912     -11.4639 
         800      1.33333   -0.0016439 -0.000767331     -11.4639 
         800      1.61333   -0.0014802 -0.000887021     -11.4639 
         800         1.92  -0.00117385 -0.000985771     -11.4639 
         800      2.25333 -0.000872733  -0.00106485     -11.4638 
         800      2.61333 -0.000594293  -0.00112124     -11.4638 
         800            3 -0.000311676   -0.0011499     -11.4638 
         850            0           -0           -0     -8.98246 
         850     0.013333  0.000237403  1.93631e-07     -8.98246 
         850     0.053333  0.000828929  3.18191e-06     -8.98246 
         850         0.12   0.00137878  1.61793e-05     -8.98246 
         850     0.213332   0.00156472  4.88441e-05     -8.98246 
         850     0.333332   0.00136492  0.000107356     -8.98246 
         850         0.48   0.00101729  0.000190572     -8.98246 
         850     0.653331  0.000774828   0.00029303     -8.98246 
         850     0.853332  0.000754167  0.000409976     -8.98246 
         850         1.08  0.000921182  0.000536853     -8.98246 
         850      1.33333    0.0010856  0.000664311     -8.98246 
         850      1.61333    0.0010442  0.000780227     -8.98246 
         850         1.92  0.000853657   0.00087987     -8.98246 
         850      2.25333   0.00064989  0.000963301     -8.98247 
         850      2.61333  0.000463099   0.00102772     -8.98247 
         850            3  0.000271541   0.00106839     -8.98248 
         900            0           -0           -0     -6.50161 
         900     0.013333 -2.48662e-06 -2.49566e-07     -6.50161 
         900     0.053333  0.000111996 -3.78581e-06     -6.50161 
         900         0.12  0.000465511 -1.72688e-05     -6.50161 
         900     0.213332   0.00104574 -4.62075e-05     -6.50161 
         900     0.333332   0.00162728  -8.9644e-05     -6.50161 
         900         0.48   0.00195872 -0.000140502     -6.50161 
         900     0.653331    0.0019646 -0.000192078     -6.50161 
         900     0.853332   0.00172149 -0.000242849     -6.50161 
         900         1.08   0.00133939 -0.000293945     -6.50161 
         900      1.33333  0.000966987 -0.000342226     -6.50161 
         900      1.61333  0.000754835 -0.000380406     -6.50161 
         900         1.92  0.000650863 -0.000406107     -6.50161 
         900      2.25333  0.000534292 -0.000422264     -6.50162 
         900      2.61333  0.000377957 -0.000429479     -6.50163 
         900            3  0.000209846 -0.000426541     -6.50164 
         950            0           -0           -0     -4.02072 
         950     0.013333  0.000365516  4.16948e-07     -4.02072 
         950     0.053333   0.00121319  6.67858e-06     -4.02072 
         950         0.12    0.0018628  3.30471e-05     -4.02071 
         950     0.213332   0.00178624   9.7708e-05     -4.02071 
         950     0.333332   0.00101361  0.000211929     -4.02071 
         950         0.48  4.03578e-05  0.000372929     -4.02071 
         950     0.653331 -0.000640238   0.00056868     -4.02071 
         950     0.853332 -0.000833727   0.00078787     -4.02071 
         950         1.08 -0.000621761   0.00102225     -4.02071 
         950      1.33333 -0.000282054   0.00126033     -4.02071 
         950      1.61333 -0.000116328   0.00148655     -4.02071 
         950         1.92 -0.000135461   0.00169118     -4.02071 
         950      2.25333 -0.000171442    0.0018703     -4.02072 
         950      2.61333 -0.000169317   0.00201729     -4.02072 
         950            3 -0.000158926   0.00212304     -4.02072 
        1000            0           -0           -0      -1.5404 
        1000     0.013333 -0.000423182  2.19464e-07      -1.5404 
        1000     0.053333  -0.00155879  2.83237e-06      -1.5404 
        1000         0.12   -0.0030946  9.68721e-06      -1.5404 
        1000     0.213332  -0.00450071  1.59324e-05      -1.5404 
        1000     0.333332  -0.00534339  1.04529e-05      -1.5404 
        1000         0.48  -0.00558082 -1.59309e-05      -1.5404 
        1000     0.653331  -0.00549641  -6.3982e-05      -1.5404 
        1000     0.853332  -0.00537263 -0.000126739     -1.54041 
        1000         1.08  -0.00524956 -0.000192628     -1.54041 
        1000      1.33333  -0.00493948 -0.000248191     -1.54041 
        1000      1.61333  -0.00431954 -0.000285345      -1.5404 
        1000         1.92    -0.003576 -0.000309106     -1.54039 
        1000      2.25333   -0.0028468 -0.000326123     -1.54038 
        1000      2.61333  -0.00212715 -0.000337927     -1.54035 
        1000            3  -0.00137855 -0.000342649     -1.54031 
