Variables = x, y, u, v, p

Zone, I=416, F=POINT
         -50            0  -1.7847e-19 -3.09954e-23     -59.6655 
         -50     0.013333 -0.000153196 -6.20909e-08     -59.6655 
         -50     0.053333 -0.000137363 -2.95458e-07     -59.6655 
         -50         0.12 -0.000122101 -9.00243e-07     -59.6655 
         -50     0.213332 -0.000104989 -1.94772e-06     -59.6655 
         -50     0.333332 -9.04756e-05 -2.93455e-06     -59.6654 
         -50         0.48 -7.99502e-05 -4.57304e-06     -59.6653 
         -50     0.653331 -7.60165e-05 -6.40771e-06     -59.6651 
         -50     0.853332 -7.99062e-05 -7.42509e-06     -59.6648 
         -50         1.08 -9.11686e-05 -9.41679e-06     -59.6644 
         -50      1.33333 -0.000107936   -1.099e-05     -59.6638 
         -50      1.61333 -0.000124388 -1.24323e-05      -59.663 
         -50         1.92 -0.000131381 -1.21471e-05     -59.6619 
         -50      2.25333 -0.000135586 -1.22546e-05     -59.6606 
         -50      2.61333  -0.00013651 -8.97787e-06     -59.6588 
         -50            3 -0.000132823 -4.85911e-08     -59.6567 
         -25            0           -0           -0     -57.2606 
         -25     0.013333 -0.000110455 -1.17802e-08     -57.2606 
         -25     0.053333  -9.9154e-05  4.05862e-08     -57.2606 
         -25         0.12 -9.57118e-05   3.3032e-07     -57.2606 
         -25     0.213332 -9.77447e-05  1.01525e-06     -57.2606 
         -25     0.333332 -0.000101581  2.12917e-06     -57.2606 
         -25         0.48  -0.00010229   3.6103e-06     -57.2605 
         -25     0.653331 -9.92558e-05  5.40894e-06     -57.2604 
         -25     0.853332 -9.49982e-05  7.14679e-06     -57.2603 
         -25         1.08 -9.35986e-05  8.84024e-06     -57.2602 
         -25      1.33333 -9.57702e-05  1.00518e-05     -57.2599 
         -25      1.61333 -0.000100016  1.06944e-05     -57.2596 
         -25         1.92 -0.000104898  1.02145e-05     -57.2592 
         -25      2.25333 -0.000111057  8.85555e-06     -57.2587 
         -25      2.61333 -0.000115805   7.3747e-06      -57.258 
         -25            3 -0.000116863  6.15353e-06     -57.2572 
           0            0            0            0     -55.3151 
           0     0.013333 -0.000222821  0.000160873     -55.3172 
           0     0.053333 -0.000171067  7.78391e-05     -55.3202 
           0         0.12 -0.000162497   5.3731e-05     -55.3235 
           0     0.213332 -0.000172155  4.07164e-05      -55.327 
           0     0.333332 -0.000185744  3.38807e-05     -55.3305 
           0         0.48 -0.000194607  2.91288e-05     -55.3339 
           0     0.653331 -0.000199454  2.58445e-05     -55.3371 
           0     0.853332 -0.000197573  2.35701e-05     -55.3403 
           0         1.08 -0.000186034   2.2129e-05     -55.3432 
           0      1.33333  -0.00016741  2.11915e-05      -55.346 
           0      1.61333 -0.000145268  2.03505e-05     -55.3486 
           0         1.92 -0.000120679  1.94523e-05     -55.3509 
           0      2.25333 -9.59176e-05  1.83666e-05     -55.3531 
           0      2.61333 -8.05408e-05  1.57431e-05      -55.355 
           0            3 -7.89531e-05  1.18312e-05     -55.3567 
          20            0            0            0     -54.0601 
          20     0.013333 -5.43901e-05  4.43177e-09     -54.0601 
          20     0.053333  2.92114e-05  2.43374e-07     -54.0601 
          20         0.12  0.000103854  1.65887e-06     -54.0601 
          20     0.213332  0.000133289  5.85149e-06     -54.0601 
          20     0.333332  0.000122173  1.39367e-05     -54.0601 
          20         0.48  9.86216e-05  2.56021e-05     -54.0601 
          20     0.653331  7.52539e-05  3.95133e-05       -54.06 
          20     0.853332  5.45265e-05  5.44933e-05       -54.06 
          20         1.08  2.96543e-05  6.92545e-05     -54.0599 
          20      1.33333 -6.23943e-06  8.17597e-05     -54.0598 
          20      1.61333 -4.62417e-05  9.06726e-05     -54.0597 
          20         1.92 -8.62558e-05  9.49634e-05     -54.0595 
          20      2.25333 -0.000117661  9.45807e-05     -54.0593 
          20      2.61333 -0.000132395  9.07246e-05      -54.059 
          20            3 -0.000131692  8.46251e-05     -54.0586 
          40            0            0            0     -52.8145 
          40     0.013333  -6.9185e-05  5.36267e-10     -52.8145 
          40     0.053333 -3.28447e-05  7.28383e-08     -52.8145 
          40         0.12  3.00308e-06  4.77142e-07     -52.8145 
          40     0.213332  2.99358e-05  1.56126e-06     -52.8145 
          40     0.333332  4.85986e-05  3.47192e-06     -52.8145 
          40         0.48  6.49638e-05  6.14985e-06     -52.8145 
          40     0.653331  7.96266e-05  9.41089e-06     -52.8145 
          40     0.853332  8.38455e-05  1.26125e-05     -52.8145 
          40         1.08  6.59069e-05  1.48617e-05     -52.8144 
          40      1.33333   2.9391e-05  1.57467e-05     -52.8144 
          40      1.61333  -1.3309e-05  1.55485e-05     -52.8143 
          40         1.92 -5.47133e-05   1.4421e-05     -52.8143 
          40      2.25333 -8.89962e-05  1.23143e-05     -52.8142 
          40      2.61333 -0.000113412  9.76793e-06      -52.814 
          40            3 -0.000126231  7.97556e-06     -52.8139 
          60            0           -0           -0     -51.6291 
          60     0.013333 -8.84936e-05  2.45542e-08     -51.6291 
          60     0.053333 -0.000115347   3.7217e-07     -51.6291 
          60         0.12 -0.000166136  1.54033e-06     -51.6291 
          60     0.213332 -0.000221438  3.58846e-06     -51.6291 
          60     0.333332 -0.000260331  5.89002e-06     -51.6291 
          60         0.48 -0.000276614  7.67743e-06     -51.6291 
          60     0.653331 -0.000277052  8.70165e-06     -51.6291 
          60     0.853332 -0.000263974  9.32383e-06     -51.6291 
          60         1.08 -0.000237012  9.77804e-06     -51.6291 
          60      1.33333 -0.000201956  9.95107e-06     -51.6291 
          60      1.61333 -0.000163265  9.64203e-06      -51.629 
          60         1.92 -0.000123601  8.76379e-06      -51.629 
          60      2.25333  -8.8057e-05  7.59728e-06     -51.6289 
          60      2.61333 -6.31095e-05  5.93788e-06     -51.6288 
          60            3 -5.08296e-05  4.32168e-06     -51.6287 
          80            0           -0           -0     -50.4796 
          80     0.013333 -5.59269e-05  3.22472e-08     -50.4796 
          80     0.053333 -7.80354e-06  5.35116e-07     -50.4796 
          80         0.12  1.83759e-05  2.63707e-06     -50.4796 
          80     0.213332  1.32525e-06  7.63641e-06     -50.4796 
          80     0.333332 -4.50355e-05  1.61018e-05     -50.4796 
          80         0.48 -8.83868e-05  2.76523e-05     -50.4796 
          80     0.653331 -0.000107617  4.15414e-05     -50.4796 
          80     0.853332 -0.000102245  5.68371e-05     -50.4796 
          80         1.08 -9.03221e-05  7.20862e-05     -50.4796 
          80      1.33333 -8.65378e-05  8.55976e-05     -50.4795 
          80      1.61333 -8.77672e-05  9.61064e-05     -50.4795 
          80         1.92 -8.84194e-05  0.000102732     -50.4795 
          80      2.25333 -8.83971e-05   0.00010448     -50.4795 
          80      2.61333  -9.0826e-05  0.000101682     -50.4794 
          80            3 -9.43263e-05   9.6292e-05     -50.4793 
         100            0            0            0     -49.3528 
         100     0.013333 -4.74442e-05 -2.47553e-08     -49.3528 
         100     0.053333  3.30983e-05 -2.91528e-07     -49.3528 
         100         0.12  0.000128375 -8.65175e-07     -49.3528 
         100     0.213332    0.0002005  -9.9754e-07     -49.3528 
         100     0.333332  0.000229972  4.84252e-07     -49.3528 
         100         0.48  0.000229707  4.13703e-06     -49.3528 
         100     0.653331  0.000217972  9.51404e-06     -49.3528 
         100     0.853332    0.0001955  1.54054e-05     -49.3528 
         100         1.08  0.000154224  2.07561e-05     -49.3528 
         100      1.33333  9.94494e-05  2.50294e-05     -49.3528 
         100      1.61333  4.01287e-05   2.8272e-05     -49.3528 
         100         1.92 -2.34269e-05  3.02032e-05     -49.3528 
         100      2.25333  -8.2782e-05  3.05095e-05     -49.3527 
         100      2.61333 -0.000126279  2.95415e-05     -49.3527 
         100            3 -0.000149649  2.68283e-05     -49.3527 
         150            0           -0           -0     -46.5899 
         150     0.013333 -0.000100892    3.142e-08     -46.5899 
         150     0.053333 -0.000168232  3.85576e-07     -46.5899 
         150         0.12 -0.000252166  1.15952e-06     -46.5899 
         150     0.213332 -0.000304083  1.36026e-06     -46.5899 
         150     0.333332 -0.000303863 -5.13514e-07     -46.5899 
         150         0.48 -0.000272167 -4.93104e-06     -46.5899 
         150     0.653331 -0.000235887 -1.09116e-05     -46.5899 
         150     0.853332 -0.000198484 -1.68874e-05     -46.5899 
         150         1.08 -0.000158033 -2.22111e-05     -46.5899 
         150      1.33333 -0.000123001 -2.71166e-05     -46.5899 
         150      1.61333  -9.1992e-05 -3.16456e-05     -46.5899 
         150         1.92 -5.95524e-05 -3.52063e-05     -46.5899 
         150      2.25333 -3.11717e-05 -3.74114e-05     -46.5898 
         150      2.61333 -1.37294e-05 -3.83217e-05     -46.5898 
         150            3 -1.04256e-05 -3.80738e-05     -46.5898 
         200            0 -2.10314e-19 -1.23189e-25     -43.8611 
         200     0.013333 -0.000127866 -4.21958e-08     -43.8611 
         200     0.053333 -0.000248039 -7.23471e-07     -43.8611 
         200         0.12 -0.000355032 -3.82765e-06     -43.8611 
         200     0.213332 -0.000380381 -1.18255e-05     -43.8611 
         200     0.333332 -0.000331176 -2.62283e-05     -43.8611 
         200         0.48  -0.00026327 -4.66605e-05     -43.8611 
         200     0.653331 -0.000222736 -7.16571e-05     -43.8611 
         200     0.853332 -0.000216017   -9.937e-05     -43.8611 
         200         1.08 -0.000214405 -0.000127316     -43.8611 
         200      1.33333  -0.00019055 -0.000152591     -43.8611 
         200      1.61333 -0.000152477 -0.000173357     -43.8611 
         200         1.92 -0.000113266 -0.000188333     -43.8611 
         200      2.25333 -7.52823e-05 -0.000195755     -43.8611 
         200      2.61333 -4.20411e-05 -0.000195302     -43.8611 
         200            3 -1.83504e-05 -0.000187625     -43.8611 
         250            0           -0           -0     -41.1448 
         250     0.013333 -0.000137314   5.1125e-08     -41.1448 
         250     0.053333 -0.000306987  6.40701e-07     -41.1448 
         250         0.12 -0.000528627  2.06484e-06     -41.1448 
         250     0.213332 -0.000707952  2.98501e-06     -41.1448 
         250     0.333332 -0.000787761  9.05336e-07     -41.1448 
         250         0.48 -0.000784578 -5.75779e-06     -41.1448 
         250     0.653331 -0.000748875 -1.65734e-05     -41.1448 
         250     0.853332 -0.000702259 -2.95098e-05     -41.1448 
         250         1.08 -0.000629627  -4.2215e-05     -41.1448 
         250      1.33333 -0.000524539 -5.31899e-05     -41.1448 
         250      1.61333 -0.000405627 -6.23853e-05     -41.1448 
         250         1.92 -0.000281585 -6.96949e-05     -41.1448 
         250      2.25333 -0.000157135 -7.41701e-05     -41.1448 
         250      2.61333 -4.31043e-05 -7.56815e-05     -41.1448 
         250            3  4.72083e-05 -7.42116e-05     -41.1447 
         300            0           -0           -0     -38.4328 
         300     0.013333 -5.33816e-05  1.11827e-07     -38.4328 
         300     0.053333 -2.83086e-05  1.67995e-06     -38.4328 
         300         0.12 -7.67692e-05  7.57645e-06     -38.4328 
         300     0.213332 -0.000211354  2.01604e-05     -38.4328 
         300     0.333332 -0.000372432  3.94631e-05     -38.4328 
         300         0.48 -0.000490755   6.3667e-05     -38.4328 
         300     0.653331 -0.000538989  9.11289e-05     -38.4328 
         300     0.853332  -0.00051877   0.00012129     -38.4328 
         300         1.08  -0.00044791  0.000153387     -38.4328 
         300      1.33333 -0.000364437  0.000185056     -38.4328 
         300      1.61333 -0.000292441  0.000213221     -38.4328 
         300         1.92 -0.000220912   0.00023567     -38.4328 
         300      2.25333 -0.000146961  0.000250493     -38.4328 
         300      2.61333 -7.90587e-05  0.000256269     -38.4328 
         300            3 -2.70937e-05  0.000252813     -38.4327 
         350            0           -0           -0     -35.7224 
         350     0.013333 -4.94048e-05  -5.9805e-08     -35.7224 
         350     0.053333   3.3752e-05 -8.57111e-07     -35.7224 
         350         0.12  0.000167963 -3.60105e-06     -35.7224 
         350     0.213332  0.000321457 -8.76413e-06     -35.7224 
         350     0.333332   0.00044276 -1.54527e-05     -35.7224 
         350         0.48  0.000505917 -2.21773e-05     -35.7224 
         350     0.653331  0.000519652 -2.80788e-05     -35.7224 
         350     0.853332  0.000500594 -3.33658e-05     -35.7224 
         350         1.08  0.000452108 -3.87906e-05     -35.7224 
         350      1.33333  0.000375768 -4.47607e-05     -35.7224 
         350      1.61333   0.00028462 -5.07283e-05     -35.7224 
         350         1.92  0.000187501 -5.57818e-05     -35.7224 
         350      2.25333  8.46113e-05 -5.94602e-05     -35.7224 
         350      2.61333 -1.64273e-05 -6.13121e-05     -35.7225 
         350            3 -0.000102573 -6.12131e-05     -35.7225 
         400            0           -0           -0     -33.0136 
         400     0.013333 -0.000139734  3.08774e-08     -33.0136 
         400     0.053333 -0.000312082  3.49879e-07     -33.0136 
         400         0.12 -0.000529116  8.35603e-07     -33.0136 
         400     0.213332 -0.000696258 -6.18581e-08     -33.0136 
         400     0.333332 -0.000762111 -4.67274e-06     -33.0136 
         400         0.48 -0.000748742 -1.42427e-05     -33.0136 
         400     0.653331 -0.000710776 -2.81084e-05     -33.0136 
         400     0.853332 -0.000674064 -4.42933e-05     -33.0136 
         400         1.08 -0.000622562  -6.0389e-05     -33.0136 
         400      1.33333 -0.000538814  -7.4685e-05     -33.0136 
         400      1.61333 -0.000436366 -8.68813e-05     -33.0136 
         400         1.92 -0.000329872 -9.70909e-05     -33.0136 
         400      2.25333 -0.000219728 -0.000104383     -33.0136 
         400      2.61333 -0.000111591 -0.000108233     -33.0136 
         400            3 -1.73044e-05  -0.00010842     -33.0136 
         450            0 -7.22412e-20 -1.83365e-27      -30.305 
         450     0.013333 -4.10446e-05  9.33757e-08      -30.305 
         450     0.053333  1.85998e-05  1.43962e-06      -30.305 
         450         0.12  1.48458e-05  6.72777e-06      -30.305 
         450     0.213332 -8.54602e-05  1.85835e-05      -30.305 
         450     0.333332 -0.000232859  3.75747e-05      -30.305 
         450         0.48 -0.000348517  6.20332e-05      -30.305 
         450     0.653331 -0.000393566  8.98678e-05      -30.305 
         450     0.853332 -0.000372904  0.000119857      -30.305 
         450         1.08 -0.000313878  0.000150933      -30.305 
         450      1.33333 -0.000254931  0.000181058      -30.305 
         450      1.61333 -0.000215288  0.000207892      -30.305 
         450         1.92 -0.000179434  0.000230061      -30.305 
         450      2.25333 -0.000139837  0.000246069      -30.305 
         450      2.61333 -9.89095e-05  0.000254594      -30.305 
         450            3 -6.16624e-05   0.00025487      -30.305 
         500            0            0            0     -27.5968 
         500     0.013333 -4.96896e-05 -1.06914e-07     -27.5968 
         500     0.053333  4.61665e-05 -1.54531e-06     -27.5968 
         500         0.12  0.000226962 -6.58567e-06     -27.5968 
         500     0.213332  0.000457297 -1.63752e-05     -27.5968 
         500     0.333332  0.000656908 -2.97843e-05     -27.5968 
         500         0.48  0.000774983 -4.46308e-05     -27.5968 
         500     0.653331  0.000815145 -5.97355e-05     -27.5968 
         500     0.853332  0.000795853 -7.56553e-05     -27.5968 
         500         1.08  0.000718506 -9.36938e-05     -27.5968 
         500      1.33333  0.000594859 -0.000113791     -27.5968 
         500      1.61333  0.000463187 -0.000133752     -27.5968 
         500         1.92  0.000338037 -0.000151293     -27.5968 
         500      2.25333  0.000207689  -0.00016523     -27.5968 
         500      2.61333  7.27178e-05 -0.000174575     -27.5968 
         500            3 -5.34943e-05  -0.00017854     -27.5968 
         550            0           -0           -0     -24.8897 
         550     0.013333 -6.23672e-05  1.82057e-08     -24.8897 
         550     0.053333 -3.42079e-05  2.77897e-07     -24.8897 
         550         0.12 -1.73968e-05  1.30095e-06     -24.8897 
         550     0.213332 -2.45688e-05  3.68726e-06     -24.8897 
         550     0.333332 -5.43054e-05  7.83538e-06     -24.8897 
         550         0.48 -9.20293e-05  1.37631e-05     -24.8897 
         550     0.653331 -0.000123801  2.11624e-05     -24.8897 
         550     0.853332 -0.000142708  2.96813e-05     -24.8897 
         550         1.08 -0.000146121  3.91906e-05     -24.8897 
         550      1.33333 -0.000133538  4.96863e-05     -24.8897 
         550      1.61333 -0.000113281  6.06839e-05     -24.8897 
         550         1.92 -9.74487e-05  7.11735e-05     -24.8897 
         550      2.25333 -8.38687e-05  8.02461e-05     -24.8897 
         550      2.61333 -7.00227e-05  8.72826e-05     -24.8897 
         550            3 -5.67688e-05  9.17942e-05     -24.8897 
         600            0           -0           -0     -22.1829 
         600     0.013333 -0.000115384 -4.55757e-09     -22.1829 
         600     0.053333  -0.00021686 -1.25109e-07     -22.1829 
         600         0.12 -0.000333079 -9.44071e-07     -22.1829 
         600     0.213332 -0.000404084 -3.72842e-06     -22.1829 
         600     0.333332 -0.000407088 -9.82464e-06     -22.1829 
         600         0.48 -0.000365422 -1.97092e-05     -22.1829 
         600     0.653331 -0.000319805 -3.27944e-05     -22.1829 
         600     0.853332 -0.000292333 -4.79572e-05     -22.1829 
         600         1.08 -0.000276703 -6.38652e-05     -22.1829 
         600      1.33333 -0.000253617  -7.9228e-05     -22.1829 
         600      1.61333 -0.000217854 -9.32525e-05     -22.1829 
         600         1.92  -0.00017934 -0.000105692     -22.1829 
         600      2.25333 -0.000139873 -0.000116013     -22.1829 
         600      2.61333 -9.93773e-05 -0.000123388     -22.1829 
         600            3 -5.99465e-05 -0.000127167     -22.1829 
         650            0            0            0     -19.4762 
         650     0.013333 -4.00868e-05 -3.76839e-08     -19.4762 
         650     0.053333  6.39048e-05 -5.34824e-07     -19.4762 
         650         0.12   0.00021721 -2.20909e-06     -19.4762 
         650     0.213332  0.000382396 -5.22699e-06     -19.4762 
         650     0.333332   0.00050963 -8.77943e-06     -19.4762 
         650         0.48  0.000573779 -1.15899e-05     -19.4762 
         650     0.653331  0.000584866 -1.28016e-05     -19.4762 
         650     0.853332  0.000567975 -1.23527e-05     -19.4762 
         650         1.08  0.000536608 -1.08725e-05     -19.4762 
         650      1.33333  0.000486603 -9.19076e-06     -19.4762 
         650      1.61333  0.000413452 -8.00463e-06     -19.4762 
         650         1.92  0.000326807 -7.11277e-06     -19.4762 
         650      2.25333  0.000232078 -6.28623e-06     -19.4762 
         650      2.61333  0.000131635 -5.50066e-06     -19.4763 
         650            3  3.01747e-05 -4.73636e-06     -19.4763 
         700            0            0            0     -16.7704 
         700     0.013333 -3.27485e-05  6.89194e-08     -16.7704 
         700     0.053333  5.56951e-05  1.07682e-06     -16.7704 
         700         0.12  0.000101828  5.14919e-06     -16.7704 
         700     0.213332  5.40705e-05  1.46806e-05     -16.7704 
         700     0.333332 -6.69672e-05  3.07998e-05     -16.7704 
         700         0.48 -0.000193361  5.27661e-05     -16.7704 
         700     0.653331 -0.000272273  7.89621e-05     -16.7704 
         700     0.853332  -0.00028921  0.000108151     -16.7704 
         700         1.08 -0.000257591  0.000139431     -16.7704 
         700      1.33333 -0.000209631  0.000171331     -16.7704 
         700      1.61333 -0.000175539  0.000201813     -16.7704 
         700         1.92 -0.000155282   0.00022948     -16.7704 
         700      2.25333 -0.000135735  0.000252922     -16.7703 
         700      2.61333 -0.000112605  0.000270769     -16.7703 
         700            3 -8.81791e-05  0.000281686     -16.7703 
         750            0           -0           -0     -14.0646 
         750     0.013333 -0.000117904 -1.87235e-08     -14.0646 
         750     0.053333 -0.000223261 -3.27212e-07     -14.0646 
         750         0.12 -0.000339685 -1.78268e-06     -14.0646 
         750     0.213332 -0.000409312 -5.72429e-06     -14.0646 
         750     0.333332 -0.000416299 -1.32463e-05     -14.0646 
         750         0.48 -0.000386275 -2.45245e-05     -14.0646 
         750     0.653331 -0.000356346 -3.89727e-05     -14.0646 
         750     0.853332 -0.000347293  -5.5837e-05     -14.0646 
         750         1.08 -0.000356536 -7.42242e-05     -14.0646 
         750      1.33333 -0.000360053 -9.27322e-05     -14.0646 
         750      1.61333 -0.000334808 -0.000109694     -14.0646 
         750         1.92 -0.000289134  -0.00012431     -14.0646 
         750      2.25333 -0.000238782 -0.000136463     -14.0646 
         750      2.61333 -0.000187429 -0.000145513     -14.0646 
         750            3 -0.000133732 -0.000150689     -14.0646 
         800            0            0            0     -11.3591 
         800     0.013333 -6.22022e-05 -2.74574e-09     -11.3591 
         800     0.053333 -2.76674e-05 -2.71393e-08     -11.3591 
         800         0.12  1.11393e-05 -3.21582e-08     -11.3591 
         800     0.213332  4.24843e-05  1.87819e-07     -11.3591 
         800     0.333332  5.84591e-05   9.0923e-07     -11.3591 
         800         0.48  6.20781e-05  2.27573e-06     -11.3591 
         800     0.653331  6.08338e-05  4.23814e-06     -11.3591 
         800     0.853332   6.0515e-05  6.63221e-06     -11.3591 
         800         1.08  6.11462e-05  9.21262e-06     -11.3591 
         800      1.33333  5.66757e-05  1.15831e-05     -11.3591 
         800      1.61333  4.17393e-05  1.33438e-05     -11.3591 
         800         1.92  2.08913e-05  1.44764e-05     -11.3591 
         800      2.25333 -5.04427e-07  1.52145e-05     -11.3591 
         800      2.61333 -2.20507e-05  1.55568e-05     -11.3591 
         800            3 -4.47053e-05  1.54358e-05     -11.3591 
         850            0           -0           -0     -8.65412 
         850     0.013333 -7.43243e-05  1.14062e-09     -8.65412 
         850     0.053333 -7.22376e-05   1.5313e-08     -8.65412 
         850         0.12 -7.45388e-05  5.81772e-08     -8.65412 
         850     0.213332 -7.76507e-05  1.24747e-07     -8.65412 
         850     0.333332 -8.01953e-05  1.90181e-07     -8.65412 
         850         0.48 -8.11769e-05  2.33384e-07     -8.65412 
         850     0.653331 -8.13938e-05  2.51787e-07     -8.65412 
         850     0.853332 -8.14587e-05  2.60752e-07     -8.65412 
         850         1.08 -8.13447e-05  2.84029e-07     -8.65412 
         850      1.33333 -8.03714e-05  3.70575e-07     -8.65412 
         850      1.61333 -7.80258e-05  5.46594e-07     -8.65412 
         850         1.92 -7.51227e-05  7.73282e-07     -8.65412 
         850      2.25333 -7.25812e-05  1.03283e-06     -8.65412 
         850      2.61333 -7.04812e-05  1.22305e-06     -8.65412 
         850            3 -6.86946e-05  1.36971e-06     -8.65412 
         900            0           -0           -0     -5.94939 
         900     0.013333  -7.3416e-05 -4.80924e-11     -5.94939 
         900     0.053333 -6.86709e-05 -5.41974e-10     -5.94939 
         900         0.12 -6.71616e-05 -1.73866e-09     -5.94939 
         900     0.213332 -6.65631e-05 -3.06939e-09     -5.94939 
         900     0.333332 -6.66352e-05 -2.98171e-09     -5.94939 
         900         0.48  -6.6542e-05 -4.75516e-10     -5.94939 
         900     0.653331 -6.64468e-05  3.22392e-09     -5.94939 
         900     0.853332 -6.63572e-05    1.289e-08     -5.94939 
         900         1.08 -6.62346e-05  1.99916e-08     -5.94939 
         900      1.33333 -6.61053e-05  2.61584e-08     -5.94939 
         900      1.61333 -6.61112e-05  6.07876e-08     -5.94939 
         900         1.92 -6.61202e-05 -6.55113e-08     -5.94939 
         900      2.25333 -6.62336e-05  9.79257e-09     -5.94939 
         900      2.61333 -6.63079e-05   5.7585e-08     -5.94939 
         900            3 -6.63195e-05 -8.65296e-08     -5.94939 
         950            0           -0           -0     -3.24497 
         950     0.013333 -7.34888e-05    8.089e-12     -3.24497 
         950     0.053333 -6.89011e-05  8.95988e-11     -3.24497 
         950         0.12 -6.76009e-05  2.99698e-10     -3.24497 
         950     0.213332 -6.71893e-05  5.96635e-10     -3.24497 
         950     0.333332 -6.73638e-05  7.54166e-10     -3.24497 
         950         0.48 -6.72943e-05  4.95446e-10     -3.24497 
         950     0.653331 -6.71993e-05 -1.14846e-09     -3.24497 
         950     0.853332 -6.71225e-05 -2.09974e-09     -3.24497 
         950         1.08 -6.70314e-05  -1.2826e-09     -3.24497 
         950      1.33333 -6.69038e-05  -1.8411e-09     -3.24497 
         950      1.61333 -6.67266e-05   1.3193e-08     -3.24497 
         950         1.92 -6.65665e-05 -4.21751e-08     -3.24497 
         950      2.25333 -6.64977e-05  3.14587e-08     -3.24497 
         950      2.61333 -6.64808e-05  8.35109e-08     -3.24497 
         950            3 -6.63818e-05  8.71106e-09     -3.24497 
        1000            0  -8.4994e-20 -9.95712e-27    -0.540815 
        1000     0.013333 -7.34927e-05  2.95908e-12    -0.540815 
        1000     0.053333 -6.88816e-05  7.48707e-11    -0.540815 
        1000         0.12 -6.75586e-05  2.41213e-10    -0.540815 
        1000     0.213332 -6.71294e-05  5.63384e-10    -0.540815 
        1000     0.333332 -6.73019e-05  1.03214e-09    -0.540815 
        1000         0.48 -6.72455e-05  1.86603e-09    -0.540815 
        1000     0.653331 -6.71695e-05  3.58121e-09    -0.540815 
        1000     0.853332 -6.71065e-05  4.22321e-09    -0.540815 
        1000         1.08  -6.7011e-05  3.71103e-09    -0.540815 
        1000      1.33333 -6.68758e-05  2.01632e-08    -0.540815 
        1000      1.61333 -6.67083e-05  2.57167e-08    -0.540815 
        1000         1.92  -6.6488e-05 -7.88829e-09    -0.540815 
        1000      2.25333 -6.63724e-05  3.70982e-08    -0.540815 
        1000      2.61333 -6.63943e-05   5.4916e-08    -0.540815 
        1000            3 -6.65372e-05 -1.13575e-08    -0.540815 
