Variables = x, y, u, v, p

Zone, I=800, F=POINT
         600            0            0            0 -4.08757e-05 
         600     0.000234  8.02056e-05  5.00375e-12 -4.08757e-05 
         600     0.000939  0.000321851  8.06066e-11 -4.08756e-05 
         600     0.002113   0.00072425  4.08196e-10 -4.08753e-05 
         600     0.003759   0.00128843  1.29188e-09  -4.0875e-05 
         600     0.005872   0.00201268  3.15248e-09 -4.08747e-05 
         600     0.008457   0.00289871  6.53902e-09 -4.08742e-05 
         600      0.01151   0.00394516  1.21124e-08 -4.08736e-05 
         600     0.015036   0.00515373  2.06702e-08  -4.0873e-05 
         600     0.019031   0.00652306  3.31134e-08 -4.08722e-05 
         600     0.023493   0.00805245  5.04613e-08 -4.08714e-05 
         600     0.028429   0.00974431  7.38933e-08 -4.08705e-05 
         600     0.033831    0.0115959  1.04644e-07 -4.08695e-05 
         600     0.039706    0.0136096  1.44144e-07 -4.08685e-05 
         600     0.046047    0.0157831  1.93859e-07 -4.08673e-05 
         600     0.052863    0.0181193  2.55499e-07 -4.08661e-05 
         600      0.06015     0.020617  3.30794e-07 -4.08647e-05 
         600       0.0679    0.0232734  4.21528e-07 -4.08633e-05 
         600     0.076126    0.0260929   5.2985e-07 -4.08618e-05 
         600     0.084816    0.0290715  6.57724e-07 -4.08602e-05 
         600     0.093982    0.0322132  8.07564e-07 -4.08585e-05 
         600     0.103611    0.0355136   9.8152e-07 -4.08568e-05 
         600     0.113718    0.0389778  1.18235e-06 -4.08549e-05 
         600     0.124286    0.0425999  1.41231e-06  -4.0853e-05 
         600     0.135333    0.0463862  1.67453e-06  -4.0851e-05 
         600      0.14685    0.0503335  1.97166e-06 -4.08489e-05 
         600     0.158827    0.0544384  2.30637e-06 -4.08467e-05 
         600     0.171284    0.0587077  2.68232e-06 -4.08444e-05 
         600     0.184201    0.0631344  3.10211e-06  -4.0842e-05 
         600     0.197599    0.0677259  3.56974e-06 -4.08396e-05 
         600     0.211455    0.0724741  4.08786e-06 -4.08371e-05 
         600     0.225792    0.0773868  4.66088e-06 -4.08344e-05 
         600       0.2406    0.0824606  5.29215e-06 -4.08317e-05 
         600     0.255865    0.0876906  5.98478e-06 -4.08289e-05 
         600     0.271613    0.0930855  6.74394e-06  -4.0826e-05 
         600     0.287818    0.0986365  7.57237e-06 -4.08231e-05 
         600     0.304506     0.104352  8.47552e-06   -4.082e-05 
         600      0.32165     0.110223  9.45619e-06 -4.08169e-05 
         600     0.339278     0.116259  1.05204e-05 -4.08136e-05 
         600     0.357377     0.122455  1.16719e-05 -4.08103e-05 
         600      0.37593     0.128805  1.29142e-05 -4.08069e-05 
         600     0.394968     0.135319  1.42539e-05 -4.08034e-05 
         600     0.414461     0.141988  1.56939e-05 -4.07998e-05 
         600      0.43444      0.14882  1.72412e-05 -4.07962e-05 
         600     0.454872     0.155805  1.88984e-05 -4.07924e-05 
         600     0.475791     0.162954  2.06733e-05 -4.07886e-05 
         600     0.497163     0.170254  2.25682e-05 -4.07846e-05 
         600     0.519021     0.177717  2.45914e-05 -4.07806e-05 
         600      0.54135     0.185336  2.67469e-05 -4.07765e-05 
         600     0.564131     0.193105  2.90382e-05 -4.07723e-05 
         600       0.5874     0.201035  3.14743e-05  -4.0768e-05 
         600     0.611121     0.209114  3.40577e-05 -4.07635e-05 
         600      0.63533     0.217351  3.67972e-05 -4.07591e-05 
         600      0.65999     0.225735   3.9694e-05 -4.07545e-05 
         600     0.685139     0.234276  4.27589e-05 -4.07498e-05 
         600     0.710759     0.242968  4.59958e-05  -4.0745e-05 
         600     0.736828     0.251802  4.94077e-05 -4.07401e-05 
         600     0.763387      0.26079  5.30056e-05 -4.07351e-05 
         600     0.790396     0.269917  5.67898e-05   -4.073e-05 
         600     0.817896     0.279196  6.07717e-05 -4.07248e-05 
         600     0.845843      0.28861  6.49505e-05 -4.07196e-05 
         600     0.874283     0.298172  6.93389e-05 -4.07142e-05 
         600      0.90317     0.307865  7.39354e-05 -4.07086e-05 
         600     0.932551     0.317703  7.87532e-05  -4.0703e-05 
         600     0.962401     0.327674  8.37941e-05 -4.06973e-05 
         600     0.992697     0.337769  8.90595e-05 -4.06914e-05 
         600      1.02349        0.348  9.45633e-05 -4.06854e-05 
         600      1.05472     0.358348  0.000100302 -4.06793e-05 
         600      1.08645     0.368827  0.000106289 -4.06731e-05 
         600      1.11863     0.379417   0.00011252 -4.06667e-05 
         600       1.1513      0.39013  0.000119009 -4.06602e-05 
         600      1.18444     0.400954  0.000125755 -4.06536e-05 
         600      1.21802     0.411876  0.000132756 -4.06468e-05 
         600      1.25211      0.42291  0.000140027 -4.06399e-05 
         600      1.28663     0.434032   0.00014756 -4.06328e-05 
         600      1.32165     0.445256   0.00015537 -4.06256e-05 
         600      1.35712     0.456558  0.000163448 -4.06182e-05 
         600      1.39308      0.46795  0.000171809 -4.06105e-05 
         600      1.42951     0.479418  0.000180447 -4.06027e-05 
         600      1.46638     0.490947  0.000189354 -4.05946e-05 
         600      1.50375     0.502547   0.00019854 -4.05862e-05 
         600      1.54156     0.514194  0.000208001 -4.05766e-05 
         600      1.57987     0.525899  0.000217754 -4.05679e-05 
         600      1.61863     0.537636  0.000227778 -4.05598e-05 
         600      1.65788     0.549416  0.000238082 -4.05518e-05 
         600      1.69757     0.561211  0.000248647 -4.05437e-05 
         600      1.73776     0.573031  0.000259484 -4.05352e-05 
         600      1.77842      0.58486   0.00027058 -4.05262e-05 
         600      1.81952     0.596677  0.000281921 -4.05166e-05 
         600      1.86113     0.608493   0.00029352 -4.05063e-05 
         600      1.90316     0.620279  0.000305351 -4.04954e-05 
         600      1.94571     0.632044  0.000317426  -4.0484e-05 
         600      1.98869     0.643758  0.000329717  -4.0472e-05 
         600      2.03217      0.65543  0.000342235 -4.04597e-05 
         600      2.07612     0.667039  0.000354958  -4.0447e-05 
         600      2.12051     0.678567  0.000367866 -4.04342e-05 
         600       2.1654     0.690019  0.000380964 -4.04212e-05 
         600      2.21073     0.701367  0.000394217 -4.04081e-05 
         600      2.25656     0.712617  0.000407632 -4.03951e-05 
         600      2.30283     0.723741  0.000421169 -4.03819e-05 
         600       2.3496     0.734745  0.000434834 -4.03688e-05 
         600      2.39685     0.745608  0.000448595 -4.03555e-05 
         600      2.44452      0.75631  0.000462423 -4.03421e-05 
         600      2.49271     0.766859   0.00047632 -4.03284e-05 
         600      2.54132     0.777226  0.000490242 -4.03143e-05 
         600      2.59044     0.787416  0.000504191 -4.02997e-05 
         600         2.64     0.797405  0.000518123 -4.02845e-05 
         600      2.69006     0.807196  0.000532038 -4.02685e-05 
         600      2.74056     0.816765  0.000545893 -4.02517e-05 
         600      2.79156     0.826118  0.000559687 -4.02339e-05 
         600      2.84304     0.835239  0.000573388 -4.02152e-05 
         600      2.89494     0.844112  0.000586964 -4.01956e-05 
         600      2.94735     0.852744  0.000600413 -4.01751e-05 
         600       3.0002     0.861113  0.000613693  -4.0154e-05 
         600      3.05355     0.869228  0.000626802 -4.01325e-05 
         600      3.10733     0.877069  0.000639697 -4.01108e-05 
         600      3.16163     0.884645  0.000652376 -4.00891e-05 
         600      3.21639     0.891944  0.000664807 -4.00679e-05 
         600      3.27158     0.898958  0.000676957 -4.00474e-05 
         600      3.32729     0.905696  0.000688824 -4.00278e-05 
         600      3.38342     0.912145  0.000700368  -4.0009e-05 
         600      3.44007     0.918316  0.000711589 -3.99907e-05 
         600      3.49714     0.924199  0.000722454 -3.99724e-05 
         600      3.55472     0.929803  0.000732969 -3.99525e-05 
         600      3.61273     0.935123  0.000743117 -3.99291e-05 
         600      3.67125     0.940168  0.000752923  -3.9899e-05 
         600      3.73025      0.94494  0.000762404 -3.98576e-05 
         600      3.78967     0.949438  0.000771399 -3.98263e-05 
         600      3.84961     0.953675  0.000779983 -3.98033e-05 
         600      3.90996      0.95765  0.000788203 -3.97786e-05 
         600      3.97084     0.961376  0.000796049 -3.97528e-05 
         600      4.03214     0.964854  0.000803497 -3.97263e-05 
         600      4.09395     0.968098   0.00081055 -3.96994e-05 
         600      4.15624     0.971112  0.000817201 -3.96723e-05 
         600      4.21895     0.973904  0.000823448  -3.9645e-05 
         600      4.28217     0.976487  0.000829307 -3.96176e-05 
         600      4.34582     0.978866  0.000834779 -3.95901e-05 
         600      4.40998     0.981054  0.000839883 -3.95622e-05 
         600      4.47457     0.983059  0.000844624  -3.9534e-05 
         600      4.53968     0.984892  0.000849022 -3.95054e-05 
         600      4.60525     0.986562  0.000853089 -3.94763e-05 
         600      4.67125     0.988078  0.000856836 -3.94468e-05 
         600      4.73777     0.989452  0.000860283 -3.94171e-05 
         600       4.8047     0.990691  0.000863439 -3.93875e-05 
         600      4.87216     0.991808  0.000866323 -3.93583e-05 
         600      4.94003     0.992808  0.000868944 -3.93303e-05 
         600      5.00843     0.993703  0.000871321 -3.93042e-05 
         600      5.07724       0.9945   0.00087348 -3.92624e-05 
         600      5.14658     0.995208  0.000875423 -3.92218e-05 
         600      5.21639     0.995834  0.000877163 -3.91825e-05 
         600      5.28661     0.996387  0.000878715 -3.91446e-05 
         600      5.35736     0.996872  0.000880095 -3.91081e-05 
         600      5.42852     0.997297  0.000881317 -3.90727e-05 
         600      5.50021     0.997668  0.000882396 -3.90382e-05 
         600      5.57231      0.99799  0.000883342 -3.90044e-05 
         600      5.64493     0.998269  0.000884172 -3.89711e-05 
         600      5.71803     0.998509  0.000884895 -3.89379e-05 
         600      5.79154     0.998716  0.000885525 -3.89046e-05 
         600      5.86558     0.998893  0.000886073 -3.88709e-05 
         600      5.94003     0.999044   0.00088655 -3.88368e-05 
         600      6.01501     0.999172  0.000886965 -3.88019e-05 
         600       6.0904     0.999281  0.000887326 -3.87664e-05 
         600      6.16632     0.999372   0.00088764 -3.87302e-05 
         600      6.24271     0.999448  0.000887912 -3.86933e-05 
         600       6.3195     0.999512  0.000888146 -3.86559e-05 
         600      6.39683     0.999565  0.000888343 -3.86182e-05 
         600      6.47457     0.999609  0.000888505 -3.85804e-05 
         600      6.55284     0.999646  0.000888632 -3.85427e-05 
         600      6.63152     0.999675  0.000888726 -3.85054e-05 
         600      6.71073       0.9997  0.000888792 -3.84685e-05 
         600      6.79034      0.99972  0.000888842  -3.8432e-05 
         600      6.87049     0.999736  0.000888894 -3.83957e-05 
         600      6.95111     0.999749  0.000888984  -3.8359e-05 
         600      7.03214     0.999759  0.000889104 -3.83206e-05 
         600       7.1137     0.999768   0.00088907 -3.82804e-05 
         600      7.19566     0.999775   0.00088906 -3.82416e-05 
         600      7.27816      0.99978  0.000889069 -3.82036e-05 
         600      7.36106     0.999784  0.000889092 -3.81662e-05 
         600      7.44451     0.999788  0.000889123 -3.81287e-05 
         600      7.52842      0.99979  0.000889157  -3.8091e-05 
         600      7.61273     0.999792   0.00088919 -3.80525e-05 
         600      7.69758     0.999794  0.000889218 -3.80129e-05 
         600      7.78283     0.999795  0.000889239  -3.7972e-05 
         600      7.86862     0.999797  0.000889251 -3.79295e-05 
         600      7.95481     0.999798  0.000889255 -3.78854e-05 
         600      8.04155     0.999798  0.000889251 -3.78396e-05 
         600      8.12868     0.999799  0.000889242 -3.77925e-05 
         600      8.21635       0.9998  0.000889229 -3.77442e-05 
         600      8.30449       0.9998  0.000889214 -3.76954e-05 
         600      8.39303     0.999801    0.0008892 -3.76469e-05 
         600      8.48211     0.999801  0.000889188 -3.75995e-05 
         600      8.57159     0.999801  0.000889179 -3.75547e-05 
         600      8.66161     0.999801   0.00088917 -3.75139e-05 
         600      8.75203     0.999802  0.000889159 -3.74793e-05 
         600      8.84299     0.999802   0.00088914 -3.74532e-05 
         600      8.93443     0.999802  0.000889168 -3.74055e-05 
         600      9.02626     0.999802  0.000889213 -3.73498e-05 
         600      9.11863     0.999803  0.000889247 -3.73013e-05 
         600      9.21139     0.999803  0.000889273 -3.72581e-05 
         600      9.30471     0.999803  0.000889293 -3.72183e-05 
         600      9.39841     0.999804  0.000889307 -3.71804e-05 
         600      9.49267     0.999804  0.000889317 -3.71428e-05 
         600      9.58739     0.999804  0.000889322 -3.71044e-05 
         600      9.68251     0.999805  0.000889322 -3.70643e-05 
         600      9.77817     0.999805  0.000889318 -3.70219e-05 
         600      9.87422     0.999805  0.000889311  -3.6977e-05 
         600      9.97083     0.999806  0.000889302 -3.69296e-05 
         600      10.0678     0.999806  0.000889294 -3.68801e-05 
         600      10.1654     0.999807   0.00088929  -3.6829e-05 
         600      10.2633     0.999807  0.000889294 -3.67772e-05 
         600      10.3618     0.999807   0.00088931 -3.67253e-05 
         600      10.4607     0.999807   0.00088934 -3.66743e-05 
         600      10.5601     0.999807  0.000889383 -3.66248e-05 
         600        10.66     0.999808  0.000889429  -3.6577e-05 
         600      10.7603     0.999808  0.000889459 -3.65308e-05 
         600      10.8611     0.999808  0.000889439 -3.64852e-05 
         600      10.9623     0.999809  0.000889307 -3.64382e-05 
         600      11.0641     0.999809   0.00088942 -3.63996e-05 
         600      11.1663     0.999809  0.000889471 -3.63646e-05 
         600       11.269      0.99981   0.00088943 -3.63275e-05 
         600      11.3721      0.99981  0.000889369 -3.62865e-05 
         600      11.4757     0.999811  0.000889325 -3.62408e-05 
         600      11.5798     0.999811  0.000889311 -3.61903e-05 
         600      11.6844     0.999811  0.000889324 -3.61359e-05 
         600      11.7894     0.999812  0.000889357 -3.60784e-05 
         600       11.895     0.999812  0.000889397 -3.60189e-05 
         600      12.0009     0.999812  0.000889434  -3.5959e-05 
         600      12.1073     0.999812  0.000889461 -3.58995e-05 
         600      12.2142     0.999812  0.000889472 -3.58417e-05 
         600      12.3216     0.999813  0.000889469 -3.57863e-05 
         600      12.4294     0.999813  0.000889454 -3.57337e-05 
         600      12.5378     0.999813  0.000889433  -3.5684e-05 
         600      12.6465     0.999814  0.000889412  -3.5637e-05 
         600      12.7558     0.999814  0.000889397 -3.55921e-05 
         600      12.8656     0.999815  0.000889393 -3.55481e-05 
         600      12.9757     0.999815    0.0008894 -3.55041e-05 
         600      13.0864     0.999815  0.000889419 -3.54584e-05 
         600      13.1975     0.999816  0.000889446 -3.54098e-05 
         600      13.3092     0.999816  0.000889473 -3.53566e-05 
         600      13.4212     0.999817  0.000889494 -3.52978e-05 
         600      13.5338     0.999817  0.000889501 -3.52325e-05 
         600      13.6468     0.999817  0.000889488 -3.51606e-05 
         600      13.7603     0.999817  0.000889454 -3.50828e-05 
         600      13.8743     0.999818  0.000889402 -3.50008e-05 
         600      13.9886     0.999818  0.000889426 -3.49385e-05 
         600      14.1036     0.999819  0.000889494 -3.48919e-05 
         600      14.2189     0.999819  0.000889541 -3.48499e-05 
         600      14.3348     0.999819  0.000889556 -3.48117e-05 
         600       14.451      0.99982  0.000889536 -3.47745e-05 
         600      14.5678      0.99982  0.000889493 -3.47319e-05 
         600      14.6851      0.99982  0.000889459 -3.46732e-05 
         600      14.8028     0.999821  0.000889499 -3.45819e-05 
         600       14.921     0.999821  0.000889718 -3.44338e-05 
         600      15.0396     0.999822  0.000889576 -3.44542e-05 
         600      15.1588     0.999822  0.000889462 -3.44547e-05 
         600      15.2783     0.999822  0.000889431 -3.44218e-05 
         600      15.3984     0.999823  0.000889459 -3.43682e-05 
         600       15.519     0.999823  0.000889521 -3.43032e-05 
         600        15.64     0.999823  0.000889595 -3.42336e-05 
         600      15.7615     0.999824  0.000889661 -3.41635e-05 
         600      15.8834     0.999824  0.000889706 -3.40956e-05 
         600      16.0058     0.999824  0.000889726 -3.40309e-05 
         600      16.1286     0.999825   0.00088972 -3.39696e-05 
         600       16.252     0.999825  0.000889691 -3.39114e-05 
         600      16.3759     0.999825  0.000889649 -3.38553e-05 
         600      16.5002     0.999826  0.000889602 -3.38005e-05 
         600       16.625     0.999826   0.00088956 -3.37459e-05 
         600      16.7501     0.999827  0.000889532 -3.36907e-05 
         600      16.8759     0.999827  0.000889522 -3.36343e-05 
         600       17.002     0.999827  0.000889534 -3.35762e-05 
         600      17.1287     0.999828  0.000889565 -3.35165e-05 
         600      17.2557     0.999828   0.00088961 -3.34552e-05 
         600      17.3834     0.999829  0.000889663 -3.33926e-05 
         600      17.5115     0.999829  0.000889713 -3.33293e-05 
         600      17.6399      0.99983  0.000889753 -3.32658e-05 
         600       17.769      0.99983  0.000889774 -3.32024e-05 
         600      17.8984     0.999831  0.000889775 -3.31399e-05 
         600      18.0284     0.999831  0.000889755 -3.30782e-05 
         600      18.1587     0.999831  0.000889723 -3.30179e-05 
         600      18.2896     0.999831   0.00088969 -3.29587e-05 
         600       18.421     0.999832  0.000889672 -3.29008e-05 
         600      18.5528     0.999832  0.000889678 -3.28444e-05 
         600      18.6851     0.999833   0.00088971 -3.27899e-05 
         600      18.8178     0.999834  0.000889743 -3.27387e-05 
         600      18.9511     0.999834  0.000889709 -3.26931e-05 
         600      19.0847     0.999834  0.000889514  -3.2654e-05 
         600      19.2189     0.999835    0.0008896 -3.25782e-05 
         600      19.3535     0.999835  0.000889627 -3.25005e-05 
         600      19.4886     0.999835  0.000889635 -3.24194e-05 
         600      19.6242     0.999836   0.00088965 -3.23346e-05 
         600      19.7602     0.999836   0.00088969 -3.22474e-05 
         600      19.8968     0.999837  0.000889752 -3.21611e-05 
         600      20.0337     0.999837  0.000889819 -3.20823e-05 
         600      20.1712     0.999838  0.000889844 -3.20214e-05 
         600      20.3091     0.999838  0.000889753 -3.19942e-05 
         600      20.4475     0.999837  0.000889456 -3.20178e-05 
         600      20.5864     0.999838  0.000889728 -3.18972e-05 
         600      20.7257     0.999839  0.000889855 -3.17961e-05 
         600      20.8655      0.99984  0.000889889 -3.17094e-05 
         600      21.0058      0.99984  0.000889871 -3.16332e-05 
         600      21.1465     0.999841  0.000889828 -3.15639e-05 
         600      21.2877     0.999841  0.000889781 -3.14989e-05 
         600      21.4294     0.999841  0.000889741 -3.14362e-05 
         600      21.5716     0.999842  0.000889715 -3.13741e-05 
         600      21.7142     0.999842  0.000889706 -3.13116e-05 
         600      21.8573     0.999842  0.000889712 -3.12479e-05 
         600      22.0008     0.999843  0.000889732 -3.11828e-05 
         600      22.1449     0.999843  0.000889762 -3.11159e-05 
         600      22.2893     0.999844  0.000889798 -3.10474e-05 
         600      22.4344     0.999844  0.000889837 -3.09774e-05 
         600      22.5797     0.999845  0.000889873 -3.09063e-05 
         600      22.7257     0.999845  0.000889906 -3.08343e-05 
         600      22.8721     0.999846  0.000889933 -3.07618e-05 
         600      23.0189     0.999846  0.000889951 -3.06891e-05 
         600      23.1663     0.999847  0.000889962 -3.06164e-05 
         600       23.314     0.999847  0.000889966 -3.05439e-05 
         600      23.4623     0.999848  0.000889962 -3.04716e-05 
         600       23.611     0.999848  0.000889953 -3.03995e-05 
         600      23.7602     0.999849   0.00088994 -3.03272e-05 
         600        23.91     0.999849  0.000889926 -3.02544e-05 
         600        24.06      0.99985  0.000889913 -3.01809e-05 
         600      24.2107      0.99985  0.000889903  -3.0106e-05 
         600      24.3617     0.999851  0.000889898 -3.00291e-05 
         600      24.5133     0.999851  0.000889901 -2.99495e-05 
         600      24.6653     0.999852  0.000889892 -2.98829e-05 
         600      24.8178     0.999852  0.000889882 -2.98199e-05 
         600      24.9708     0.999853  0.000889878 -2.97555e-05 
         600      25.1242     0.999853  0.000889882 -2.96897e-05 
         600      25.2781     0.999853  0.000889891 -2.96225e-05 
         600      25.4324     0.999854  0.000889906 -2.95538e-05 
         600      25.5873     0.999854  0.000889924 -2.94835e-05 
         600      25.7426     0.999855  0.000889943 -2.94115e-05 
         600      25.8984     0.999855  0.000889961 -2.93377e-05 
         600      26.0546     0.999856  0.000889975  -2.9262e-05 
         600      26.2114     0.999856  0.000889985 -2.91842e-05 
         600      26.3686     0.999857  0.000889988 -2.91044e-05 
         600      26.5262     0.999857  0.000889982 -2.90225e-05 
         600      26.6844     0.999858  0.000889969 -2.89386e-05 
         600      26.8429     0.999858  0.000889949 -2.88531e-05 
         600       27.002     0.999859  0.000889924  -2.8766e-05 
         600      27.1615     0.999859  0.000889897 -2.86782e-05 
         600      27.3216      0.99986  0.000889872 -2.85902e-05 
         600      27.4821      0.99986  0.000889854 -2.85029e-05 
         600       27.643      0.99986   0.00088985 -2.84179e-05 
         600      27.8044     0.999861  0.000889866 -2.83363e-05 
         600      27.9663     0.999862  0.000889906 -2.82604e-05 
         600      28.1287     0.999862  0.000889912 -2.81965e-05 
         600      28.2914     0.999862  0.000889995 -2.81514e-05 
         600      28.4548     0.999863  0.000890166 -2.81151e-05 
         600      28.6185     0.999864  0.000890339  -2.8078e-05 
         600      28.7828     0.999865  0.000890451 -2.80306e-05 
         600      28.9475     0.999866  0.000890449 -2.79633e-05 
         600      29.1126     0.999867  0.000890291 -2.78665e-05 
         600      29.2784     0.999867  0.000889939 -2.77306e-05 
         600      29.4444     0.999867  0.000889429 -2.75595e-05 
         600       29.611     0.999867  0.000890003 -2.75965e-05 
         600       29.778     0.999868  0.000890205 -2.75732e-05 
         600      29.9456     0.999868  0.000890202 -2.75062e-05 
         600      30.1137     0.999868  0.000890109 -2.74101e-05 
         600      30.2821     0.999869  0.000890004 -2.72967e-05 
         600      30.4511     0.999869  0.000889933 -2.71757e-05 
         600      30.6204      0.99987  0.000889915 -2.70545e-05 
         600      30.7903      0.99987  0.000889953 -2.69381e-05 
         600      30.9606     0.999871  0.000890035 -2.68302e-05 
         600      31.1315     0.999872  0.000890144 -2.67321e-05 
         600      31.3028     0.999872  0.000890258 -2.66441e-05 
         600      31.4745     0.999873  0.000890359 -2.65652e-05 
         600      31.6468     0.999874  0.000890431 -2.64933e-05 
         600      31.8194     0.999874  0.000890462 -2.64261e-05 
         600      31.9926     0.999875  0.000890451 -2.63606e-05 
         600      32.1662     0.999875  0.000890399  -2.6294e-05 
         600      32.3404     0.999876  0.000890317 -2.62238e-05 
         600      32.5149     0.999876  0.000890219 -2.61478e-05 
         600        32.69     0.999876  0.000890122 -2.60648e-05 
         600      32.8655     0.999877  0.000890042 -2.59742e-05 
         600      33.0414     0.999877  0.000889996 -2.58766e-05 
         600       33.218     0.999878  0.000889994 -2.57735e-05 
         600      33.3948     0.999878  0.000890038 -2.56675e-05 
         600      33.5723     0.999879  0.000890124 -2.55616e-05 
         600        33.75      0.99988  0.000890237 -2.54598e-05 
         600      33.9284      0.99988  0.000890354 -2.53658e-05 
         600      34.1073     0.999881  0.000890445  -2.5283e-05 
         600      34.2865     0.999882  0.000890483 -2.52138e-05 
         600      34.4663     0.999882  0.000890446  -2.5158e-05 
         600      34.6465     0.999882  0.000890335 -2.51127e-05 
         600      34.8272     0.999883  0.000890189 -2.50699e-05 
         600      35.0083     0.999883  0.000890107 -2.50159e-05 
         600        35.19     0.999884  0.000890278 -2.49284e-05 
         600      35.3721     0.999886  0.000891018 -2.47753e-05 
         600      35.5546     0.999886  0.000890302 -2.47536e-05 
         600      35.7377     0.999886  0.000889972 -2.46839e-05 
         600      35.9211     0.999887  0.000889935 -2.45802e-05 
         600      36.1052     0.999888  0.000890053  -2.4461e-05 
         600      36.2895     0.999889   0.00089023  -2.4339e-05 
         600      36.4745     0.999889  0.000890406 -2.42215e-05 
         600      36.6598      0.99989  0.000890542  -2.4112e-05 
         600      36.8457      0.99989  0.000890618 -2.40106e-05 
         600      37.0321      0.99989  0.000890625 -2.39153e-05 
         600      37.2188      0.99989  0.000890564 -2.38236e-05 
         600      37.4062      0.99989  0.000890447 -2.37338e-05 
         600      37.5938     0.999891  0.000890301 -2.36473e-05 
         600      37.7821     0.999892  0.000890176 -2.35703e-05 
         600      37.9707     0.999893  0.000890154 -2.35168e-05 
         600      38.1599     0.999895  0.000890362  -2.3511e-05 
         600      38.3496     0.999895   0.00089044 -2.34273e-05 
         600      38.5396     0.999896  0.000890326 -2.32614e-05 
         600      38.7302     0.999896  0.000890348 -2.31364e-05 
         600      38.9211     0.999896  0.000890428 -2.30412e-05 
         600      39.1127     0.999897  0.000890514  -2.2966e-05 
         600      39.3046     0.999897  0.000890572 -2.29023e-05 
         600      39.4971     0.999898  0.000890588 -2.28429e-05 
         600      39.6899     0.999898   0.00089056  -2.2782e-05 
         600      39.8833     0.999899  0.000890493 -2.27151e-05 
         600      40.0772     0.999899  0.000890401  -2.2639e-05 
         600      40.2714       0.9999  0.000890303 -2.25521e-05 
         600      40.4663     0.999901  0.000890214 -2.24536e-05 
         600      40.6615     0.999901  0.000890153 -2.23445e-05 
         600      40.8573     0.999902  0.000890132 -2.22263e-05 
         600      41.0534     0.999903  0.000890158 -2.21017e-05 
         600      41.2501     0.999904  0.000890232 -2.19738e-05 
         600      41.4473     0.999904  0.000890342 -2.18462e-05 
         600      41.6448     0.999905  0.000890471 -2.17226e-05 
         600      41.8429     0.999906  0.000890593 -2.16058e-05 
         600      42.0414     0.999906  0.000890678 -2.14981e-05 
         600      42.2405     0.999907  0.000890697 -2.13996e-05 
         600      42.4399     0.999907  0.000890632 -2.13087e-05 
         600      42.6399     0.999908   0.00089049   -2.122e-05 
         600      42.8404     0.999908  0.000890318 -2.11241e-05 
         600      43.0412     0.999909   0.00089023 -2.10065e-05 
         600      43.2426     0.999909  0.000890441 -2.08459e-05 
         600      43.4444     0.999908  0.000891257 -2.06199e-05 
         600      43.6467      0.99991  0.000890533 -2.06459e-05 
         600      43.8494     0.999911  0.000890224 -2.06192e-05 
         600      44.0527     0.999912  0.000890169 -2.05571e-05 
         600      44.2563     0.999913  0.000890253 -2.04727e-05 
         600      44.4606     0.999914  0.000890394 -2.03754e-05 
         600      44.6653     0.999915  0.000890539  -2.0272e-05 
         600      44.8704     0.999915  0.000890654 -2.01669e-05 
         600       45.076     0.999915  0.000890725 -2.00626e-05 
         600       45.282     0.999916  0.000890747 -1.99605e-05 
         600      45.4886     0.999916  0.000890724 -1.98608e-05 
         600      45.6955     0.999916  0.000890664 -1.97633e-05 
         600       45.903     0.999917  0.000890579 -1.96672e-05 
         600      46.1111     0.999917   0.00089048 -1.95719e-05 
         600      46.3194     0.999918  0.000890379 -1.94767e-05 
         600      46.5283     0.999918  0.000890287  -1.9381e-05 
         600      46.7376     0.999919  0.000890211 -1.92849e-05 
         600      46.9475      0.99992  0.000890157 -1.91882e-05 
         600      47.1577      0.99992  0.000890131 -1.90914e-05 
         600      47.3685     0.999921  0.000890134 -1.89951e-05 
         600      47.5798     0.999922  0.000890166    -1.89e-05 
         600      47.7914     0.999923  0.000890227  -1.8807e-05 
         600      48.0037     0.999924  0.000890315 -1.87165e-05 